
                                 *****************
                                 * O   R   C   A *
                                 *****************

                                            #,                                       
                                            ###                                      
                                            ####                                     
                                            #####                                    
                                            ######                                   
                                           ########,                                 
                                     ,,################,,,,,                         
                               ,,#################################,,                 
                          ,,##########################################,,             
                       ,#########################################, ''#####,          
                    ,#############################################,,   '####,        
                  ,##################################################,,,,####,       
                ,###########''''           ''''###############################       
              ,#####''   ,,,,##########,,,,          '''####'''          '####       
            ,##' ,,,,###########################,,,                        '##       
           ' ,,###''''                  '''############,,,                           
         ,,##''                                '''############,,,,        ,,,,,,###''
      ,#''                                            '''#######################'''  
     '                                                          ''''####''''         
             ,#######,   #######,   ,#######,      ##                                
            ,#'     '#,  ##    ##  ,#'     '#,    #''#        ,####,    ,#,          
            ##       ##  ##   ,#'  ##            #'  '#       #'       ,# #          
            ##       ##  #######   ##           ,######,      #####,      #          
            '#,     ,#'  ##    ##  '#,     ,#' ,#      #,     #,   #      #          
             '#######'   ##     ##  '#######'  #'      '#     '####' #    #          



                #########################################################
                #                        -***-                          #
                #          Department of theory and spectroscopy        #
                #                                                       #
                #                      Frank Neese                      #
                #                                                       #
                #     Directorship, Architecture, Infrastructure        #
                #                    SHARK, DRIVERS                     #
                #        Core code/Algorithms in most modules           #
                #                                                       #
                #        Max Planck Institute fuer Kohlenforschung      #
                #                Kaiser Wilhelm Platz 1                 #
                #                 D-45470 Muelheim/Ruhr                 #
                #                      Germany                          #
                #                                                       #
                #                  All rights reserved                  #
                #                        -***-                          #
                #########################################################


                         Program Version 6.1.1  -  RELEASE   -
                                (GIT: $487d211c$)
                          ($2025-11-21 10:33:24 +0100$)


 With contributions from (in alphabetic order):
[Max-Planck-Institut fuer Kohlenforschung]                               
  Daniel Aravena         : Magnetic Suceptibility                        
  Michael Atanasov       : Ab Initio Ligand Field Theory (pilot matlab implementation)
  Alexander A. Auer      : GIAO ZORA, VPT2 properties, NMR spectrum      
  Ute Becker             : All parallelization in ORCA, NUMFREQ, NUMCALC 
  Giovanni Bistoni       : ED, misc. LED, open-shell LED, HFLD           
  Dmytro Bykov           : pre 5.0 version of the SCF Hessian            
  Marcos Casanova-Páez   : Triplet and SCS-CIS(D). UHF-(DLPNO)-IP/EA/STEOM-CCSD. UHF-CVS-IP/STEOM-CCSD   
  Vijay G. Chilkuri      : MRCI spin determinant printing, contributions to CSF-ICE 
  Pauline Colinet        : FMM embedding                                 
  Dipayan Datta          : RHF DLPNO-CCSD density                        
  Achintya Kumar Dutta   : EOM-CC, STEOM-CC                              
  Nicolas Foglia         : Exact transition moments, OPA infrastructure, MCD improvements    
  Dmitry Ganyushin       : Spin-Orbit,Spin-Spin,Magnetic field MRCI      
  Miquel Garcia-Rates    : C-PCM and meta-GGA Hessian, CCSD/C-PCM, Gaussian charge scheme 
  Tiago L. C. Gouveia    : GS-ROHF, GS-ROCIS                             
  Yang Guo               : DLPNO-NEVPT2, F12-NEVPT2, CIM, IAO-localization        
  Andreas Hansen         : Spin unrestricted coupled pair/coupled cluster methods 
  Ingolf Harden          : AUTO-CI MPn and infrastructure                
  Benjamin Helmich-Paris : MC-RPA, TRAH-(SCF,CASSCF), AVAS, COSX integrals, SCF dyn. polar., MC-PDFT, srDFT 
  Lee Huntington         : MR-EOM, pCC                                   
  Robert Izsak           : Overlap fitted RIJCOSX, COSX-SCS-MP3, EOM     
  Riya Kayal             : Wick's Theorem for AUTO-CI, AUTO-CI UHF-CCSDT 
  Emily Kempfer          : AUTO-CI RHF CISDT and CCSDT, approximate NEVPT4
  Christian Kollmar      : KDIIS, OOCD, Brueckner-CCSD(T), CCSD density, CASPT2, CASPT2-K, improved NEVPT2 
  Axel Koslowski         : Symmetry handling                             
  Simone Kossmann        : meta-GGA functionals, TD-DFT gradient, OOMP2, (MP2 Hessian; deprecated post 5.0) 
  Lucas Lang             : DCDCAS, Hyperfine gauge corrections, ICE-SOC+SSC
  Marvin Lechner         : AUTO-CI (C++ implementation), FIC-MRCC        
  Spencer Leger          : CASSCF response                               
  Dagmar Lenk            : GEPOL surface, SMD, ORCA-2-JSON               
  Dimitrios Liakos       : Extrapolation schemes; Compound Job, Property file
  Dimitrios Manganas     : Further ROCIS development; embedding schemes. LFT, Crystal Embedding 
  Dimitrios Pantazis     : SARC Basis sets                               
  Anastasios Papadopoulos: AUTO-CI, single reference methods and gradients 
  Taras Petrenko         : pre 6.0 DFT Hessian and TD-DFT gradient,  ECA, NRVS 
  Petra Pikulova         : Analytic Raman intensities                    
  Peter Pinski           : DLPNO-MP2, DLPNO-MP2 Gradient                 
  Shashank Vittal Rao    : ES-AILFT, MagRelax                            
  Christoph Reimann      : Effective Core Potentials                     
  Marius Retegan         : Local ZFS, SOC                                
  Christoph Riplinger    : Optimizer, TS searches, QM/MM, DLPNO-CCSD(T), (RO)-DLPNO pert. Triples 
  Michael Roemelt        : Original ROCIS implementation, recursive CI coupling coefficients
  Masaaki Saitow         : Open-shell DLPNO-CCSD energy and density      
  Barbara Sandhoefer     : DKH picture change effects                    
  Yorick L. A. Schmerwitz: GMF and freeze-and-release deltaSCF, NEB S-IDPP initial path                    
  Kantharuban Sivalingam : CASSCF convergence/infrastructure, NEVPT2, NEVPT3, NEVPT4(SD), FIC-MRCI and CEPA variants
  Bernardo de Souza      : ESD, SOC TD-DFT                               
  Georgi L. Stoychev     : AutoAux, RI-MP2 NMR, DLPNO-MP2 response, X2C  
  Van Anh Tran           : RI-MP2 g-tensors                              
  Willem Van den Heuvel  : Paramagnetic NMR                              
  Zikuan Wang            : NOTCH, Electric field optimization            
  Frank Wennmohs         : Technical directorship and infrastructure     
  Hang Xu                : AUTO-CI-Response properties                   
                                                                         
[FACCTs GmbH]                                                            
  Markus Bursch, Nicolas Foglia, Miquel Garcia-Rates, Ingolf Harden, Hagen Neugebauer, Anastasios Papadopoulos, 
  Christoph Riplinger, Bernardo de Souza, Georgi L. Stoychev                                                    
                                                                 
  APM, various basis sets, CI-OPT, improved COSX, DLPNO-Multilevel,           
  DOCKER, DRACO, updates on ESD, Fragmentator, GOAT, IRC, LR-CPCM, L-BFGS, MBIS, meta-GGA TD-DFT gradient, ML-optimized integration grids, 
  MM, NACMEs, nearIR, NEB, NEB-TS, NL-DFT gradient (VV10), 2- and 3-layer-ONIOM, interface openCOSMO-RS, QMMM,   
  Crystal-QMMM, RESP, rigid body optimization, SF, symmetry and pop. for TD-DFT, various functionals, SOLVATOR                                   
                                                                         
[Other institutions]                                                     
  V. Asgeirsson          : NEB                                           
  Christoph Bannwarth    : sTDA-DFT, sTD-DFT, PBEh-3c, B97-3c, D3        
  Giovanni Bistoni       : ETS/NOCV, ADLD/ADEX, COVALED                  
  Martin Brehm           : Molecular dynamics                            
  Ronald Cardenas        : ETS/NOCV                                      
  Martina Colucci        : COVALED                                       
  Sebastian Ehlert       : rSCAN, r2SCAN, r2SCAN-3c, D4, dhf basis sets  
  Marvin Friede          : D4 for Fr, Ra, Ac-Lr                          
  Lars Goerigk           : TD-DFT with DH, B97 family of functionals     
  Stefan Grimme          : VdW corrections, initial TS optimization, DFT functionals, gCP, sTDA/sTD-DF 
  Waldemar Hujo          : DFT-NL                                        
  H. Jonsson             : NEB                                           
  Holger Kruse           : gCP                                           
  Marcel Mueller         : wB97X-3c, vDZP basis set                      
  Hagen Neugebauer       : wr2SCAN, Native XTB                           
  Gianluca Regni         : ADLD/ADEX                                     
  Tobias Risthaus        : pre 6.0 range-separated hybrid DFT and stability analysis
  Lukas Wittmann         : regularized MP2, r2SCAN double-hybrids, wr2SCAN        
                                                                         
We gratefully acknowledge several colleagues who have allowed us to      
interface, adapt or use parts of their codes:                            
  Ed Valeev, F. Pavosevic, A. Kumar             : LibInt (2-el integral package), F12 methods 
  Garnet Chan, S. Sharma, J. Yang, R. Olivares  : DMRG                   
  Ulf Ekstrom                                   : XCFun DFT Library      
  Mihaly Kallay                                 : mrcc  (arbitrary order and MRCC methods)
  Frank Weinhold                                : gennbo (NPA and NBO analysis)           
  Simon Mueller                                 : openCOSMO-RS                            
  Christopher J. Cramer and Donald G. Truhlar   : smd solvation model                     
  S Lehtola, MJT Oliveira, MAL Marques          : LibXC Library                           
  Liviu Ungur et al                             : ANISO software                          


 Your calculation uses the libint2 library for the computation of 2-el integrals
 For citations please refer to: http://libint.valeyev.net

 Your ORCA version has been built with support for libXC version: 7.0.0
 For citations please refer to: https://libxc.gitlab.io

 This ORCA versions uses:
   CBLAS   interface :  Fast vector & matrix operations
   LAPACKE interface :  Fast linear algebra routines
   SCALAPACK package :  Parallel linear algebra routines
   Shared memory     :  Shared parallel matrices
   BLAS/LAPACK       :  OpenBLAS 0.3.29  USE64BITINT DYNAMIC_ARCH NO_AFFINITY Haswell SINGLE_THREADED
        Core in use  :  Haswell
   Copyright (c) 2011-2014, The OpenBLAS Project


  ***********************************
  * Starting time: Sun Jul  5 19:10:26 2026
  * Host name:     steezy
  * Process ID:    1287311
  * Working dir.:  /home/jannes/chlorophyll-ladder/007-mg-core-ladder/mgbacteriochlorin/02_tddft/m062x
  ***********************************

NOTE: MaxCore=3000 MB was set to SCF,MP2,MDCI,CIPSI,MRCI,RASCI and CIS
      => If you want to overwrite this, your respective input block should be placed after the MaxCore statement


***************************************
The coordinates will be read from file: /home/jannes/chlorophyll-ladder/007-mg-core-ladder/mgbacteriochlorin/01_opt/mgbacteriochlorin_opt_b3lypd4_tzvp.xyz
***************************************


XCFun DFT library Copyright 2009-2010 Ulf Ekstrom and contributors.
See http://admol.org/xcfun for more information.
This is free software; see the source code for copying conditions.
There is ABSOLUTELY NO WARRANTY; not even for MERCHANTABILITY or FITNESS FOR A PARTICULAR PURPOSE.
For details see the documentation.
Scientific users of this library should cite U. Ekstrom, L. Visscher, R. Bast, A. J. Thorvaldsen and K. Ruud;
J.Chem.Theor.Comp. 2010, DOI: 10.1021/ct100117s
XCFun Version 0.99 

================================================================================

----- Orbital basis set information -----
Your calculation utilizes the basis: def2-TZVP
   F. Weigend and R. Ahlrichs, Phys. Chem. Chem. Phys. 7, 3297 (2005).

----- AuxJ basis set information -----
Your calculation utilizes the auxiliary basis: def2/J
   H-Rn: F. Weigend, Phys. Chem. Chem. Phys. 8, 1057 (2006).
   Fr-Lr: K. Eichkorn, F. Weigend, O. Treutler, R. Ahlrichs; Theor. Chem. Acc. 97, 119 (1997).

================================================================================
                                        WARNINGS
                       Please study these warnings very carefully!
================================================================================

WARNING: Functional chosen is sensitive to the integration grid.
         DEFGRID3 seems to be a minimum grid for robust results!

WARNING: CIS/ROCIS methods need fully converged wavefunctions
  ===> : Setting SCFConvForced true
         You can overwrite this default with %scf ConvForced false 


================================================================================
                                       INPUT FILE
================================================================================
NAME = tddft.inp
|  1> %pal nprocs 4 end
|  2> %maxcore 3000
|  3> ! M062X def2-TZVP def2/J RIJCOSX DefGrid3 TightSCF
|  4> %tddft
|  5>   nroots 30
|  6>   triplets false
|  7> end
|  8> * xyzfile 0 1 /home/jannes/chlorophyll-ladder/007-mg-core-ladder/mgbacteriochlorin/01_opt/mgbacteriochlorin_opt_b3lypd4_tzvp.xyz
|  9> 
| 10>                          ****END OF INPUT****
================================================================================

                       ****************************
                       * Single Point Calculation *
                       ****************************

---------------------------------
CARTESIAN COORDINATES (ANGSTROEM)
---------------------------------
  N     -2.124578   -0.012303    0.019619
  N      2.120702   -0.008182    0.053311
  N      0.000054   -2.042965    0.036072
  N     -0.003922    2.022643    0.036768
  C     -4.365647   -0.772052   -0.118068
  C      4.363206   -0.763605    0.191137
  C     -4.368868    0.743331    0.123418
  C      4.363545    0.751732   -0.050582
  C     -2.893435   -1.127457   -0.033347
  C      2.891729   -1.121890    0.105994
  C     -2.896171    1.101445    0.061023
  C      2.890180    1.107061    0.012189
  C     -1.099225   -2.861182    0.000405
  C      1.100883   -2.859069    0.071901
  C     -1.105169    2.838701    0.055116
  C      1.095772    2.840793    0.018125
  C     -2.428367   -2.424151   -0.040149
  C      2.429194   -2.419482    0.112495
  C     -2.433870    2.399066    0.075036
  C      2.425350    2.403775   -0.001591
  C     -0.680956   -4.229545    0.012980
  C      0.685237   -4.228237    0.059463
  C     -0.689363    4.207941    0.048969
  C      0.677354    4.209237    0.023929
  H     -4.752237   -1.026638   -1.108895
  H     -4.959962   -1.326894    0.608414
  H      4.749790   -1.017167    1.182234
  H      4.958957   -1.317434   -0.534930
  H     -4.953125    1.297020   -0.612043
  H     -4.770793    0.997360    1.108263
  H      4.946888    1.306572    0.684739
  H      4.764732    1.006428   -1.035547
  H     -3.179766   -3.203559   -0.079566
  H      3.182074   -3.197459    0.151893
  H     -3.187309    3.176996    0.103002
  H      3.177260    3.183189   -0.029363
  H     -1.343528   -5.080762   -0.009530
  H      1.349426   -5.078189    0.082157
  H     -1.354064    5.057708    0.060979
  H      1.340439    5.060262    0.011412
  Mg    -0.001641   -0.010087    0.036418

----------------------------
CARTESIAN COORDINATES (A.U.)
----------------------------
  NO LB      ZA    FRAG     MASS         X           Y           Z
   0 N     7.0000    0    14.007   -4.014871   -0.023249    0.037074
   1 N     7.0000    0    14.007    4.007547   -0.015462    0.100743
   2 N     7.0000    0    14.007    0.000102   -3.860643    0.068165
   3 N     7.0000    0    14.007   -0.007411    3.822241    0.069481
   4 C     6.0000    0    12.011   -8.249878   -1.458967   -0.223116
   5 C     6.0000    0    12.011    8.245265   -1.443005    0.361196
   6 C     6.0000    0    12.011   -8.255964    1.404693    0.233226
   7 C     6.0000    0    12.011    8.245904    1.420568   -0.095586
   8 C     6.0000    0    12.011   -5.467801   -2.130585   -0.063016
   9 C     6.0000    0    12.011    5.464575   -2.120065    0.200300
  10 C     6.0000    0    12.011   -5.472971    2.081430    0.115316
  11 C     6.0000    0    12.011    5.461648    2.092042    0.023034
  12 C     6.0000    0    12.011   -2.077234   -5.406851    0.000765
  13 C     6.0000    0    12.011    2.080367   -5.402857    0.135874
  14 C     6.0000    0    12.011   -2.088466    5.364367    0.104155
  15 C     6.0000    0    12.011    2.070710    5.368321    0.034251
  16 C     6.0000    0    12.011   -4.588949   -4.580981   -0.075870
  17 C     6.0000    0    12.011    4.590511   -4.572158    0.212586
  18 C     6.0000    0    12.011   -4.599348    4.533577    0.141797
  19 C     6.0000    0    12.011    4.583247    4.542477   -0.003006
  20 C     6.0000    0    12.011   -1.286820   -7.992681    0.024528
  21 C     6.0000    0    12.011    1.294910   -7.990210    0.112369
  22 C     6.0000    0    12.011   -1.302708    7.951855    0.092538
  23 C     6.0000    0    12.011    1.280014    7.954306    0.045220
  24 H     1.0000    0     1.008   -8.980427   -1.940064   -2.095508
  25 H     1.0000    0     1.008   -9.372970   -2.507465    1.149735
  26 H     1.0000    0     1.008    8.975803   -1.922168    2.234098
  27 H     1.0000    0     1.008    9.371070   -2.489590   -1.010871
  28 H     1.0000    0     1.008   -9.360049    2.451013   -1.156593
  29 H     1.0000    0     1.008   -9.015493    1.884737    2.094314
  30 H     1.0000    0     1.008    9.348264    2.469063    1.293968
  31 H     1.0000    0     1.008    9.004039    1.901874   -1.956899
  32 H     1.0000    0     1.008   -6.008887   -6.053850   -0.150357
  33 H     1.0000    0     1.008    6.013249   -6.042321    0.287037
  34 H     1.0000    0     1.008   -6.023141    6.003652    0.194646
  35 H     1.0000    0     1.008    6.004152    6.015356   -0.055489
  36 H     1.0000    0     1.008   -2.538900   -9.601249   -0.018009
  37 H     1.0000    0     1.008    2.550046   -9.596387    0.155255
  38 H     1.0000    0     1.008   -2.558811    9.557682    0.115234
  39 H     1.0000    0     1.008    2.533064    9.562509    0.021566
  40 Mg   12.0000    0    24.305   -0.003102   -0.019062    0.068819

--------------------------------
INTERNAL COORDINATES (ANGSTROEM)
--------------------------------
 N      0   0   0     0.000000000000     0.00000000     0.00000000
 N      1   0   0     4.245416085717     0.00000000     0.00000000
 N      2   1   0     2.939011375942    43.75967239     0.00000000
 N      1   2   3     2.939129070827    43.76187171   180.00255177
 C      1   2   3     2.370352009699   161.12036003   351.01820559
 C      2   1   3     2.370334321602   161.11898876   350.98604815
 C      5   1   2     1.534507198399    71.11414070   179.93485080
 C      6   2   1     1.534495241103    71.11492103   179.93600990
 C      1   2   3     1.355550048196   124.63056083   357.60358136
 C      2   1   3     1.355582128298   124.62977820   357.59599889
 C      1   2   3     1.355546123926   124.62160127   177.56972785
 C      2   1   3     1.355563808831   124.62364954   177.56200688
 C      3   2   1     1.370826670960   172.75333140     8.90847460
 C      3   2   1     1.370815363532    80.36235659   181.15564598
 C      4   1   2     1.370777821536    80.36358993   181.14305473
 C      4   1   2     1.370782906164   172.74430185     9.13892315
 C      9   1   2     1.377588111167   125.66613610     2.25390691
 C     10   2   1     1.377579558700   125.66739448     2.25241290
 C     11   1   2     1.377584022390   125.67739340     2.30114869
 C     12   2   1     1.377579356145   125.67503938     2.29624379
 C     13   3  14     1.430916519652   109.64262364   359.95276415
 C     21  13   3     1.366983719650   106.94919461     0.12079397
 C     15   4   1     1.430996176158   109.64179711   181.00446043
 C     23  15   4     1.366947587917   106.94825517     0.12005675
 H      5   1   2     1.093619998274   117.48119229   285.29610054
 H      5   1   2     1.090336727187   129.77292185    74.83365878
 H      6   2   1     1.093624260422   117.45243435   285.29735237
 H      6   2   1     1.090329122694   129.79853465    74.83293182
 H      7   5   1     1.090334418898   113.35711182   126.06534071
 H      7   5   1     1.093615512790   111.83148131   247.14860792
 H      8   6   2     1.090336113225   113.35342562   126.07482105
 H      8   6   2     1.093607292633   111.83547187   247.16406460
 H     17   9   1     1.083342905325   116.30988331   179.63283291
 H     18  10   2     1.083341733356   116.31217148   179.64366974
 H     19  11   1     1.083340715870   116.31275699   179.62575756
 H     20  12   2     1.083340310464   116.31350810   179.62687671
 H     21  13   3     1.078925603982   125.08340360   180.05189031
 H     22  21  13     1.078925857550   127.96702129   179.92425103
 H     23  15   4     1.078923414896   125.06844783   180.04988392
 H     24  23  15     1.078926070118   127.98362874   179.91361688
 Mg     4   1   2     2.032731255388    46.24671301     0.00000000

---------------------------
INTERNAL COORDINATES (A.U.)
---------------------------
 N      0   0   0     0.000000000000     0.00000000     0.00000000
 N      1   0   0     8.022673726548     0.00000000     0.00000000
 N      2   1   0     5.553926605009    43.75967239     0.00000000
 N      1   2   3     5.554149016110    43.76187171   180.00255177
 C      1   2   3     4.479316139321   161.12036003   351.01820559
 C      2   1   3     4.479282713662   161.11898876   350.98604815
 C      5   1   2     2.899798355505    71.11414070   179.93485080
 C      6   2   1     2.899775759491    71.11492103   179.93600990
 C      1   2   3     2.561618351915   124.63056083   357.60358136
 C      2   1   3     2.561678974521   124.62977820   357.59599889
 C      1   2   3     2.561610936119   124.62160127   177.56972785
 C      2   1   3     2.561644355746   124.62364954   177.56200688
 C      3   2   1     2.590486985190   172.75333140     8.90847460
 C      3   2   1     2.590465617247    80.36235659   181.15564598
 C      4   1   2     2.590394673157    80.36358993   181.14305473
 C      4   1   2     2.590404281711   172.74430185     9.13892315
 C      9   1   2     2.603264255451   125.66613610     2.25390691
 C     10   2   1     2.603248093630   125.66739448     2.25241290
 C     11   1   2     2.603256528784   125.67739340     2.30114869
 C     12   2   1     2.603247710858   125.67503938     2.29624379
 C     13   3  14     2.704040342647   109.64262364   359.95276415
 C     21  13   3     2.583224859667   106.94919461     0.12079397
 C     15   4   1     2.704190871627   109.64179711   181.00446043
 C     23  15   4     2.583156580588   106.94825517     0.12005675
 H      5   1   2     2.066642291317   117.48119229   285.29610054
 H      5   1   2     2.060437808139   129.77292185    74.83365878
 H      6   2   1     2.066650345610   117.45243435   285.29735237
 H      6   2   1     2.060423437730   129.79853465    74.83293182
 H      7   5   1     2.060433446106   113.35711182   126.06534071
 H      7   5   1     2.066633814981   111.83148131   247.14860792
 H      8   6   2     2.060436647919   113.35342562   126.07482105
 H      8   6   2     2.066618281135   111.83547187   247.16406460
 H     17   9   1     2.047221400191   116.30988331   179.63283291
 H     18  10   2     2.047219185490   116.31217148   179.64366974
 H     19  11   1     2.047217262721   116.31275699   179.62575756
 H     20  12   2     2.047216496614   116.31350810   179.62687671
 H     21  13   3     2.038873910402   125.08340360   180.05189031
 H     22  21  13     2.038874389575   127.96702129   179.92425103
 H     23  15   4     2.038869773628   125.06844783   180.04988392
 H     24  23  15     2.038874791271   127.98362874   179.91361688
 Mg     4   1   2     3.841305376545    46.24671301     0.00000000

---------------------
BASIS SET INFORMATION
---------------------
There are 4 groups of distinct atoms

 Group   1 Type N   : 11s6p2d1f contracted to 5s3p2d1f pattern {62111/411/11/1}
 Group   2 Type C   : 11s6p2d1f contracted to 5s3p2d1f pattern {62111/411/11/1}
 Group   3 Type H   : 5s1p contracted to 3s1p pattern {311/1}
 Group   4 Type Mg  : 14s8p3d contracted to 5s4p3d pattern {73211/5111/111}

Atom   0N    basis set group =>   1
Atom   1N    basis set group =>   1
Atom   2N    basis set group =>   1
Atom   3N    basis set group =>   1
Atom   4C    basis set group =>   2
Atom   5C    basis set group =>   2
Atom   6C    basis set group =>   2
Atom   7C    basis set group =>   2
Atom   8C    basis set group =>   2
Atom   9C    basis set group =>   2
Atom  10C    basis set group =>   2
Atom  11C    basis set group =>   2
Atom  12C    basis set group =>   2
Atom  13C    basis set group =>   2
Atom  14C    basis set group =>   2
Atom  15C    basis set group =>   2
Atom  16C    basis set group =>   2
Atom  17C    basis set group =>   2
Atom  18C    basis set group =>   2
Atom  19C    basis set group =>   2
Atom  20C    basis set group =>   2
Atom  21C    basis set group =>   2
Atom  22C    basis set group =>   2
Atom  23C    basis set group =>   2
Atom  24H    basis set group =>   3
Atom  25H    basis set group =>   3
Atom  26H    basis set group =>   3
Atom  27H    basis set group =>   3
Atom  28H    basis set group =>   3
Atom  29H    basis set group =>   3
Atom  30H    basis set group =>   3
Atom  31H    basis set group =>   3
Atom  32H    basis set group =>   3
Atom  33H    basis set group =>   3
Atom  34H    basis set group =>   3
Atom  35H    basis set group =>   3
Atom  36H    basis set group =>   3
Atom  37H    basis set group =>   3
Atom  38H    basis set group =>   3
Atom  39H    basis set group =>   3
Atom  40Mg   basis set group =>   4
---------------------------------
AUXILIARY/J BASIS SET INFORMATION
---------------------------------
There are 4 groups of distinct atoms

 Group   1 Type N   : 12s5p4d2f1g contracted to 6s4p3d1f1g pattern {711111/2111/211/2/1}
 Group   2 Type C   : 12s5p4d2f1g contracted to 6s4p3d1f1g pattern {711111/2111/211/2/1}
 Group   3 Type H   : 5s2p1d contracted to 3s1p1d pattern {311/2/1}
 Group   4 Type Mg  : 14s5p5d2f1g contracted to 8s4p4d1f1g pattern {71111111/2111/2111/2/1}

Atom   0N    basis set group =>   1
Atom   1N    basis set group =>   1
Atom   2N    basis set group =>   1
Atom   3N    basis set group =>   1
Atom   4C    basis set group =>   2
Atom   5C    basis set group =>   2
Atom   6C    basis set group =>   2
Atom   7C    basis set group =>   2
Atom   8C    basis set group =>   2
Atom   9C    basis set group =>   2
Atom  10C    basis set group =>   2
Atom  11C    basis set group =>   2
Atom  12C    basis set group =>   2
Atom  13C    basis set group =>   2
Atom  14C    basis set group =>   2
Atom  15C    basis set group =>   2
Atom  16C    basis set group =>   2
Atom  17C    basis set group =>   2
Atom  18C    basis set group =>   2
Atom  19C    basis set group =>   2
Atom  20C    basis set group =>   2
Atom  21C    basis set group =>   2
Atom  22C    basis set group =>   2
Atom  23C    basis set group =>   2
Atom  24H    basis set group =>   3
Atom  25H    basis set group =>   3
Atom  26H    basis set group =>   3
Atom  27H    basis set group =>   3
Atom  28H    basis set group =>   3
Atom  29H    basis set group =>   3
Atom  30H    basis set group =>   3
Atom  31H    basis set group =>   3
Atom  32H    basis set group =>   3
Atom  33H    basis set group =>   3
Atom  34H    basis set group =>   3
Atom  35H    basis set group =>   3
Atom  36H    basis set group =>   3
Atom  37H    basis set group =>   3
Atom  38H    basis set group =>   3
Atom  39H    basis set group =>   3
Atom  40Mg   basis set group =>   4


           ************************************************************
           *        Program running with 4 parallel MPI-processes     *
           *              working on a common directory               *
           ************************************************************
------------------------------------------------------------------------------
                             ORCA STARTUP CALCULATIONS
                           -- RI-GTO INTEGRALS CHOSEN --
------------------------------------------------------------------------------
------------------------------------------------------------------------------
                   ___                                                        
                  /   \      - P O W E R E D   B Y -                         
                 /     \                                                     
                 |  |  |   _    _      __       _____    __    __             
                 |  |  |  | |  | |    /  \     |  _  \  |  |  /  |          
                  \  \/   | |  | |   /    \    | | | |  |  | /  /          
                 / \  \   | |__| |  /  /\  \   | |_| |  |  |/  /          
                |  |  |   |  __  | /  /__\  \  |    /   |      \           
                |  |  |   | |  | | |   __   |  |    \   |  |\   \          
                \     /   | |  | | |  |  |  |  | |\  \  |  | \   \       
                 \___/    |_|  |_| |__|  |__|  |_| \__\ |__|  \__/        
                                                                              
                      - O R C A' S   B I G   F R I E N D -                    
                                      &                                       
                       - I N T E G R A L  F E E D E R -                       
                                                                              
 v1 FN, 2020, v2 2021, v3 2022-2024                                           
------------------------------------------------------------------------------


----------------------
SHARK INTEGRAL PACKAGE
----------------------

Number of atoms                             ...     41
Number of basis functions                   ...    872
Number of shells                            ...    340
Maximum angular momentum                    ...      3
Integral batch strategy                     ... SHARK/LIBINT Hybrid
RI-J (if used) integral strategy            ... SPLIT-RIJ (Revised 2003 algorithm where possible)
Printlevel                                  ...      1
Contraction scheme used                     ... SEGMENTED contraction
Prescreening option                         ... SCHWARTZ
   Thresh                                   ... 2.500e-11
   Tcut                                     ... 2.500e-12
   Tpresel                                  ... 2.500e-12 
Coulomb Range Separation                    ... NOT USED
Exchange Range Separation                   ... NOT USED
Multipole approximations                    ... NOT USED
Finite Nucleus Model                        ... NOT USED
CABS basis                                  ... NOT available
Auxiliary Coulomb fitting basis             ... AVAILABLE
   # of basis functions in Aux-J            ...   1408
   # of shells in Aux-J                     ...    458
   Maximum angular momentum in Aux-J        ...      4
Auxiliary J/K fitting basis                 ... NOT available
Auxiliary Correlation fitting basis         ... NOT available
Auxiliary 'external' fitting basis          ... NOT available

Checking pre-screening integrals            ... done (  0.0 sec) Dimension = 340
   => SHARK Basis and OBASIS are compatible. Storing Pre-screening
Shell pair information
Shell pair cut-off parameter TPreSel        ...   2.5e-12
Total number of shell pairs                 ...     57970
Shell pairs after pre-screening             ...     40545
Total number of primitive shell pairs       ...    181512
Primitive shell pairs kept                  ...     83416
          la=0 lb=0:   9964 shell pairs
          la=1 lb=0:  11660 shell pairs
          la=1 lb=1:   3400 shell pairs
          la=2 lb=0:   5941 shell pairs
          la=2 lb=1:   3556 shell pairs
          la=2 lb=2:    970 shell pairs
          la=3 lb=0:   2548 shell pairs
          la=3 lb=1:   1556 shell pairs
          la=3 lb=2:    780 shell pairs
          la=3 lb=3:    170 shell pairs

Checking whether 4 symmetric matrices of dimension 872 fit in memory
:Max Core in MB      =   3000.00
 MB in use           =     52.70
 MB left             =   2947.30
 MB needed           =     11.62
 Data fit in memory  = YES
Calculating RI/J V-Matrix + Cholesky decomp.... done (  0.2 sec)
Calculating Nuclear repulsion               ... done (  0.0 sec) ENN=   2190.086224452672 Eh

Diagonalization of the overlap matrix:
Smallest eigenvalue                        ... 1.019e-05
Time for diagonalization                   ...    0.254 sec
Threshold for overlap eigenvalues          ... 1.000e-07
Number of eigenvalues below threshold      ... 0
Time for construction of square roots      ...    0.127 sec
Total time needed                          ...    0.390 sec

-------------------
DFT GRID GENERATION
-------------------

General Integration Accuracy     IntAcc      ... 4.959
Radial Grid Type                 RadialGrid  ... OptM3 with GC (2021)
Angular Grid (max. ang.)         AngularGrid ... 6 (Lebedev-590)
Angular grid pruning method      GridPruning ... 4 (adaptive)
Weight generation scheme         WeightScheme... mBecke (2022)
Basis function cutoff            BFCut       ... 1.0000e-11
Integration weight cutoff        WCut        ... 1.0000e-14
Partially contracted basis set               ... off
Rotationally invariant grid construction     ... off
Angular grids for H and He will be reduced by one unit

Total number of grid points                  ...   489901
Total number of batches                      ...     7676
Average number of points per batch           ...       63
Average number of grid points per atom       ...    11949

--------------------
COSX GRID GENERATION
--------------------

GRIDX 1
-------
General Integration Accuracy     IntAcc      ... 4.020
Radial Grid Type                 RadialGrid  ... OptM3 with GC (2021)
Angular Grid (max. ang.)         AngularGrid ... 2 (Lebedev-110)
Angular grid pruning method      GridPruning ... 4 (adaptive)
Weight generation scheme         WeightScheme... mBecke (2022)
Basis function cutoff            BFCut       ... 1.0000e-11
Integration weight cutoff        WCut        ... 1.0000e-14
Partially contracted basis set               ... on
Rotationally invariant grid construction     ... off
Angular grids for H and He will be reduced by one unit

Total number of grid points                  ...    55413
Total number of batches                      ...      455
Average number of points per batch           ...      121
Average number of grid points per atom       ...     1352
UseSFitting                                  ... on

GRIDX 2
-------
General Integration Accuracy     IntAcc      ... 4.338
Radial Grid Type                 RadialGrid  ... OptM3 with GC (2021)
Angular Grid (max. ang.)         AngularGrid ... 3 (Lebedev-194)
Angular grid pruning method      GridPruning ... 4 (adaptive)
Weight generation scheme         WeightScheme... mBecke (2022)
Basis function cutoff            BFCut       ... 1.0000e-11
Integration weight cutoff        WCut        ... 1.0000e-14
Partially contracted basis set               ... on
Rotationally invariant grid construction     ... off
Angular grids for H and He will be reduced by one unit

Total number of grid points                  ...   121895
Total number of batches                      ...      972
Average number of points per batch           ...      125
Average number of grid points per atom       ...     2973
UseSFitting                                  ... on

GRIDX 3
-------
General Integration Accuracy     IntAcc      ... 4.871
Radial Grid Type                 RadialGrid  ... OptM3 with GC (2021)
Angular Grid (max. ang.)         AngularGrid ... 4 (Lebedev-302)
Angular grid pruning method      GridPruning ... 4 (adaptive)
Weight generation scheme         WeightScheme... mBecke (2022)
Basis function cutoff            BFCut       ... 1.0000e-11
Integration weight cutoff        WCut        ... 1.0000e-14
Partially contracted basis set               ... on
Rotationally invariant grid construction     ... off
Angular grids for H and He will be reduced by one unit

Total number of grid points                  ...   225543
Total number of batches                      ...     1784
Average number of points per batch           ...      126
Average number of grid points per atom       ...     5501
UseSFitting                                  ... on
Grids setup in  25.6 sec
Initializing property integral containers    ... done (  0.0 sec)

SHARK setup successfully completed in  27.2 seconds

Maximum memory used throughout the entire STARTUP-calculation: 159.8 MB


           ************************************************************
           *        Program running with 4 parallel MPI-processes     *
           *              working on a common directory               *
           ************************************************************
-------------------------------------------------------------------------------
                                 ORCA GUESS
                   Start orbitals & Density for SCF / CASSCF
-------------------------------------------------------------------------------

------------
SCF SETTINGS
------------
Hamiltonian:
 Density Functional     Method          .... DFT(GTOs)
 Exchange Functional    Exchange        .... M062X
 Correlation Functional Correlation     .... M062X
 Gradients option       PostSCFGGA      .... off
 Hybrid DFT is turned on
   Fraction HF Exchange ScalHFX         ....  0.540000
   Scaling of DF-GGA-X  ScalDFX         ....  0.460000
   Scaling of DF-GGA-C  ScalDFC         ....  1.000000
   Scaling of DF-LDA-C  ScalLDAC        ....  1.000000
   Perturbative correction              ....  0.000000
 RI-approximation to the Coulomb term is turned on
   Number of AuxJ basis functions       .... 1408
   RIJ-COSX (HFX calculated with COS-X)).... on


General Settings:
 Integral files         IntName         .... tddft
 Hartree-Fock type      HFTyp           .... RHF
 Total Charge           Charge          ....    0
 Multiplicity           Mult            ....    1
 Number of Electrons    NEL             ....  176
 Basis Dimension        Dim             ....  872
 Nuclear Repulsion      ENuc            ....   2190.0862244527 Eh

Convergence Acceleration:
 AO-DIIS                CNVDIIS         .... on
   Start iteration      DIISMaxIt       ....    12
   Startup error        DIISStart       ....  0.200000
   # of expansion vecs  DIISMaxEq       ....     5
   Bias factor          DIISBfac        ....   1.050
   Max. coefficient     DIISMaxC        ....  10.000
 MO-DIIS                CNVKDIIS        .... off
 Trust-Rad. Augm. Hess. CNVTRAH         .... auto
   Auto Start mean grad. ratio tolernc. ....  1.125000
   Auto Start start iteration           ....    50
   Auto Start num. interpolation iter.  ....    10
   Max. Number of Micro iterations      ....    24
   Max. Number of Macro iterations      .... Maxiter - #DIIS iter
   Number of Davidson start vectors     ....     2
   Converg. threshold    (grad. norm)   ....   1.000e-05
   Grad. Scal. Fac. for Micro threshold ....   0.100
   Minimum threshold for Micro iter.    ....   1.000e-02
   NR start threshold (gradient norm)   ....   1.000e-04
   Initial trust radius                 ....   0.400
   Minimum AH scaling param. (alpha)    ....   1.000
   Maximum AH scaling param. (alpha)    .... 1000.000
   Quad. conv. algorithm                .... NR
   White noise on init. David. guess    .... on
   Maximum white noise                  ....   0.010
   Pseudo random numbers                .... off
   Inactive MOs                         .... canonical
   Orbital update algorithm             .... Taylor
   Preconditioner                       .... Diag
   Full preconditioner red. dimension   ....   250
 SOSCF                 CNVSOSCF           .... on
   Start iteration     SOSCFMaxIt         ....   150
   Startup grad/error  SOSCFStart         ....  0.003300
   Hessian update      SOSCFHessUp        .... L-BFGS
   Autom. constraints  SOSCFAutoConstrain .... off
 Level Shifting         CNVShift        .... on
   Level shift para.    LevelShift      ....    0.2500
   Turn off err/grad.   ShiftErr        ....    0.0010
 Zerner damping         CNVZerner       .... off
 Static damping         CNVDamp         .... on
   Fraction old density DampFac         ....    0.7000
   Max. Damping (<1)    DampMax         ....    0.9800
   Min. Damping (>=0)   DampMin         ....    0.0000
   Turn off err/grad.   DampErr         ....    0.1000

SCF Procedure:
 Maximum # iterations   MaxIter         ....   125
 SCF integral mode      SCFMode         .... Direct
   Integral package                     .... SHARK and LIBINT hybrid scheme
 Reset frequency        DirectResetFreq ....    20
 Integral Threshold     Thresh          ....  2.500e-11 Eh
 Primitive CutOff       TCut            ....  2.500e-12 Eh

Convergence Tolerance:
 Convergence Check Mode ConvCheckMode   .... Total+1el-Energy
 Convergence forced     ConvForced      .... 1
 Energy Change          TolE            ....  1.000e-08 Eh
 1-El. energy change                    ....  1.000e-05 Eh
 Orbital Gradient       TolG            ....  1.000e-05
 Orbital Rotation angle TolX            ....  1.000e-05
 DIIS Error             TolErr          ....  5.000e-07

------------------------------
INITIAL GUESS: MODEL POTENTIAL
------------------------------
Loading Hartree-Fock densities                     ... done
Calculating cut-offs                               ... done
Initializing the effective Hamiltonian             ... done
Setting up the integral package (SHARK)            ... done
Starting the Coulomb interaction                   ... done (   2.4 sec)
Making the grid                                    ... done (   0.8 sec)
Mapping shells                                     ... done
Starting the XC term evaluation                    ... done (   2.5 sec)
  promolecular density results
     # of electrons  =    176.013752315
     EX              =   -149.316411799
     EC              =     -5.985031575
     EX+EC           =   -155.301443373
Transforming the Hamiltonian                       ... done (   0.6 sec)
Diagonalizing the Hamiltonian                      ... done (   0.8 sec)
Back transforming the eigenvectors                 ... done (   0.3 sec)
Now organizing SCF variables                       ... done
                      ------------------
                      INITIAL GUESS DONE (   7.8 sec)
                      ------------------
             **** ENERGY FILE WAS UPDATED (tddft.en.tmp) ****
Finished Guess after   8.6 sec
Maximum memory used throughout the entire GUESS-calculation: 88.7 MB


           ************************************************************
           *        Program running with 4 parallel MPI-processes     *
           *              working on a common directory               *
           ************************************************************

-------------------------------------------------------------------------------------------
                                      ORCA LEAN-SCF
                              memory conserving SCF solver
-------------------------------------------------------------------------------------------

----------------------------------------D-I-I-S--------------------------------------------
Iteration    Energy (Eh)           Delta-E    RMSDP     MaxDP     DIISErr   Damp  Time(sec)
-------------------------------------------------------------------------------------------
               ***  Starting incremental Fock matrix formation  ***
    1    -1190.3034861838523284     0.00e+00  2.28e-03  4.39e-02  2.38e-01  0.700 155.3
    2    -1190.5652827832750518    -2.62e-01  1.84e-03  3.87e-02  1.26e-01  0.700  79.2
                               ***Turning on AO-DIIS***
    3    -1190.6943272349803919    -1.29e-01  1.24e-03  2.83e-02  5.30e-02  0.700  76.9
    4    -1190.7703601341509057    -7.60e-02  2.92e-03  6.66e-02  3.70e-02  0.000  80.6
    5    -1190.9319960787629498    -1.62e-01  2.36e-04  4.58e-03  3.98e-03  0.000  84.7
                              *** Initializing SOSCF ***
---------------------------------------S-O-S-C-F--------------------------------------
Iteration    Energy (Eh)           Delta-E    RMSDP     MaxDP     MaxGrad    Time(sec)
--------------------------------------------------------------------------------------
    6    -1190.9324328079169391    -4.37e-04  9.78e-05  1.82e-03  2.55e-03    66.4
               *** Restarting incremental Fock matrix formation ***
    7    -1190.9324752078196070    -4.24e-05  6.78e-05  1.26e-03  5.48e-04   128.7
    8    -1190.9324882245796289    -1.30e-05  2.89e-05  5.04e-04  1.95e-04    86.6
    9    -1190.9324891126989314    -8.88e-07  1.27e-05  2.24e-04  1.05e-04    84.8
   10    -1190.9324901025397594    -9.90e-07  3.91e-06  1.09e-04  3.48e-05    81.1
   11    -1190.9324901702075294    -6.77e-08  1.82e-06  6.45e-05  1.76e-05    73.0
   12    -1190.9324901182699250     5.19e-08  1.17e-06  2.83e-05  7.10e-06    60.5
   13    -1190.9324900954707118     2.28e-08  8.06e-07  1.95e-05  5.68e-06    52.7
   14    -1190.9324901571226292    -6.17e-08  9.42e-07  2.00e-05  1.87e-06    47.8
                  *** Gradient check signals convergence ***

               *****************************************************
               *                     SUCCESS                       *
               *           SCF CONVERGED AFTER  14 CYCLES          *
               *****************************************************

Recomputing exchange energy using gridx3       ... done (  171.843 sec)
Old exchange energy                            :    -82.165376268 Eh
New exchange energy                            :    -82.165359325 Eh
Exchange energy change after final integration :      0.000016943 Eh
Total energy after final integration           :  -1190.932473212 Eh
             **** ENERGY FILE WAS UPDATED (tddft.en.tmp) ****

----------------
TOTAL SCF ENERGY
----------------

Total Energy       :      -1190.93247321167746 Eh          -32406.92013 eV

Components:
Nuclear Repulsion  :       2190.08622445267247 Eh           59595.27593 eV
Electronic Energy  :      -3381.01871460690836 Eh          -92002.19653 eV
One Electron Energy:      -5977.38146471331675 Eh         -162652.81876 eV
Two Electron Energy:       2596.36275010640838 Eh           70650.62224 eV

Virial components:
Potential Energy   :      -2376.11108248070923 Eh          -64657.26967 eV
Kinetic Energy     :       1185.17860926903154 Eh           32250.34953 eV
Virial Ratio       :          2.00485484963840

DFT components:
N(Alpha)           :       87.999995916641 electrons
N(Beta)            :       87.999995916641 electrons
N(Total)           :      175.999991833282 electrons
E(XC)              :      -76.509687613608 Eh       

---------------
SCF CONVERGENCE
---------------

  Last Energy change         ...    6.1652e-08  Tolerance :   1.0000e-08
  Last MAX-Density change    ...    1.9964e-05  Tolerance :   1.0000e-07
  Last RMS-Density change    ...    9.4224e-07  Tolerance :   5.0000e-09
  Last DIIS Error            ...    2.5538e-03  Tolerance :   5.0000e-07
  Last Orbital Gradient      ...    1.8749e-06  Tolerance :   1.0000e-05
  Last Orbital Rotation      ...    7.1780e-06  Tolerance :   1.0000e-05


----------------
ORBITAL ENERGIES
----------------

  NO   OCC          E(Eh)            E(eV) 
   0   2.0000     -47.521076     -1293.1142 
   1   2.0000     -14.760036      -401.6410 
   2   2.0000     -14.760033      -401.6409 
   3   2.0000     -14.730131      -400.8272 
   4   2.0000     -14.730115      -400.8268 
   5   2.0000     -10.577703      -287.8339 
   6   2.0000     -10.577694      -287.8337 
   7   2.0000     -10.577667      -287.8329 
   8   2.0000     -10.577657      -287.8327 
   9   2.0000     -10.564094      -287.4636 
  10   2.0000     -10.564073      -287.4630 
  11   2.0000     -10.564058      -287.4626 
  12   2.0000     -10.564037      -287.4621 
  13   2.0000     -10.544936      -286.9423 
  14   2.0000     -10.544931      -286.9422 
  15   2.0000     -10.544574      -286.9324 
  16   2.0000     -10.544568      -286.9323 
  17   2.0000     -10.533553      -286.6326 
  18   2.0000     -10.533549      -286.6324 
  19   2.0000     -10.533548      -286.6324 
  20   2.0000     -10.533544      -286.6323 
  21   2.0000     -10.528588      -286.4974 
  22   2.0000     -10.528555      -286.4965 
  23   2.0000     -10.527664      -286.4723 
  24   2.0000     -10.527631      -286.4714 
  25   2.0000      -3.275321       -89.1260 
  26   2.0000      -1.970586       -53.6224 
  27   2.0000      -1.966903       -53.5222 
  28   2.0000      -1.966255       -53.5045 
  29   2.0000      -1.070492       -29.1296 
  30   2.0000      -1.065395       -28.9909 
  31   2.0000      -1.053421       -28.6650 
  32   2.0000      -1.047324       -28.4991 
  33   2.0000      -0.911135       -24.7932 
  34   2.0000      -0.886622       -24.1262 
  35   2.0000      -0.876346       -23.8466 
  36   2.0000      -0.870992       -23.7009 
  37   2.0000      -0.869824       -23.6691 
  38   2.0000      -0.850932       -23.1550 
  39   2.0000      -0.850815       -23.1519 
  40   2.0000      -0.823735       -22.4150 
  41   2.0000      -0.808451       -21.9991 
  42   2.0000      -0.746313       -20.3082 
  43   2.0000      -0.734781       -19.9944 
  44   2.0000      -0.701699       -19.0942 
  45   2.0000      -0.678265       -18.4565 
  46   2.0000      -0.646320       -17.5873 
  47   2.0000      -0.644917       -17.5491 
  48   2.0000      -0.642045       -17.4709 
  49   2.0000      -0.631823       -17.1928 
  50   2.0000      -0.609000       -16.5717 
  51   2.0000      -0.592596       -16.1253 
  52   2.0000      -0.585148       -15.9227 
  53   2.0000      -0.573589       -15.6081 
  54   2.0000      -0.570084       -15.5128 
  55   2.0000      -0.554569       -15.0906 
  56   2.0000      -0.551095       -14.9961 
  57   2.0000      -0.548531       -14.9263 
  58   2.0000      -0.504563       -13.7299 
  59   2.0000      -0.502296       -13.6682 
  60   2.0000      -0.481762       -13.1094 
  61   2.0000      -0.480841       -13.0843 
  62   2.0000      -0.480337       -13.0706 
  63   2.0000      -0.467116       -12.7109 
  64   2.0000      -0.466901       -12.7050 
  65   2.0000      -0.462754       -12.5922 
  66   2.0000      -0.449662       -12.2359 
  67   2.0000      -0.446861       -12.1597 
  68   2.0000      -0.441215       -12.0061 
  69   2.0000      -0.440783       -11.9943 
  70   2.0000      -0.438356       -11.9283 
  71   2.0000      -0.426542       -11.6068 
  72   2.0000      -0.425984       -11.5916 
  73   2.0000      -0.424133       -11.5413 
  74   2.0000      -0.421518       -11.4701 
  75   2.0000      -0.420139       -11.4326 
  76   2.0000      -0.418901       -11.3989 
  77   2.0000      -0.410470       -11.1695 
  78   2.0000      -0.373941       -10.1755 
  79   2.0000      -0.373012       -10.1502 
  80   2.0000      -0.363333        -9.8868 
  81   2.0000      -0.345856        -9.4112 
  82   2.0000      -0.323492        -8.8027 
  83   2.0000      -0.310734        -8.4555 
  84   2.0000      -0.300921        -8.1885 
  85   2.0000      -0.293189        -7.9781 
  86   2.0000      -0.234447        -6.3796 
  87   2.0000      -0.196624        -5.3504 
  88   0.0000      -0.076877        -2.0919 
  89   0.0000      -0.013241        -0.3603 
  90   0.0000       0.019699         0.5360 
  91   0.0000       0.041193         1.1209 
  92   0.0000       0.055625         1.5136 
  93   0.0000       0.061502         1.6736 
  94   0.0000       0.065416         1.7801 
  95   0.0000       0.071791         1.9535 
  96   0.0000       0.075963         2.0671 
  97   0.0000       0.082831         2.2539 
  98   0.0000       0.088346         2.4040 
*Only the first 10 virtual orbitals were printed.

                    ********************************
                    * MULLIKEN POPULATION ANALYSIS *
                    ********************************

-----------------------
MULLIKEN ATOMIC CHARGES
-----------------------
   0 N :   -0.391798
   1 N :   -0.391672
   2 N :   -0.445789
   3 N :   -0.445720
   4 C :   -0.310973
   5 C :   -0.311330
   6 C :   -0.311328
   7 C :   -0.310965
   8 C :    0.199757
   9 C :    0.200083
  10 C :    0.200019
  11 C :    0.199725
  12 C :    0.243908
  13 C :    0.243896
  14 C :    0.243833
  15 C :    0.243926
  16 C :   -0.278134
  17 C :   -0.278276
  18 C :   -0.278155
  19 C :   -0.278152
  20 C :   -0.215817
  21 C :   -0.215600
  22 C :   -0.215774
  23 C :   -0.215614
  24 H :    0.149638
  25 H :    0.154469
  26 H :    0.149652
  27 H :    0.154497
  28 H :    0.154496
  29 H :    0.149657
  30 H :    0.154475
  31 H :    0.149649
  32 H :    0.143886
  33 H :    0.143881
  34 H :    0.143900
  35 H :    0.143900
  36 H :    0.140642
  37 H :    0.140672
  38 H :    0.140678
  39 H :    0.140662
  40 Mg:    0.765198
Sum of atomic charges:    0.0000000

--------------------------------
MULLIKEN REDUCED ORBITAL CHARGES
--------------------------------
  0 N s       :     3.675977  s :     3.675977
      pz      :     1.278163  p :     3.658683
      px      :     1.338236
      py      :     1.042284
      dz2     :     0.003820  d :     0.053657
      dxz     :     0.006122
      dyz     :     0.015763
      dx2y2   :     0.013492
      dxy     :     0.014459
      f0      :     0.000664  f :     0.003481
      f+1     :     0.000283
      f-1     :     0.000451
      f+2     :     0.000102
      f-2     :     0.000503
      f+3     :     0.000612
      f-3     :     0.000866

  1 N s       :     3.675955  s :     3.675955
      pz      :     1.278314  p :     3.658584
      px      :     1.338011
      py      :     1.042259
      dz2     :     0.003818  d :     0.053653
      dxz     :     0.006118
      dyz     :     0.015764
      dx2y2   :     0.013494
      dxy     :     0.014457
      f0      :     0.000664  f :     0.003481
      f+1     :     0.000283
      f-1     :     0.000451
      f+2     :     0.000102
      f-2     :     0.000503
      f+3     :     0.000612
      f-3     :     0.000866

  2 N s       :     3.684726  s :     3.684726
      pz      :     1.399109  p :     3.707617
      px      :     1.036987
      py      :     1.271521
      dz2     :     0.004175  d :     0.049916
      dxz     :     0.013500
      dyz     :     0.005277
      dx2y2   :     0.013341
      dxy     :     0.013623
      f0      :     0.000716  f :     0.003530
      f+1     :     0.000500
      f-1     :     0.000358
      f+2     :     0.000071
      f-2     :     0.000540
      f+3     :     0.000760
      f-3     :     0.000585

  3 N s       :     3.684712  s :     3.684712
      pz      :     1.399394  p :     3.707558
      px      :     1.036675
      py      :     1.271489
      dz2     :     0.004153  d :     0.049920
      dxz     :     0.013521
      dyz     :     0.005270
      dx2y2   :     0.013346
      dxy     :     0.013629
      f0      :     0.000718  f :     0.003530
      f+1     :     0.000499
      f-1     :     0.000358
      f+2     :     0.000069
      f-2     :     0.000539
      f+3     :     0.000761
      f-3     :     0.000585

  4 C s       :     3.299802  s :     3.299802
      pz      :     1.080221  p :     2.931810
      px      :     0.922280
      py      :     0.929310
      dz2     :     0.005958  d :     0.074281
      dxz     :     0.015102
      dyz     :     0.015122
      dx2y2   :     0.016265
      dxy     :     0.021834
      f0      :     0.000595  f :     0.005079
      f+1     :     0.000612
      f-1     :     0.000534
      f+2     :     0.000703
      f-2     :     0.000493
      f+3     :     0.001323
      f-3     :     0.000819

  5 C s       :     3.300213  s :     3.300213
      pz      :     1.080210  p :     2.931751
      px      :     0.922347
      py      :     0.929193
      dz2     :     0.005972  d :     0.074287
      dxz     :     0.015092
      dyz     :     0.015120
      dx2y2   :     0.016250
      dxy     :     0.021853
      f0      :     0.000595  f :     0.005079
      f+1     :     0.000612
      f-1     :     0.000533
      f+2     :     0.000703
      f-2     :     0.000494
      f+3     :     0.001324
      f-3     :     0.000818

  6 C s       :     3.300149  s :     3.300149
      pz      :     1.080240  p :     2.931812
      px      :     0.922369
      py      :     0.929204
      dz2     :     0.005826  d :     0.074288
      dxz     :     0.015237
      dyz     :     0.015142
      dx2y2   :     0.016248
      dxy     :     0.021835
      f0      :     0.000579  f :     0.005080
      f+1     :     0.000625
      f-1     :     0.000541
      f+2     :     0.000703
      f-2     :     0.000490
      f+3     :     0.001328
      f-3     :     0.000815

  7 C s       :     3.299733  s :     3.299733
      pz      :     1.080255  p :     2.931860
      px      :     0.922320
      py      :     0.929284
      dz2     :     0.005835  d :     0.074293
      dxz     :     0.015236
      dyz     :     0.015137
      dx2y2   :     0.016261
      dxy     :     0.021824
      f0      :     0.000579  f :     0.005079
      f+1     :     0.000624
      f-1     :     0.000542
      f+2     :     0.000703
      f-2     :     0.000489
      f+3     :     0.001327
      f-3     :     0.000816

  8 C s       :     3.140525  s :     3.140525
      pz      :     0.903952  p :     2.522205
      px      :     0.787683
      py      :     0.830570
      dz2     :     0.002058  d :     0.124954
      dxz     :     0.019967
      dyz     :     0.041348
      dx2y2   :     0.028405
      dxy     :     0.033176
      f0      :     0.001850  f :     0.012560
      f+1     :     0.001016
      f-1     :     0.001146
      f+2     :     0.001075
      f-2     :     0.001373
      f+3     :     0.001881
      f-3     :     0.004221

  9 C s       :     3.140453  s :     3.140453
      pz      :     0.903937  p :     2.521947
      px      :     0.787104
      py      :     0.830906
      dz2     :     0.002062  d :     0.124957
      dxz     :     0.019979
      dyz     :     0.041343
      dx2y2   :     0.028429
      dxy     :     0.033143
      f0      :     0.001850  f :     0.012560
      f+1     :     0.001016
      f-1     :     0.001145
      f+2     :     0.001072
      f-2     :     0.001375
      f+3     :     0.001893
      f-3     :     0.004209

 10 C s       :     3.140407  s :     3.140407
      pz      :     0.904534  p :     2.522062
      px      :     0.786529
      py      :     0.830999
      dz2     :     0.001888  d :     0.124951
      dxz     :     0.020043
      dyz     :     0.041354
      dx2y2   :     0.028536
      dxy     :     0.033130
      f0      :     0.001855  f :     0.012560
      f+1     :     0.001011
      f-1     :     0.001143
      f+2     :     0.001072
      f-2     :     0.001375
      f+3     :     0.001893
      f-3     :     0.004211

 11 C s       :     3.140535  s :     3.140535
      pz      :     0.904523  p :     2.522218
      px      :     0.787074
      py      :     0.830621
      dz2     :     0.001885  d :     0.124961
      dxz     :     0.020032
      dyz     :     0.041370
      dx2y2   :     0.028506
      dxy     :     0.033168
      f0      :     0.001855  f :     0.012561
      f+1     :     0.001011
      f-1     :     0.001143
      f+2     :     0.001074
      f-2     :     0.001373
      f+3     :     0.001882
      f-3     :     0.004222

 12 C s       :     3.131122  s :     3.131122
      pz      :     0.908233  p :     2.491876
      px      :     0.790206
      py      :     0.793438
      dz2     :     0.002644  d :     0.120146
      dxz     :     0.038019
      dyz     :     0.030409
      dx2y2   :     0.022574
      dxy     :     0.026499
      f0      :     0.002038  f :     0.012948
      f+1     :     0.001260
      f-1     :     0.000993
      f+2     :     0.000718
      f-2     :     0.001909
      f+3     :     0.003873
      f-3     :     0.002157

 13 C s       :     3.131022  s :     3.131022
      pz      :     0.908223  p :     2.491986
      px      :     0.789994
      py      :     0.793769
      dz2     :     0.002642  d :     0.120149
      dxz     :     0.038029
      dyz     :     0.030401
      dx2y2   :     0.022544
      dxy     :     0.026533
      f0      :     0.002038  f :     0.012947
      f+1     :     0.001261
      f-1     :     0.000992
      f+2     :     0.000722
      f-2     :     0.001904
      f+3     :     0.003887
      f-3     :     0.002143

 14 C s       :     3.131142  s :     3.131142
      pz      :     0.908342  p :     2.491921
      px      :     0.789868
      py      :     0.793711
      dz2     :     0.002552  d :     0.120155
      dxz     :     0.038169
      dyz     :     0.030395
      dx2y2   :     0.022503
      dxy     :     0.026537
      f0      :     0.002043  f :     0.012948
      f+1     :     0.001256
      f-1     :     0.000991
      f+2     :     0.000718
      f-2     :     0.001905
      f+3     :     0.003892
      f-3     :     0.002144

 15 C s       :     3.131086  s :     3.131086
      pz      :     0.908337  p :     2.491895
      px      :     0.790063
      py      :     0.793494
      dz2     :     0.002558  d :     0.120146
      dxz     :     0.038159
      dyz     :     0.030406
      dx2y2   :     0.022509
      dxy     :     0.026514
      f0      :     0.002043  f :     0.012948
      f+1     :     0.001255
      f-1     :     0.000992
      f+2     :     0.000714
      f-2     :     0.001909
      f+3     :     0.003878
      f-3     :     0.002158

 16 C s       :     3.146869  s :     3.146869
      pz      :     1.064421  p :     3.069956
      px      :     1.001490
      py      :     1.004044
      dz2     :     0.004081  d :     0.054620
      dxz     :     0.014582
      dyz     :     0.015535
      dx2y2   :     0.009560
      dxy     :     0.010861
      f0      :     0.001306  f :     0.006690
      f+1     :     0.000819
      f-1     :     0.000773
      f+2     :     0.000656
      f-2     :     0.000410
      f+3     :     0.001283
      f-3     :     0.001444

 17 C s       :     3.146993  s :     3.146993
      pz      :     1.064448  p :     3.069961
      px      :     1.001849
      py      :     1.003663
      dz2     :     0.004083  d :     0.054632
      dxz     :     0.014533
      dyz     :     0.015582
      dx2y2   :     0.009569
      dxy     :     0.010865
      f0      :     0.001306  f :     0.006690
      f+1     :     0.000818
      f-1     :     0.000773
      f+2     :     0.000656
      f-2     :     0.000410
      f+3     :     0.001287
      f-3     :     0.001440

 18 C s       :     3.146818  s :     3.146818
      pz      :     1.064752  p :     3.070042
      px      :     1.001563
      py      :     1.003728
      dz2     :     0.004069  d :     0.054604
      dxz     :     0.014550
      dyz     :     0.015586
      dx2y2   :     0.009556
      dxy     :     0.010843
      f0      :     0.001307  f :     0.006690
      f+1     :     0.000817
      f-1     :     0.000775
      f+2     :     0.000656
      f-2     :     0.000407
      f+3     :     0.001288
      f-3     :     0.001441

 19 C s       :     3.146773  s :     3.146773
      pz      :     1.064783  p :     3.070098
      px      :     1.001274
      py      :     1.004040
      dz2     :     0.004071  d :     0.054591
      dxz     :     0.014598
      dyz     :     0.015537
      dx2y2   :     0.009537
      dxy     :     0.010848
      f0      :     0.001307  f :     0.006690
      f+1     :     0.000818
      f-1     :     0.000775
      f+2     :     0.000655
      f-2     :     0.000407
      f+3     :     0.001283
      f-3     :     0.001445

 20 C s       :     3.213820  s :     3.213820
      pz      :     1.015899  p :     2.930449
      px      :     0.966008
      py      :     0.948543
      dz2     :     0.005389  d :     0.064484
      dxz     :     0.019869
      dyz     :     0.010387
      dx2y2   :     0.011631
      dxy     :     0.017207
      f0      :     0.001335  f :     0.007064
      f+1     :     0.000707
      f-1     :     0.000891
      f+2     :     0.001023
      f-2     :     0.000202
      f+3     :     0.001024
      f-3     :     0.001883

 21 C s       :     3.213617  s :     3.213617
      pz      :     1.015910  p :     2.930446
      px      :     0.966212
      py      :     0.948324
      dz2     :     0.005387  d :     0.064473
      dxz     :     0.019841
      dyz     :     0.010415
      dx2y2   :     0.011661
      dxy     :     0.017169
      f0      :     0.001335  f :     0.007064
      f+1     :     0.000708
      f-1     :     0.000890
      f+2     :     0.001026
      f-2     :     0.000199
      f+3     :     0.001025
      f-3     :     0.001881

 22 C s       :     3.213787  s :     3.213787
      pz      :     1.015897  p :     2.930445
      px      :     0.966230
      py      :     0.948318
      dz2     :     0.005352  d :     0.064477
      dxz     :     0.019881
      dyz     :     0.010407
      dx2y2   :     0.011663
      dxy     :     0.017174
      f0      :     0.001339  f :     0.007064
      f+1     :     0.000702
      f-1     :     0.000892
      f+2     :     0.001028
      f-2     :     0.000195
      f+3     :     0.001024
      f-3     :     0.001884

 23 C s       :     3.213608  s :     3.213608
      pz      :     1.015902  p :     2.930463
      px      :     0.965996
      py      :     0.948564
      dz2     :     0.005352  d :     0.064479
      dxz     :     0.019909
      dyz     :     0.010381
      dx2y2   :     0.011625
      dxy     :     0.017213
      f0      :     0.001339  f :     0.007064
      f+1     :     0.000702
      f-1     :     0.000892
      f+2     :     0.001025
      f-2     :     0.000198
      f+3     :     0.001023
      f-3     :     0.001885

 24 H s       :     0.830848  s :     0.830848
      pz      :     0.010473  p :     0.019514
      px      :     0.004898
      py      :     0.004143

 25 H s       :     0.826084  s :     0.826084
      pz      :     0.007103  p :     0.019446
      px      :     0.006376
      py      :     0.005968

 26 H s       :     0.830834  s :     0.830834
      pz      :     0.010477  p :     0.019514
      px      :     0.004898
      py      :     0.004139

 27 H s       :     0.826057  s :     0.826057
      pz      :     0.007099  p :     0.019446
      px      :     0.006388
      py      :     0.005959

 28 H s       :     0.826058  s :     0.826058
      pz      :     0.007196  p :     0.019446
      px      :     0.006292
      py      :     0.005957

 29 H s       :     0.830829  s :     0.830829
      pz      :     0.010384  p :     0.019514
      px      :     0.004989
      py      :     0.004141

 30 H s       :     0.826079  s :     0.826079
      pz      :     0.007195  p :     0.019446
      px      :     0.006284
      py      :     0.005967

 31 H s       :     0.830837  s :     0.830837
      pz      :     0.010386  p :     0.019514
      px      :     0.004984
      py      :     0.004144

 32 H s       :     0.835603  s :     0.835603
      pz      :     0.004719  p :     0.020512
      px      :     0.007715
      py      :     0.008078

 33 H s       :     0.835607  s :     0.835607
      pz      :     0.004720  p :     0.020512
      px      :     0.007735
      py      :     0.008058

 34 H s       :     0.835588  s :     0.835588
      pz      :     0.004715  p :     0.020512
      px      :     0.007740
      py      :     0.008057

 35 H s       :     0.835588  s :     0.835588
      pz      :     0.004715  p :     0.020512
      px      :     0.007720
      py      :     0.008077

 36 H s       :     0.839129  s :     0.839129
      pz      :     0.004202  p :     0.020229
      px      :     0.006616
      py      :     0.009411

 37 H s       :     0.839099  s :     0.839099
      pz      :     0.004202  p :     0.020229
      px      :     0.006635
      py      :     0.009392

 38 H s       :     0.839093  s :     0.839093
      pz      :     0.004199  p :     0.020229
      px      :     0.006640
      py      :     0.009389

 39 H s       :     0.839109  s :     0.839109
      pz      :     0.004199  p :     0.020229
      px      :     0.006621
      py      :     0.009408

 40 Mgs       :     4.537721  s :     4.537721
      pz      :     2.090399  p :     6.448729
      px      :     2.159184
      py      :     2.199146
      dz2     :     0.030178  d :     0.248352
      dxz     :     0.012882
      dyz     :     0.033570
      dx2y2   :     0.155904
      dxy     :     0.015819



                     *******************************
                     * LOEWDIN POPULATION ANALYSIS *
                     *******************************

----------------------
LOEWDIN ATOMIC CHARGES
----------------------
   0 N :    0.201195
   1 N :    0.201183
   2 N :    0.160274
   3 N :    0.160305
   4 C :   -0.199571
   5 C :   -0.199571
   6 C :   -0.199565
   7 C :   -0.199559
   8 C :   -0.202599
   9 C :   -0.202574
  10 C :   -0.202572
  11 C :   -0.202550
  12 C :   -0.203735
  13 C :   -0.203732
  14 C :   -0.203726
  15 C :   -0.203718
  16 C :   -0.122092
  17 C :   -0.122103
  18 C :   -0.122121
  19 C :   -0.122133
  20 C :   -0.123784
  21 C :   -0.123787
  22 C :   -0.123749
  23 C :   -0.123754
  24 H :    0.147510
  25 H :    0.143578
  26 H :    0.147524
  27 H :    0.143572
  28 H :    0.143577
  29 H :    0.147509
  30 H :    0.143581
  31 H :    0.147508
  32 H :    0.159197
  33 H :    0.159197
  34 H :    0.159202
  35 H :    0.159202
  36 H :    0.139350
  37 H :    0.139349
  38 H :    0.139351
  39 H :    0.139351
  40 Mg:    0.325482

-------------------------------
LOEWDIN REDUCED ORBITAL CHARGES
-------------------------------
  0 N s       :     2.977348  s :     2.977348
      pz      :     1.113387  p :     3.590838
      px      :     1.352153
      py      :     1.125298
      dz2     :     0.016024  d :     0.212084
      dxz     :     0.009806
      dyz     :     0.050447
      dx2y2   :     0.063608
      dxy     :     0.072199
      f0      :     0.001101  f :     0.018535
      f+1     :     0.000770
      f-1     :     0.001792
      f+2     :     0.000323
      f-2     :     0.003505
      f+3     :     0.003651
      f-3     :     0.007393

  1 N s       :     2.977315  s :     2.977315
      pz      :     1.113480  p :     3.590891
      px      :     1.352118
      py      :     1.125293
      dz2     :     0.016023  d :     0.212076
      dxz     :     0.009804
      dyz     :     0.050444
      dx2y2   :     0.063610
      dxy     :     0.072195
      f0      :     0.001101  f :     0.018534
      f+1     :     0.000770
      f-1     :     0.001792
      f+2     :     0.000323
      f-2     :     0.003504
      f+3     :     0.003650
      f-3     :     0.007393

  2 N s       :     2.974793  s :     2.974793
      pz      :     1.212385  p :     3.648058
      px      :     1.107655
      py      :     1.328018
      dz2     :     0.015789  d :     0.198644
      dxz     :     0.044018
      dyz     :     0.011072
      dx2y2   :     0.060608
      dxy     :     0.067158
      f0      :     0.001106  f :     0.018230
      f+1     :     0.001746
      f-1     :     0.000847
      f+2     :     0.000192
      f-2     :     0.003718
      f+3     :     0.006859
      f-3     :     0.003764

  3 N s       :     2.974739  s :     2.974739
      pz      :     1.212435  p :     3.648056
      px      :     1.107605
      py      :     1.328016
      dz2     :     0.015742  d :     0.198667
      dxz     :     0.044042
      dyz     :     0.011030
      dx2y2   :     0.060648
      dxy     :     0.067205
      f0      :     0.001104  f :     0.018233
      f+1     :     0.001749
      f-1     :     0.000843
      f+2     :     0.000185
      f-2     :     0.003720
      f+3     :     0.006866
      f-3     :     0.003766

  4 C s       :     2.766425  s :     2.766425
      pz      :     1.036347  p :     3.029701
      px      :     0.993746
      py      :     0.999608
      dz2     :     0.047919  d :     0.363032
      dxz     :     0.071293
      dyz     :     0.067521
      dx2y2   :     0.085010
      dxy     :     0.091289
      f0      :     0.004408  f :     0.040413
      f+1     :     0.003550
      f-1     :     0.003545
      f+2     :     0.005502
      f-2     :     0.004858
      f+3     :     0.011250
      f-3     :     0.007299

  5 C s       :     2.766420  s :     2.766420
      pz      :     1.036337  p :     3.029690
      px      :     0.993770
      py      :     0.999583
      dz2     :     0.047973  d :     0.363046
      dxz     :     0.071334
      dyz     :     0.067424
      dx2y2   :     0.084959
      dxy     :     0.091356
      f0      :     0.004412  f :     0.040414
      f+1     :     0.003548
      f-1     :     0.003543
      f+2     :     0.005502
      f-2     :     0.004861
      f+3     :     0.011261
      f-3     :     0.007287

  6 C s       :     2.766430  s :     2.766430
      pz      :     1.036393  p :     3.029695
      px      :     0.993719
      py      :     0.999583
      dz2     :     0.046885  d :     0.363027
      dxz     :     0.072302
      dyz     :     0.067782
      dx2y2   :     0.085046
      dxy     :     0.091013
      f0      :     0.004332  f :     0.040412
      f+1     :     0.003632
      f-1     :     0.003602
      f+2     :     0.005446
      f-2     :     0.004800
      f+3     :     0.011309
      f-3     :     0.007291

  7 C s       :     2.766430  s :     2.766430
      pz      :     1.036389  p :     3.029686
      px      :     0.993688
      py      :     0.999610
      dz2     :     0.046917  d :     0.363032
      dxz     :     0.072208
      dyz     :     0.067848
      dx2y2   :     0.085088
      dxy     :     0.090970
      f0      :     0.004333  f :     0.040412
      f+1     :     0.003630
      f-1     :     0.003603
      f+2     :     0.005449
      f-2     :     0.004799
      f+3     :     0.011296
      f-3     :     0.007302

  8 C s       :     2.711751  s :     2.711751
      pz      :     0.837149  p :     2.787284
      px      :     0.959821
      py      :     0.990314
      dz2     :     0.042109  d :     0.626698
      dxz     :     0.069175
      dyz     :     0.122980
      dx2y2   :     0.201687
      dxy     :     0.190746
      f0      :     0.005203  f :     0.076866
      f+1     :     0.004522
      f-1     :     0.006182
      f+2     :     0.006724
      f-2     :     0.010394
      f+3     :     0.015053
      f-3     :     0.028788

  9 C s       :     2.711745  s :     2.711745
      pz      :     0.837147  p :     2.787269
      px      :     0.959663
      py      :     0.990459
      dz2     :     0.042111  d :     0.626695
      dxz     :     0.069202
      dyz     :     0.122964
      dx2y2   :     0.201651
      dxy     :     0.190767
      f0      :     0.005203  f :     0.076865
      f+1     :     0.004526
      f-1     :     0.006179
      f+2     :     0.006711
      f-2     :     0.010407
      f+3     :     0.015128
      f-3     :     0.028711

 10 C s       :     2.711748  s :     2.711748
      pz      :     0.836939  p :     2.787257
      px      :     0.959844
      py      :     0.990474
      dz2     :     0.041836  d :     0.626703
      dxz     :     0.069303
      dyz     :     0.122907
      dx2y2   :     0.201843
      dxy     :     0.190814
      f0      :     0.005212  f :     0.076865
      f+1     :     0.004496
      f-1     :     0.006162
      f+2     :     0.006718
      f-2     :     0.010400
      f+3     :     0.015142
      f-3     :     0.028735

 11 C s       :     2.711746  s :     2.711746
      pz      :     0.836935  p :     2.787242
      px      :     0.959989
      py      :     0.990318
      dz2     :     0.041836  d :     0.626698
      dxz     :     0.069272
      dyz     :     0.122944
      dx2y2   :     0.201850
      dxy     :     0.190795
      f0      :     0.005211  f :     0.076864
      f+1     :     0.004493
      f-1     :     0.006166
      f+2     :     0.006728
      f-2     :     0.010390
      f+3     :     0.015068
      f-3     :     0.028807

 12 C s       :     2.696590  s :     2.696590
      pz      :     0.840518  p :     2.785595
      px      :     0.968617
      py      :     0.976460
      dz2     :     0.042716  d :     0.641846
      dxz     :     0.113234
      dyz     :     0.094818
      dx2y2   :     0.197553
      dxy     :     0.193525
      f0      :     0.004938  f :     0.079704
      f+1     :     0.006117
      f-1     :     0.004787
      f+2     :     0.006138
      f-2     :     0.013458
      f+3     :     0.026597
      f-3     :     0.017669

 13 C s       :     2.696590  s :     2.696590
      pz      :     0.840507  p :     2.785587
      px      :     0.968465
      py      :     0.976615
      dz2     :     0.042717  d :     0.641851
      dxz     :     0.113295
      dyz     :     0.094762
      dx2y2   :     0.197524
      dxy     :     0.193553
      f0      :     0.004938  f :     0.079705
      f+1     :     0.006120
      f-1     :     0.004784
      f+2     :     0.006163
      f-2     :     0.013434
      f+3     :     0.026690
      f-3     :     0.017576

 14 C s       :     2.696588  s :     2.696588
      pz      :     0.840393  p :     2.785564
      px      :     0.968582
      py      :     0.976588
[...]
     Transition      Energy     Energy  Wavelength fosc(P2)      P2        PX        PY        PZ   
                      (eV)      (cm-1)    (nm)                 (au**2)    (au)      (au)      (au)  
----------------------------------------------------------------------------------------------------
  0-1A  ->  1-1A    2.202452   17764.0   562.9   0.589708501   0.07160  -0.00021   0.26757   0.00002
  0-1A  ->  2-1A    2.674113   21568.2   463.6   0.006985845   0.00103   0.03209   0.00005   0.00028
  0-1A  ->  3-1A    3.850810   31058.9   322.0   0.000032958   0.00001   0.00007   0.00002  -0.00264
  0-1A  ->  4-1A    4.009500   32338.8   309.2   0.000000004   0.00000  -0.00003   0.00001   0.00000
  0-1A  ->  5-1A    4.054722   32703.5   305.8   0.006159223   0.00138   0.03710   0.00004   0.00031
  0-1A  ->  6-1A    4.463706   36002.2   277.8   0.001485753   0.00037  -0.01912   0.00006  -0.00009
  0-1A  ->  7-1A    4.480653   36138.9   276.7   0.000032526   0.00001  -0.00002   0.00001   0.00283
  0-1A  ->  8-1A    4.694696   37865.3   264.1   0.000113120   0.00003   0.00002   0.00002  -0.00541
  0-1A  ->  9-1A    4.784765   38591.7   259.1   0.001666642   0.00044   0.00005   0.02097   0.00004
  0-1A  -> 10-1A    4.844016   39069.6   256.0   0.000054338   0.00001   0.00002   0.00381  -0.00002
  0-1A  -> 11-1A    4.903802   39551.8   252.8   0.000005165   0.00000   0.00006   0.00000   0.00118
  0-1A  -> 12-1A    5.070990   40900.3   244.5   0.000000000   0.00000  -0.00000  -0.00001   0.00000
  0-1A  -> 13-1A    5.239630   42260.5   236.6   0.000000001   0.00000  -0.00001  -0.00002   0.00000
  0-1A  -> 14-1A    5.276689   42559.4   235.0   0.000010599   0.00000  -0.00013  -0.00004   0.00175
  0-1A  -> 15-1A    5.318078   42893.2   233.1   0.000424750   0.00012  -0.01116  -0.00003  -0.00012
  0-1A  -> 16-1A    5.368500   43299.9   230.9   0.000000002   0.00000  -0.00001  -0.00002  -0.00000
  0-1A  -> 17-1A    5.559013   44836.5   223.0   0.038352037   0.01175   0.00013  -0.10841  -0.00026
  0-1A  -> 18-1A    5.561513   44856.6   222.9   0.008240734   0.00253   0.00045   0.00056  -0.05026
  0-1A  -> 19-1A    5.617868   45311.2   220.7   0.000000032   0.00000   0.00002   0.00009   0.00003
  0-1A  -> 20-1A    5.746159   46345.9   215.8   0.000000017   0.00000   0.00003  -0.00007   0.00000
  0-1A  -> 21-1A    5.819366   46936.4   213.1   0.000000021   0.00000   0.00002  -0.00008   0.00000
  0-1A  -> 22-1A    5.901057   47595.2   210.1   0.000043533   0.00001   0.00000  -0.00376   0.00001
  0-1A  -> 23-1A    5.997258   48371.2   206.7   0.001234479   0.00041  -0.00002   0.02020  -0.00000
  0-1A  -> 24-1A    6.135164   49483.4   202.1   0.025609569   0.00866   0.00011  -0.09306  -0.00003
  0-1A  -> 25-1A    6.159263   49677.8   201.3   0.001076502   0.00037   0.00012  -0.00005  -0.01912
  0-1A  -> 26-1A    6.238232   50314.7   198.7   0.000391696   0.00013   0.00002  -0.00000  -0.01161
  0-1A  -> 27-1A    6.268976   50562.7   197.8   0.000194420   0.00007   0.00003  -0.00820   0.00003
  0-1A  -> 28-1A    6.297934   50796.3   196.9   0.000000016   0.00000   0.00007   0.00000   0.00000
  0-1A  -> 29-1A    6.335074   51095.8   195.7   0.000000023   0.00000   0.00009  -0.00000   0.00001
  0-1A  -> 30-1A    6.384736   51496.4   194.2   0.000058226   0.00002   0.00453   0.00000   0.00003

------------------------------------------------------------------------------------------
                     CD SPECTRUM VIA TRANSITION ELECTRIC DIPOLE MOMENTS    
------------------------------------------------------------------------------------------
     Transition      Energy     Energy  Wavelength    R        MX        MY        MZ   
                      (eV)      (cm-1)    (nm)   (1e40*cgs)   (au)      (au)      (au)  
------------------------------------------------------------------------------------------
  0-1A  ->  1-1A    2.202452   17764.0   562.9  -54.54927  -0.00006   0.03962   0.00025
  0-1A  ->  2-1A    2.674113   21568.2   463.6   -1.91064   0.00498   0.00000   0.00055
  0-1A  ->  3-1A    3.850810   31058.9   322.0   -0.17876   0.00019  -0.00009  -0.02289
  0-1A  ->  4-1A    4.009500   32338.8   309.2   -0.00000   0.00001  -0.00001   0.00007
  0-1A  ->  5-1A    4.054722   32703.5   305.8    1.65602   0.00591   0.00001   0.00004
  0-1A  ->  6-1A    4.463706   36002.2   277.8  -34.10364   0.01646   0.00004  -0.00039
  0-1A  ->  7-1A    4.480653   36138.9   276.7    9.57535  -0.00418  -0.00017   0.52769
  0-1A  ->  8-1A    4.694696   37865.3   264.1   38.70537  -0.00954   0.00001   1.23468
  0-1A  ->  9-1A    4.784765   38591.7   259.1  -303.44305  -0.00015   0.18666  -0.00065
  0-1A  -> 10-1A    4.844016   39069.6   256.0  271.01206   0.00034  -0.34545  -0.00010
  0-1A  -> 11-1A    4.903802   39551.8   252.8    0.29450  -0.00007  -0.00002   0.00521
  0-1A  -> 12-1A    5.070990   40900.3   244.5   -0.00018   0.00003  -0.00025   0.00006
  0-1A  -> 13-1A    5.239630   42260.5   236.6   -0.00002  -0.00001  -0.00016  -0.00007
  0-1A  -> 14-1A    5.276689   42559.4   235.0   20.57043   0.00741   0.00005  -0.96756
  0-1A  -> 15-1A    5.318078   42893.2   233.1   -1.40897  -0.02093  -0.00003   0.00626
  0-1A  -> 16-1A    5.368500   43299.9   230.9   -0.00001  -0.00004   0.00008  -0.00001
  0-1A  -> 17-1A    5.559013   44836.5   223.0   14.13814   0.00005  -0.02643  -0.00026
  0-1A  -> 18-1A    5.561513   44856.6   222.9   -2.87545   0.00075   0.00028  -0.10398
  0-1A  -> 19-1A    5.617868   45311.2   220.7   -0.00004   0.00007  -0.00009   0.00005
  0-1A  -> 20-1A    5.746159   46345.9   215.8    0.00001   0.00001  -0.00011  -0.00006
  0-1A  -> 21-1A    5.819366   46936.4   213.1    0.00009   0.00009  -0.00004  -0.00004
  0-1A  -> 22-1A    5.901057   47595.2   210.1    5.76442  -0.00012   0.12941   0.00018
  0-1A  -> 23-1A    5.997258   48371.2   206.7  -17.51435  -0.00005   0.02919   0.00006
  0-1A  -> 24-1A    6.135164   49483.4   202.1   17.72283   0.00002  -0.02454   0.00008
  0-1A  -> 25-1A    6.159263   49677.8   201.3    1.01339   0.00050  -0.00008  -0.06113
  0-1A  -> 26-1A    6.238232   50314.7   198.7   -8.79591  -0.00146   0.00077   0.16456
  0-1A  -> 27-1A    6.268976   50562.7   197.8  -15.20054  -0.00021   0.22048  -0.00077
  0-1A  -> 28-1A    6.297934   50796.3   196.9   -0.00001   0.00000  -0.00126  -0.00004
  0-1A  -> 29-1A    6.335074   51095.8   195.7   -0.00013  -0.00021  -0.00053  -0.00008
  0-1A  -> 30-1A    6.384736   51496.4   194.2   -2.72222   0.48137   0.00046   0.00378

------------------------------------------------------------------------------------------
                     CD SPECTRUM VIA TRANSITION VELOCITY DIPOLE MOMENTS    
------------------------------------------------------------------------------------------
     Transition      Energy     Energy  Wavelength    R        MX        MY        MZ   
                      (eV)      (cm-1)    (nm)   (1e40*cgs)   (au)      (au)      (au)  
------------------------------------------------------------------------------------------
  0-1A  ->  1-1A    2.202452   17764.0   562.9   61.75767  -0.00006   0.03962   0.00025
  0-1A  ->  2-1A    2.674113   21568.2   463.6    0.76722   0.00498   0.00000   0.00055
  0-1A  ->  3-1A    3.850810   31058.9   322.0    0.20169   0.00019  -0.00009  -0.02289
  0-1A  ->  4-1A    4.009500   32338.8   309.2   -0.00000   0.00001  -0.00001   0.00007
  0-1A  ->  5-1A    4.054722   32703.5   305.8    0.69395   0.00591   0.00001   0.00004
  0-1A  ->  6-1A    4.463706   36002.2   277.8   -0.90447   0.01646   0.00004  -0.00039
  0-1A  ->  7-1A    4.480653   36138.9   276.7    4.28246  -0.00418  -0.00017   0.52769
  0-1A  ->  8-1A    4.694696   37865.3   264.1  -18.25513  -0.00954   0.00001   1.23468
  0-1A  ->  9-1A    4.784765   38591.7   259.1   10.49293  -0.00015   0.18666  -0.00065
  0-1A  -> 10-1A    4.844016   39069.6   256.0   -3.48476   0.00034  -0.34545  -0.00010
  0-1A  -> 11-1A    4.903802   39551.8   252.8    0.01609  -0.00007  -0.00002   0.00521
  0-1A  -> 12-1A    5.070990   40900.3   244.5    0.00001   0.00003  -0.00025   0.00006
  0-1A  -> 13-1A    5.239630   42260.5   236.6    0.00001  -0.00001  -0.00016  -0.00007
  0-1A  -> 14-1A    5.276689   42559.4   235.0   -4.11962   0.00741   0.00005  -0.96756
  0-1A  -> 15-1A    5.318078   42893.2   233.1    0.56140  -0.02093  -0.00003   0.00626
  0-1A  -> 16-1A    5.368500   43299.9   230.9   -0.00000  -0.00004   0.00008  -0.00001
  0-1A  -> 17-1A    5.559013   44836.5   223.0    6.61219   0.00005  -0.02643  -0.00026
  0-1A  -> 18-1A    5.561513   44856.6   222.9   12.05569   0.00075   0.00028  -0.10398
  0-1A  -> 19-1A    5.617868   45311.2   220.7   -0.00001   0.00007  -0.00009   0.00005
  0-1A  -> 20-1A    5.746159   46345.9   215.8    0.00002   0.00001  -0.00011  -0.00006
  0-1A  -> 21-1A    5.819366   46936.4   213.1    0.00001   0.00009  -0.00004  -0.00004
  0-1A  -> 22-1A    5.901057   47595.2   210.1   -1.05870  -0.00012   0.12941   0.00018
  0-1A  -> 23-1A    5.997258   48371.2   206.7    1.26160  -0.00005   0.02919   0.00006
  0-1A  -> 24-1A    6.135164   49483.4   202.1    4.77494   0.00002  -0.02454   0.00008
  0-1A  -> 25-1A    6.159263   49677.8   201.3    2.43440   0.00050  -0.00008  -0.06113
  0-1A  -> 26-1A    6.238232   50314.7   198.7   -3.92774  -0.00146   0.00077   0.16456
  0-1A  -> 27-1A    6.268976   50562.7   197.8   -3.69820  -0.00021   0.22048  -0.00077
  0-1A  -> 28-1A    6.297934   50796.3   196.9   -0.00000   0.00000  -0.00126  -0.00004
  0-1A  -> 29-1A    6.335074   51095.8   195.7   -0.00004  -0.00021  -0.00053  -0.00008
  0-1A  -> 30-1A    6.384736   51496.4   194.2    4.37860   0.48137   0.00046   0.00378

Total run time:     3709.722 sec

           *** ORCA-CIS/TD-DFT FINISHED WITHOUT ERROR ***
-----------------------
CIS/TD-DFT TOTAL ENERGY
-----------------------

    E(SCF)  =  -1190.932473212 Eh
    DE(CIS) =      0.080938621 Eh (Root  1)
    ----------------------------- ---------
    E(tot)  =  -1190.851534591 Eh


Maximum memory used throughout the entire CIS-calculation: 2696.1 MB
=> NOW LEAVING ORCA_CIS

-------------------------   --------------------
FINAL SINGLE POINT ENERGY     -1190.851534590518
-------------------------   --------------------



           ************************************************************
           *        Program running with 4 parallel MPI-processes     *
           *              working on a common directory               *
           ************************************************************

------------------------------------------------------------------------------
                              ORCA PROPERTY CALCULATIONS
------------------------------------------------------------------------------

GBWName                                 ... tddft.gbw
Number of atoms                         ...     41
Number of basis functions               ...    872
Max core memory                         ...   3000 MB

Electric properties:
Dipole moment                           ... YES
Quadrupole moment                       ...  NO
Static polarizability (Dipole/Dipole)   ...  NO
Static polarizability (Dipole/Quad.)    ...  NO
Static polarizability (Quad./Quad.)     ...  NO
Static polarizability (Velocity)        ...  NO
Static hyperpolarizability              ...  NO

Atomic electric properties:
Dipole moment                           ...  NO
Quadrupole moment                       ...  NO
Static polarizability                   ...  NO

Choice of electric origin               ... Center of mass
Position of electric origin             ...    -0.003613    -0.019229     0.068836

General magnetic properties:
Magnetizability                         ...  NO

EPR properties:
g-Tensor (aka g-matrix)                 ...  NO
Zero-Field splitting spin-orbit         ...  NO
Zero-field splitting spin-spin          ...  NO
Hyperfine couplings                     ...  NO (   0 nuclei)
Quadrupole couplings                    ...  NO (   0 nuclei)
Contact density                         ...  NO (   0 nuclei)

NMR properties:
Chemical shifts                         ...  NO (   0 nuclei)
Spin-rotation constants                 ...  NO (   0 nuclei)
Spin-spin couplings                     ...  NO (   0 nuclei,    0 pairs)

Choice of magnetic origin               ... GIAO
Position of magnetic origin             ...     0.000000     0.000000     0.000000

Properties with geometric perturbations:
SCF Hessian                             ...  NO
IR spectrum                             ...  NO
VCD spectrum                            ...  NO
X-ray spectroscopy properties:
SCF XES/XAS/RIXS spectra                ...  NO

SCF SOC stabilization energy            ...  NO
Diagonal Born-Oppenheimer correction    ...  NO

-------------
DIPOLE MOMENT
-------------

Method             : SCF
Type of density    : Electron Density
Multiplicity       :   1
Irrep              :   0
Energy             : -1190.9324732116774612 Eh
Basis              : AO
                                X                 Y                 Z
Electronic contribution:      0.000797796       0.000627337      -0.000405549
Nuclear contribution   :     -0.000660183       0.000201001       0.000373176
                        -----------------------------------------
Total Dipole Moment    :      0.000137613       0.000828339      -0.000032373
                        -----------------------------------------
Magnitude (a.u.)       :      0.000840316
Magnitude (Debye)      :      0.002135912



--------------------
Rotational spectrum 
--------------------
 
Rotational constants in cm-1:             0.008915             0.008207             0.004290 
Rotational constants in MHz :           267.260438           246.047427           128.597541 

Dipole components along the rotational axes: 
x,y,z [a.u.] :     0.000138    -0.000828    -0.000033 
x,y,z [Debye]:     0.000351    -0.002105    -0.000085 

 

Dipole moment calculation done in   0.0 sec 

Maximum memory used throughout the entire PROP-calculation: 90.9 MB

--------------------------------
SUGGESTED CITATIONS FOR THIS RUN
--------------------------------

Below you find a list of papers that are relevant to this ORCA run
We neither can nor want to force you to cite these papers, but we appreciate if you do
You receive ORCA, which is the product of decades of hard work by many enthusiastic individuals, for free
The only thing we kindly ask in return is that you cite our papers,
We deeply appreciate it, if you show your appreciation for ORCA by not just citing the generic ORCA reference.

Please note that relegating all ORCA citations to the supporting information does *not* help us.
SI sections are not indexed - citations you put there will not count into any citation statistics
But we need these citations in order to attract the funding resources that allow us to do what we are doing

Therefore, if you are a happy ORCA user, please consider citing a few of the papers listed below in the main body of your paper

In addition to the list printed below, the program has created the file tddft.bibtex that contains the list in bibtex format
You can import this file easily into all common literature databanks and citation aid programs

It goes without saying that in many instances, there are alternative algorithms to achieve similar
results as the ones you have gotten from ORCA. It is, of course, also the case that in some instances
ORCA just re-implements algorithms worked out by others. We are fully aware of that and we are also
fully appreciative of our colleagues work. Hence this citation list should not be read as indicating
that the listed papers, which are focused on our own work, are the only ones worth citing. It simply
meant to make it easier for users to cite ORCA specific papers. It is not a substitute for doing your
own literature research and citing the relevant literature in a scientifically appropriate manner.

List of essential papers. We consider these as the minimum necessary citations

  1. Neese, F.
     Software update: the ORCA program system, version 6.0
     WIRES Comput. Molec. Sci. 2025 15(1), e70019
     doi.org/10.1002/wcms.70019

List of papers to cite with high priority. The work reported in these papers was absolutely
necessary for this run to complete.
Our perspective: the developers of density functionals and basis sets usually get cited in chemistry papers
Good! But without the algorithms to do something with them, the functionals or basis sets would not do anything.
Hence, in our opinion, the algorithm design and method developments papers are equally worthy of getting cited

  1. Neese, F.; Olbrich, G.
     Efficient use of the resolution of the identity approximation in time-dependent density functional calculations with hybrid density functionals
     Chem. Phys. Lett. 2002 362 , 170-178
     doi.org/10.1016/s0009-2614(02)01053-9
  2. Neese, F.
     An improvement of the resolution of the identity approximation for the formation of the Coulomb matrix
     J. Comp. Chem. 2003 24(14), 1740-1747
     doi.org/10.1002/jcc.10318
  3. Neese, F.; Wennmohs, F.; Hansen, A.; Becker, U.
     Efficient, approximate and parallel Hartree-Fock and hybrid DFT calculations. A 'chain-of-spheres' algorithm for the Hartree-Fock exchange
     Chem. Phys. 2009 356(1-3), 98-109
     doi.org/10.1016/j.chemphys.2008.10.036
  4. Helmich-Paris, B.; de Souza, B.; Neese, F.; Izsák, R.
     An improved chain of spheres for exchange algorithm
     J. Chem. Phys. 2021 155(10), 104109
     doi.org/10.1063/5.0058766
  5. Neese, F.
     The SHARK Integral Generation and Digestion System
     J. Comp. Chem. 2022 44(3), 381
     doi.org/10.1002/jcc.26942

List of suggested additional citations. These are papers that are important in the 'surrounding' of 
of this run, or papers that preceded the highly important papers. If you like your results we are grateful for a citation.

  1. Izsak, R.; Neese, F.
     An overlap fitted chain of spheres exchange method
     J. Chem. Phys. 2011 135 , 144105
     doi.org/10.1063/1.3646921
  2. Izsak, R.; Hansen, A.; Neese, F.
     The resolution of identity and chain of spheres approximations for the LPNO-CCSD singles Fock term
     Molec. Phys. 2012 110 , 2413-2417
     doi.org/10.1080/00268976.2012.687466
  3. Neese, F.
     The ORCA program system
     WIRES Comput. Molec. Sci. 2012 2(1), 73-78
     doi.org/10.1002/wcms.81
  4. Izsak, R.; Neese, F.; Klopper, W.
     Robust fitting techniques in the chain of spheres approximation to the Fock exchange: The role of the complementary space
     J. Chem. Phys. 2013 139 , 
     doi.org/10.1063/1.4819264
  5. Neese, F.
     Software update: the ORCA program system, version 4.0
     WIRES Comput. Molec. Sci. 2018 8(1), 1-6
     doi.org/10.1002/wcms.1327
  6. Neese, F.; Wennmohs, F.; Becker, U.; Riplinger, C.
     The ORCA quantum chemistry program package
     J. Chem. Phys. 2020 152(22), 224108
     doi.org/10.1063/5.0004608
  7. Neese, F.
     Software update: The ORCA program system—Version 5.0
     WIRES Comput. Molec. Sci. 2022 12(1), e1606
     doi.org/10.1002/wcms.1606

List of optional additional citations

  1. Neese, F.
     Approximate second-order SCF convergence for spin unrestricted wavefunctions
     Chem. Phys. Lett. 2000 325(1-3), 93-98
     doi.org/10.1016/s0009-2614(00)00662-x

Timings for individual modules:

Sum of individual times          ...     5134.101 sec (=  85.568 min)
Startup calculation              ...       28.012 sec (=   0.467 min)   0.5 %
SCF iterations                   ...     1394.544 sec (=  23.242 min)  27.2 %
Property integrals               ...        1.013 sec (=   0.017 min)   0.0 %
Property calculations            ...        0.480 sec (=   0.008 min)   0.0 %
CIS module                       ...     3710.052 sec (=  61.834 min)  72.3 %
                             ****ORCA TERMINATED NORMALLY****
TOTAL RUN TIME: 0 days 1 hours 25 minutes 34 seconds 473 msec
