
                                 *****************
                                 * O   R   C   A *
                                 *****************

                                            #,                                       
                                            ###                                      
                                            ####                                     
                                            #####                                    
                                            ######                                   
                                           ########,                                 
                                     ,,################,,,,,                         
                               ,,#################################,,                 
                          ,,##########################################,,             
                       ,#########################################, ''#####,          
                    ,#############################################,,   '####,        
                  ,##################################################,,,,####,       
                ,###########''''           ''''###############################       
              ,#####''   ,,,,##########,,,,          '''####'''          '####       
            ,##' ,,,,###########################,,,                        '##       
           ' ,,###''''                  '''############,,,                           
         ,,##''                                '''############,,,,        ,,,,,,###''
      ,#''                                            '''#######################'''  
     '                                                          ''''####''''         
             ,#######,   #######,   ,#######,      ##                                
            ,#'     '#,  ##    ##  ,#'     '#,    #''#        ,####,    ,#,          
            ##       ##  ##   ,#'  ##            #'  '#       #'       ,# #          
            ##       ##  #######   ##           ,######,      #####,      #          
            '#,     ,#'  ##    ##  '#,     ,#' ,#      #,     #,   #      #          
             '#######'   ##     ##  '#######'  #'      '#     '####' #    #          



                #########################################################
                #                        -***-                          #
                #          Department of theory and spectroscopy        #
                #                                                       #
                #                      Frank Neese                      #
                #                                                       #
                #     Directorship, Architecture, Infrastructure        #
                #                    SHARK, DRIVERS                     #
                #        Core code/Algorithms in most modules           #
                #                                                       #
                #        Max Planck Institute fuer Kohlenforschung      #
                #                Kaiser Wilhelm Platz 1                 #
                #                 D-45470 Muelheim/Ruhr                 #
                #                      Germany                          #
                #                                                       #
                #                  All rights reserved                  #
                #                        -***-                          #
                #########################################################


                         Program Version 6.1.1  -  RELEASE   -
                                (GIT: $487d211c$)
                          ($2025-11-21 10:33:24 +0100$)


 With contributions from (in alphabetic order):
[Max-Planck-Institut fuer Kohlenforschung]                               
  Daniel Aravena         : Magnetic Suceptibility                        
  Michael Atanasov       : Ab Initio Ligand Field Theory (pilot matlab implementation)
  Alexander A. Auer      : GIAO ZORA, VPT2 properties, NMR spectrum      
  Ute Becker             : All parallelization in ORCA, NUMFREQ, NUMCALC 
  Giovanni Bistoni       : ED, misc. LED, open-shell LED, HFLD           
  Dmytro Bykov           : pre 5.0 version of the SCF Hessian            
  Marcos Casanova-Páez   : Triplet and SCS-CIS(D). UHF-(DLPNO)-IP/EA/STEOM-CCSD. UHF-CVS-IP/STEOM-CCSD   
  Vijay G. Chilkuri      : MRCI spin determinant printing, contributions to CSF-ICE 
  Pauline Colinet        : FMM embedding                                 
  Dipayan Datta          : RHF DLPNO-CCSD density                        
  Achintya Kumar Dutta   : EOM-CC, STEOM-CC                              
  Nicolas Foglia         : Exact transition moments, OPA infrastructure, MCD improvements    
  Dmitry Ganyushin       : Spin-Orbit,Spin-Spin,Magnetic field MRCI      
  Miquel Garcia-Rates    : C-PCM and meta-GGA Hessian, CCSD/C-PCM, Gaussian charge scheme 
  Tiago L. C. Gouveia    : GS-ROHF, GS-ROCIS                             
  Yang Guo               : DLPNO-NEVPT2, F12-NEVPT2, CIM, IAO-localization        
  Andreas Hansen         : Spin unrestricted coupled pair/coupled cluster methods 
  Ingolf Harden          : AUTO-CI MPn and infrastructure                
  Benjamin Helmich-Paris : MC-RPA, TRAH-(SCF,CASSCF), AVAS, COSX integrals, SCF dyn. polar., MC-PDFT, srDFT 
  Lee Huntington         : MR-EOM, pCC                                   
  Robert Izsak           : Overlap fitted RIJCOSX, COSX-SCS-MP3, EOM     
  Riya Kayal             : Wick's Theorem for AUTO-CI, AUTO-CI UHF-CCSDT 
  Emily Kempfer          : AUTO-CI RHF CISDT and CCSDT, approximate NEVPT4
  Christian Kollmar      : KDIIS, OOCD, Brueckner-CCSD(T), CCSD density, CASPT2, CASPT2-K, improved NEVPT2 
  Axel Koslowski         : Symmetry handling                             
  Simone Kossmann        : meta-GGA functionals, TD-DFT gradient, OOMP2, (MP2 Hessian; deprecated post 5.0) 
  Lucas Lang             : DCDCAS, Hyperfine gauge corrections, ICE-SOC+SSC
  Marvin Lechner         : AUTO-CI (C++ implementation), FIC-MRCC        
  Spencer Leger          : CASSCF response                               
  Dagmar Lenk            : GEPOL surface, SMD, ORCA-2-JSON               
  Dimitrios Liakos       : Extrapolation schemes; Compound Job, Property file
  Dimitrios Manganas     : Further ROCIS development; embedding schemes. LFT, Crystal Embedding 
  Dimitrios Pantazis     : SARC Basis sets                               
  Anastasios Papadopoulos: AUTO-CI, single reference methods and gradients 
  Taras Petrenko         : pre 6.0 DFT Hessian and TD-DFT gradient,  ECA, NRVS 
  Petra Pikulova         : Analytic Raman intensities                    
  Peter Pinski           : DLPNO-MP2, DLPNO-MP2 Gradient                 
  Shashank Vittal Rao    : ES-AILFT, MagRelax                            
  Christoph Reimann      : Effective Core Potentials                     
  Marius Retegan         : Local ZFS, SOC                                
  Christoph Riplinger    : Optimizer, TS searches, QM/MM, DLPNO-CCSD(T), (RO)-DLPNO pert. Triples 
  Michael Roemelt        : Original ROCIS implementation, recursive CI coupling coefficients
  Masaaki Saitow         : Open-shell DLPNO-CCSD energy and density      
  Barbara Sandhoefer     : DKH picture change effects                    
  Yorick L. A. Schmerwitz: GMF and freeze-and-release deltaSCF, NEB S-IDPP initial path                    
  Kantharuban Sivalingam : CASSCF convergence/infrastructure, NEVPT2, NEVPT3, NEVPT4(SD), FIC-MRCI and CEPA variants
  Bernardo de Souza      : ESD, SOC TD-DFT                               
  Georgi L. Stoychev     : AutoAux, RI-MP2 NMR, DLPNO-MP2 response, X2C  
  Van Anh Tran           : RI-MP2 g-tensors                              
  Willem Van den Heuvel  : Paramagnetic NMR                              
  Zikuan Wang            : NOTCH, Electric field optimization            
  Frank Wennmohs         : Technical directorship and infrastructure     
  Hang Xu                : AUTO-CI-Response properties                   
                                                                         
[FACCTs GmbH]                                                            
  Markus Bursch, Nicolas Foglia, Miquel Garcia-Rates, Ingolf Harden, Hagen Neugebauer, Anastasios Papadopoulos, 
  Christoph Riplinger, Bernardo de Souza, Georgi L. Stoychev                                                    
                                                                 
  APM, various basis sets, CI-OPT, improved COSX, DLPNO-Multilevel,           
  DOCKER, DRACO, updates on ESD, Fragmentator, GOAT, IRC, LR-CPCM, L-BFGS, MBIS, meta-GGA TD-DFT gradient, ML-optimized integration grids, 
  MM, NACMEs, nearIR, NEB, NEB-TS, NL-DFT gradient (VV10), 2- and 3-layer-ONIOM, interface openCOSMO-RS, QMMM,   
  Crystal-QMMM, RESP, rigid body optimization, SF, symmetry and pop. for TD-DFT, various functionals, SOLVATOR                                   
                                                                         
[Other institutions]                                                     
  V. Asgeirsson          : NEB                                           
  Christoph Bannwarth    : sTDA-DFT, sTD-DFT, PBEh-3c, B97-3c, D3        
  Giovanni Bistoni       : ETS/NOCV, ADLD/ADEX, COVALED                  
  Martin Brehm           : Molecular dynamics                            
  Ronald Cardenas        : ETS/NOCV                                      
  Martina Colucci        : COVALED                                       
  Sebastian Ehlert       : rSCAN, r2SCAN, r2SCAN-3c, D4, dhf basis sets  
  Marvin Friede          : D4 for Fr, Ra, Ac-Lr                          
  Lars Goerigk           : TD-DFT with DH, B97 family of functionals     
  Stefan Grimme          : VdW corrections, initial TS optimization, DFT functionals, gCP, sTDA/sTD-DF 
  Waldemar Hujo          : DFT-NL                                        
  H. Jonsson             : NEB                                           
  Holger Kruse           : gCP                                           
  Marcel Mueller         : wB97X-3c, vDZP basis set                      
  Hagen Neugebauer       : wr2SCAN, Native XTB                           
  Gianluca Regni         : ADLD/ADEX                                     
  Tobias Risthaus        : pre 6.0 range-separated hybrid DFT and stability analysis
  Lukas Wittmann         : regularized MP2, r2SCAN double-hybrids, wr2SCAN        
                                                                         
We gratefully acknowledge several colleagues who have allowed us to      
interface, adapt or use parts of their codes:                            
  Ed Valeev, F. Pavosevic, A. Kumar             : LibInt (2-el integral package), F12 methods 
  Garnet Chan, S. Sharma, J. Yang, R. Olivares  : DMRG                   
  Ulf Ekstrom                                   : XCFun DFT Library      
  Mihaly Kallay                                 : mrcc  (arbitrary order and MRCC methods)
  Frank Weinhold                                : gennbo (NPA and NBO analysis)           
  Simon Mueller                                 : openCOSMO-RS                            
  Christopher J. Cramer and Donald G. Truhlar   : smd solvation model                     
  S Lehtola, MJT Oliveira, MAL Marques          : LibXC Library                           
  Liviu Ungur et al                             : ANISO software                          


 Your calculation uses the libint2 library for the computation of 2-el integrals
 For citations please refer to: http://libint.valeyev.net

 Your ORCA version has been built with support for libXC version: 7.0.0
 For citations please refer to: https://libxc.gitlab.io

 This ORCA versions uses:
   CBLAS   interface :  Fast vector & matrix operations
   LAPACKE interface :  Fast linear algebra routines
   SCALAPACK package :  Parallel linear algebra routines
   Shared memory     :  Shared parallel matrices
   BLAS/LAPACK       :  OpenBLAS 0.3.29  USE64BITINT DYNAMIC_ARCH NO_AFFINITY Haswell SINGLE_THREADED
        Core in use  :  Haswell
   Copyright (c) 2011-2014, The OpenBLAS Project


  ***********************************
  * Starting time: Sun Jul  5 22:30:15 2026
  * Host name:     steezy
  * Process ID:    1305351
  * Working dir.:  /home/jannes/chlorophyll-ladder/007-mg-core-ladder/mgbacteriochlorin/03_tddft_ch2cl2/tpss
  ***********************************

NOTE: MaxCore=3000 MB was set to SCF,MP2,MDCI,CIPSI,MRCI,RASCI and CIS
      => If you want to overwrite this, your respective input block should be placed after the MaxCore statement


***************************************
The coordinates will be read from file: /home/jannes/chlorophyll-ladder/007-mg-core-ladder/mgbacteriochlorin/01_opt/mgbacteriochlorin_opt_b3lypd4_tzvp.xyz
***************************************


================================================================================

----- Orbital basis set information -----
Your calculation utilizes the basis: def2-TZVP
   F. Weigend and R. Ahlrichs, Phys. Chem. Chem. Phys. 7, 3297 (2005).

----- AuxJ basis set information -----
Your calculation utilizes the auxiliary basis: def2/J
   H-Rn: F. Weigend, Phys. Chem. Chem. Phys. 8, 1057 (2006).
   Fr-Lr: K. Eichkorn, F. Weigend, O. Treutler, R. Ahlrichs; Theor. Chem. Acc. 97, 119 (1997).

================================================================================
                                        WARNINGS
                       Please study these warnings very carefully!
================================================================================



WARNING: Found flag for RIJCOSX approximation but no HF exchange needed!
  ===> : RIJCOSX  will be disabled and Split-RI-J is turned on

WARNING: CIS/ROCIS methods need fully converged wavefunctions
  ===> : Setting SCFConvForced true
         You can overwrite this default with %scf ConvForced false 


================================================================================
                                       INPUT FILE
================================================================================
NAME = tddft.inp
|  1> %pal nprocs 4 end
|  2> %maxcore 3000
|  3> ! TPSS def2-TZVP def2/J RIJCOSX DefGrid3 TightSCF CPCM(CH2Cl2)
|  4> %tddft
|  5>   nroots 30
|  6>   tda false
|  7>   triplets false
|  8> end
|  9> * xyzfile 0 1 /home/jannes/chlorophyll-ladder/007-mg-core-ladder/mgbacteriochlorin/01_opt/mgbacteriochlorin_opt_b3lypd4_tzvp.xyz
| 10> 
| 11>                          ****END OF INPUT****
================================================================================

                       ****************************
                       * Single Point Calculation *
                       ****************************

---------------------------------
CARTESIAN COORDINATES (ANGSTROEM)
---------------------------------
  N     -2.124578   -0.012303    0.019619
  N      2.120702   -0.008182    0.053311
  N      0.000054   -2.042965    0.036072
  N     -0.003922    2.022643    0.036768
  C     -4.365647   -0.772052   -0.118068
  C      4.363206   -0.763605    0.191137
  C     -4.368868    0.743331    0.123418
  C      4.363545    0.751732   -0.050582
  C     -2.893435   -1.127457   -0.033347
  C      2.891729   -1.121890    0.105994
  C     -2.896171    1.101445    0.061023
  C      2.890180    1.107061    0.012189
  C     -1.099225   -2.861182    0.000405
  C      1.100883   -2.859069    0.071901
  C     -1.105169    2.838701    0.055116
  C      1.095772    2.840793    0.018125
  C     -2.428367   -2.424151   -0.040149
  C      2.429194   -2.419482    0.112495
  C     -2.433870    2.399066    0.075036
  C      2.425350    2.403775   -0.001591
  C     -0.680956   -4.229545    0.012980
  C      0.685237   -4.228237    0.059463
  C     -0.689363    4.207941    0.048969
  C      0.677354    4.209237    0.023929
  H     -4.752237   -1.026638   -1.108895
  H     -4.959962   -1.326894    0.608414
  H      4.749790   -1.017167    1.182234
  H      4.958957   -1.317434   -0.534930
  H     -4.953125    1.297020   -0.612043
  H     -4.770793    0.997360    1.108263
  H      4.946888    1.306572    0.684739
  H      4.764732    1.006428   -1.035547
  H     -3.179766   -3.203559   -0.079566
  H      3.182074   -3.197459    0.151893
  H     -3.187309    3.176996    0.103002
  H      3.177260    3.183189   -0.029363
  H     -1.343528   -5.080762   -0.009530
  H      1.349426   -5.078189    0.082157
  H     -1.354064    5.057708    0.060979
  H      1.340439    5.060262    0.011412
  Mg    -0.001641   -0.010087    0.036418

----------------------------
CARTESIAN COORDINATES (A.U.)
----------------------------
  NO LB      ZA    FRAG     MASS         X           Y           Z
   0 N     7.0000    0    14.007   -4.014871   -0.023249    0.037074
   1 N     7.0000    0    14.007    4.007547   -0.015462    0.100743
   2 N     7.0000    0    14.007    0.000102   -3.860643    0.068165
   3 N     7.0000    0    14.007   -0.007411    3.822241    0.069481
   4 C     6.0000    0    12.011   -8.249878   -1.458967   -0.223116
   5 C     6.0000    0    12.011    8.245265   -1.443005    0.361196
   6 C     6.0000    0    12.011   -8.255964    1.404693    0.233226
   7 C     6.0000    0    12.011    8.245904    1.420568   -0.095586
   8 C     6.0000    0    12.011   -5.467801   -2.130585   -0.063016
   9 C     6.0000    0    12.011    5.464575   -2.120065    0.200300
  10 C     6.0000    0    12.011   -5.472971    2.081430    0.115316
  11 C     6.0000    0    12.011    5.461648    2.092042    0.023034
  12 C     6.0000    0    12.011   -2.077234   -5.406851    0.000765
  13 C     6.0000    0    12.011    2.080367   -5.402857    0.135874
  14 C     6.0000    0    12.011   -2.088466    5.364367    0.104155
  15 C     6.0000    0    12.011    2.070710    5.368321    0.034251
  16 C     6.0000    0    12.011   -4.588949   -4.580981   -0.075870
  17 C     6.0000    0    12.011    4.590511   -4.572158    0.212586
  18 C     6.0000    0    12.011   -4.599348    4.533577    0.141797
  19 C     6.0000    0    12.011    4.583247    4.542477   -0.003006
  20 C     6.0000    0    12.011   -1.286820   -7.992681    0.024528
  21 C     6.0000    0    12.011    1.294910   -7.990210    0.112369
  22 C     6.0000    0    12.011   -1.302708    7.951855    0.092538
  23 C     6.0000    0    12.011    1.280014    7.954306    0.045220
  24 H     1.0000    0     1.008   -8.980427   -1.940064   -2.095508
  25 H     1.0000    0     1.008   -9.372970   -2.507465    1.149735
  26 H     1.0000    0     1.008    8.975803   -1.922168    2.234098
  27 H     1.0000    0     1.008    9.371070   -2.489590   -1.010871
  28 H     1.0000    0     1.008   -9.360049    2.451013   -1.156593
  29 H     1.0000    0     1.008   -9.015493    1.884737    2.094314
  30 H     1.0000    0     1.008    9.348264    2.469063    1.293968
  31 H     1.0000    0     1.008    9.004039    1.901874   -1.956899
  32 H     1.0000    0     1.008   -6.008887   -6.053850   -0.150357
  33 H     1.0000    0     1.008    6.013249   -6.042321    0.287037
  34 H     1.0000    0     1.008   -6.023141    6.003652    0.194646
  35 H     1.0000    0     1.008    6.004152    6.015356   -0.055489
  36 H     1.0000    0     1.008   -2.538900   -9.601249   -0.018009
  37 H     1.0000    0     1.008    2.550046   -9.596387    0.155255
  38 H     1.0000    0     1.008   -2.558811    9.557682    0.115234
  39 H     1.0000    0     1.008    2.533064    9.562509    0.021566
  40 Mg   12.0000    0    24.305   -0.003102   -0.019062    0.068819

--------------------------------
INTERNAL COORDINATES (ANGSTROEM)
--------------------------------
 N      0   0   0     0.000000000000     0.00000000     0.00000000
 N      1   0   0     4.245416085717     0.00000000     0.00000000
 N      2   1   0     2.939011375942    43.75967239     0.00000000
 N      1   2   3     2.939129070827    43.76187171   180.00255177
 C      1   2   3     2.370352009699   161.12036003   351.01820559
 C      2   1   3     2.370334321602   161.11898876   350.98604815
 C      5   1   2     1.534507198399    71.11414070   179.93485080
 C      6   2   1     1.534495241103    71.11492103   179.93600990
 C      1   2   3     1.355550048196   124.63056083   357.60358136
 C      2   1   3     1.355582128298   124.62977820   357.59599889
 C      1   2   3     1.355546123926   124.62160127   177.56972785
 C      2   1   3     1.355563808831   124.62364954   177.56200688
 C      3   2   1     1.370826670960   172.75333140     8.90847460
 C      3   2   1     1.370815363532    80.36235659   181.15564598
 C      4   1   2     1.370777821536    80.36358993   181.14305473
 C      4   1   2     1.370782906164   172.74430185     9.13892315
 C      9   1   2     1.377588111167   125.66613610     2.25390691
 C     10   2   1     1.377579558700   125.66739448     2.25241290
 C     11   1   2     1.377584022390   125.67739340     2.30114869
 C     12   2   1     1.377579356145   125.67503938     2.29624379
 C     13   3  14     1.430916519652   109.64262364   359.95276415
 C     21  13   3     1.366983719650   106.94919461     0.12079397
 C     15   4   1     1.430996176158   109.64179711   181.00446043
 C     23  15   4     1.366947587917   106.94825517     0.12005675
 H      5   1   2     1.093619998274   117.48119229   285.29610054
 H      5   1   2     1.090336727187   129.77292185    74.83365878
 H      6   2   1     1.093624260422   117.45243435   285.29735237
 H      6   2   1     1.090329122694   129.79853465    74.83293182
 H      7   5   1     1.090334418898   113.35711182   126.06534071
 H      7   5   1     1.093615512790   111.83148131   247.14860792
 H      8   6   2     1.090336113225   113.35342562   126.07482105
 H      8   6   2     1.093607292633   111.83547187   247.16406460
 H     17   9   1     1.083342905325   116.30988331   179.63283291
 H     18  10   2     1.083341733356   116.31217148   179.64366974
 H     19  11   1     1.083340715870   116.31275699   179.62575756
 H     20  12   2     1.083340310464   116.31350810   179.62687671
 H     21  13   3     1.078925603982   125.08340360   180.05189031
 H     22  21  13     1.078925857550   127.96702129   179.92425103
 H     23  15   4     1.078923414896   125.06844783   180.04988392
 H     24  23  15     1.078926070118   127.98362874   179.91361688
 Mg     4   1   2     2.032731255388    46.24671301     0.00000000

---------------------------
INTERNAL COORDINATES (A.U.)
---------------------------
 N      0   0   0     0.000000000000     0.00000000     0.00000000
 N      1   0   0     8.022673726548     0.00000000     0.00000000
 N      2   1   0     5.553926605009    43.75967239     0.00000000
 N      1   2   3     5.554149016110    43.76187171   180.00255177
 C      1   2   3     4.479316139321   161.12036003   351.01820559
 C      2   1   3     4.479282713662   161.11898876   350.98604815
 C      5   1   2     2.899798355505    71.11414070   179.93485080
 C      6   2   1     2.899775759491    71.11492103   179.93600990
 C      1   2   3     2.561618351915   124.63056083   357.60358136
 C      2   1   3     2.561678974521   124.62977820   357.59599889
 C      1   2   3     2.561610936119   124.62160127   177.56972785
 C      2   1   3     2.561644355746   124.62364954   177.56200688
 C      3   2   1     2.590486985190   172.75333140     8.90847460
 C      3   2   1     2.590465617247    80.36235659   181.15564598
 C      4   1   2     2.590394673157    80.36358993   181.14305473
 C      4   1   2     2.590404281711   172.74430185     9.13892315
 C      9   1   2     2.603264255451   125.66613610     2.25390691
 C     10   2   1     2.603248093630   125.66739448     2.25241290
 C     11   1   2     2.603256528784   125.67739340     2.30114869
 C     12   2   1     2.603247710858   125.67503938     2.29624379
 C     13   3  14     2.704040342647   109.64262364   359.95276415
 C     21  13   3     2.583224859667   106.94919461     0.12079397
 C     15   4   1     2.704190871627   109.64179711   181.00446043
 C     23  15   4     2.583156580588   106.94825517     0.12005675
 H      5   1   2     2.066642291317   117.48119229   285.29610054
 H      5   1   2     2.060437808139   129.77292185    74.83365878
 H      6   2   1     2.066650345610   117.45243435   285.29735237
 H      6   2   1     2.060423437730   129.79853465    74.83293182
 H      7   5   1     2.060433446106   113.35711182   126.06534071
 H      7   5   1     2.066633814981   111.83148131   247.14860792
 H      8   6   2     2.060436647919   113.35342562   126.07482105
 H      8   6   2     2.066618281135   111.83547187   247.16406460
 H     17   9   1     2.047221400191   116.30988331   179.63283291
 H     18  10   2     2.047219185490   116.31217148   179.64366974
 H     19  11   1     2.047217262721   116.31275699   179.62575756
 H     20  12   2     2.047216496614   116.31350810   179.62687671
 H     21  13   3     2.038873910402   125.08340360   180.05189031
 H     22  21  13     2.038874389575   127.96702129   179.92425103
 H     23  15   4     2.038869773628   125.06844783   180.04988392
 H     24  23  15     2.038874791271   127.98362874   179.91361688
 Mg     4   1   2     3.841305376545    46.24671301     0.00000000

---------------------
BASIS SET INFORMATION
---------------------
There are 4 groups of distinct atoms

 Group   1 Type N   : 11s6p2d1f contracted to 5s3p2d1f pattern {62111/411/11/1}
 Group   2 Type C   : 11s6p2d1f contracted to 5s3p2d1f pattern {62111/411/11/1}
 Group   3 Type H   : 5s1p contracted to 3s1p pattern {311/1}
 Group   4 Type Mg  : 14s8p3d contracted to 5s4p3d pattern {73211/5111/111}

Atom   0N    basis set group =>   1
Atom   1N    basis set group =>   1
Atom   2N    basis set group =>   1
Atom   3N    basis set group =>   1
Atom   4C    basis set group =>   2
Atom   5C    basis set group =>   2
Atom   6C    basis set group =>   2
Atom   7C    basis set group =>   2
Atom   8C    basis set group =>   2
Atom   9C    basis set group =>   2
Atom  10C    basis set group =>   2
Atom  11C    basis set group =>   2
Atom  12C    basis set group =>   2
Atom  13C    basis set group =>   2
Atom  14C    basis set group =>   2
Atom  15C    basis set group =>   2
Atom  16C    basis set group =>   2
Atom  17C    basis set group =>   2
Atom  18C    basis set group =>   2
Atom  19C    basis set group =>   2
Atom  20C    basis set group =>   2
Atom  21C    basis set group =>   2
Atom  22C    basis set group =>   2
Atom  23C    basis set group =>   2
Atom  24H    basis set group =>   3
Atom  25H    basis set group =>   3
Atom  26H    basis set group =>   3
Atom  27H    basis set group =>   3
Atom  28H    basis set group =>   3
Atom  29H    basis set group =>   3
Atom  30H    basis set group =>   3
Atom  31H    basis set group =>   3
Atom  32H    basis set group =>   3
Atom  33H    basis set group =>   3
Atom  34H    basis set group =>   3
Atom  35H    basis set group =>   3
Atom  36H    basis set group =>   3
Atom  37H    basis set group =>   3
Atom  38H    basis set group =>   3
Atom  39H    basis set group =>   3
Atom  40Mg   basis set group =>   4
---------------------------------
AUXILIARY/J BASIS SET INFORMATION
---------------------------------
There are 4 groups of distinct atoms

 Group   1 Type N   : 12s5p4d2f1g contracted to 6s4p3d1f1g pattern {711111/2111/211/2/1}
 Group   2 Type C   : 12s5p4d2f1g contracted to 6s4p3d1f1g pattern {711111/2111/211/2/1}
 Group   3 Type H   : 5s2p1d contracted to 3s1p1d pattern {311/2/1}
 Group   4 Type Mg  : 14s5p5d2f1g contracted to 8s4p4d1f1g pattern {71111111/2111/2111/2/1}

Atom   0N    basis set group =>   1
Atom   1N    basis set group =>   1
Atom   2N    basis set group =>   1
Atom   3N    basis set group =>   1
Atom   4C    basis set group =>   2
Atom   5C    basis set group =>   2
Atom   6C    basis set group =>   2
Atom   7C    basis set group =>   2
Atom   8C    basis set group =>   2
Atom   9C    basis set group =>   2
Atom  10C    basis set group =>   2
Atom  11C    basis set group =>   2
Atom  12C    basis set group =>   2
Atom  13C    basis set group =>   2
Atom  14C    basis set group =>   2
Atom  15C    basis set group =>   2
Atom  16C    basis set group =>   2
Atom  17C    basis set group =>   2
Atom  18C    basis set group =>   2
Atom  19C    basis set group =>   2
Atom  20C    basis set group =>   2
Atom  21C    basis set group =>   2
Atom  22C    basis set group =>   2
Atom  23C    basis set group =>   2
Atom  24H    basis set group =>   3
Atom  25H    basis set group =>   3
Atom  26H    basis set group =>   3
Atom  27H    basis set group =>   3
Atom  28H    basis set group =>   3
Atom  29H    basis set group =>   3
Atom  30H    basis set group =>   3
Atom  31H    basis set group =>   3
Atom  32H    basis set group =>   3
Atom  33H    basis set group =>   3
Atom  34H    basis set group =>   3
Atom  35H    basis set group =>   3
Atom  36H    basis set group =>   3
Atom  37H    basis set group =>   3
Atom  38H    basis set group =>   3
Atom  39H    basis set group =>   3
Atom  40Mg   basis set group =>   4


           ************************************************************
           *        Program running with 4 parallel MPI-processes     *
           *              working on a common directory               *
           ************************************************************
------------------------------------------------------------------------------
                             ORCA STARTUP CALCULATIONS
                           -- RI-GTO INTEGRALS CHOSEN --
------------------------------------------------------------------------------
------------------------------------------------------------------------------
                   ___                                                        
                  /   \      - P O W E R E D   B Y -                         
                 /     \                                                     
                 |  |  |   _    _      __       _____    __    __             
                 |  |  |  | |  | |    /  \     |  _  \  |  |  /  |          
                  \  \/   | |  | |   /    \    | | | |  |  | /  /          
                 / \  \   | |__| |  /  /\  \   | |_| |  |  |/  /          
                |  |  |   |  __  | /  /__\  \  |    /   |      \           
                |  |  |   | |  | | |   __   |  |    \   |  |\   \          
                \     /   | |  | | |  |  |  |  | |\  \  |  | \   \       
                 \___/    |_|  |_| |__|  |__|  |_| \__\ |__|  \__/        
                                                                              
                      - O R C A' S   B I G   F R I E N D -                    
                                      &                                       
                       - I N T E G R A L  F E E D E R -                       
                                                                              
 v1 FN, 2020, v2 2021, v3 2022-2024                                           
------------------------------------------------------------------------------


----------------------
SHARK INTEGRAL PACKAGE
----------------------

Number of atoms                             ...     41
Number of basis functions                   ...    872
Number of shells                            ...    340
Maximum angular momentum                    ...      3
Integral batch strategy                     ... SHARK/LIBINT Hybrid
RI-J (if used) integral strategy            ... SPLIT-RIJ (Revised 2003 algorithm where possible)
Printlevel                                  ...      1
Contraction scheme used                     ... SEGMENTED contraction
Prescreening option                         ... SCHWARTZ
   Thresh                                   ... 2.500e-11
   Tcut                                     ... 2.500e-12
   Tpresel                                  ... 2.500e-12 
Coulomb Range Separation                    ... NOT USED
Exchange Range Separation                   ... NOT USED
Multipole approximations                    ... NOT USED
Finite Nucleus Model                        ... NOT USED
CABS basis                                  ... NOT available
Auxiliary Coulomb fitting basis             ... AVAILABLE
   # of basis functions in Aux-J            ...   1408
   # of shells in Aux-J                     ...    458
   Maximum angular momentum in Aux-J        ...      4
Auxiliary J/K fitting basis                 ... NOT available
Auxiliary Correlation fitting basis         ... NOT available
Auxiliary 'external' fitting basis          ... NOT available

Checking pre-screening integrals            ... done (  0.0 sec) Dimension = 340
   => SHARK Basis and OBASIS are compatible. Storing Pre-screening
Shell pair information
Shell pair cut-off parameter TPreSel        ...   2.5e-12
Total number of shell pairs                 ...     57970
Shell pairs after pre-screening             ...     40545
Total number of primitive shell pairs       ...    181512
Primitive shell pairs kept                  ...     83416
          la=0 lb=0:   9964 shell pairs
          la=1 lb=0:  11660 shell pairs
          la=1 lb=1:   3400 shell pairs
          la=2 lb=0:   5941 shell pairs
          la=2 lb=1:   3556 shell pairs
          la=2 lb=2:    970 shell pairs
          la=3 lb=0:   2548 shell pairs
          la=3 lb=1:   1556 shell pairs
          la=3 lb=2:    780 shell pairs
          la=3 lb=3:    170 shell pairs

Checking whether 4 symmetric matrices of dimension 872 fit in memory
:Max Core in MB      =   3000.00
 MB in use           =     52.70
 MB left             =   2947.30
 MB needed           =     11.62
 Data fit in memory  = YES
Calculating RI/J V-Matrix + Cholesky decomp.... done (  0.9 sec)
Calculating Nuclear repulsion               ... done (  0.0 sec) ENN=   2190.086224452672 Eh

Diagonalization of the overlap matrix:
Smallest eigenvalue                        ... 1.019e-05
Time for diagonalization                   ...    0.544 sec
Threshold for overlap eigenvalues          ... 1.000e-07
Number of eigenvalues below threshold      ... 0
Time for construction of square roots      ...    0.393 sec
Total time needed                          ...    0.969 sec

-------------------
DFT GRID GENERATION
-------------------

General Integration Accuracy     IntAcc      ... 4.959
Radial Grid Type                 RadialGrid  ... OptM3 with GC (2021)
Angular Grid (max. ang.)         AngularGrid ... 6 (Lebedev-590)
Angular grid pruning method      GridPruning ... 4 (adaptive)
Weight generation scheme         WeightScheme... mBecke (2022)
Basis function cutoff            BFCut       ... 1.0000e-11
Integration weight cutoff        WCut        ... 1.0000e-14
Partially contracted basis set               ... off
Rotationally invariant grid construction     ... off
Angular grids for H and He will be reduced by one unit

Total number of grid points                  ...   489901
Total number of batches                      ...     7676
Average number of points per batch           ...       63
Average number of grid points per atom       ...    11949
Grids setup in  15.3 sec
Initializing property integral containers    ... done (  0.0 sec)

SHARK setup successfully completed in  19.1 seconds

Maximum memory used throughout the entire STARTUP-calculation: 159.8 MB


           ************************************************************
           *        Program running with 4 parallel MPI-processes     *
           *              working on a common directory               *
           ************************************************************
-------------------------------------------------------------------------------
                                 ORCA GUESS
                   Start orbitals & Density for SCF / CASSCF
-------------------------------------------------------------------------------

------------
SCF SETTINGS
------------
Hamiltonian:
 Density Functional     Method          .... DFT(GTOs)
 Exchange Functional    Exchange        .... TPSS
 Correlation Functional Correlation     .... TPSS
 LDA part of GGA corr.  LDAOpt          .... PW91-LDA
 Gradients option       PostSCFGGA      .... off
   NL short-range parameter             ....  5.000000
 RI-approximation to the Coulomb term is turned on
   Number of AuxJ basis functions       .... 1408


General Settings:
 Integral files         IntName         .... tddft
 Hartree-Fock type      HFTyp           .... RHF
 Total Charge           Charge          ....    0
 Multiplicity           Mult            ....    1
 Number of Electrons    NEL             ....  176
 Basis Dimension        Dim             ....  872
 Nuclear Repulsion      ENuc            ....   2190.0862244527 Eh

Convergence Acceleration:
 AO-DIIS                CNVDIIS         .... on
   Start iteration      DIISMaxIt       ....    12
   Startup error        DIISStart       ....  0.200000
   # of expansion vecs  DIISMaxEq       ....     5
   Bias factor          DIISBfac        ....   1.050
   Max. coefficient     DIISMaxC        ....  10.000
 MO-DIIS                CNVKDIIS        .... off
 Trust-Rad. Augm. Hess. CNVTRAH         .... auto
   Auto Start mean grad. ratio tolernc. ....  1.125000
   Auto Start start iteration           ....    50
   Auto Start num. interpolation iter.  ....    10
   Max. Number of Micro iterations      ....    24
   Max. Number of Macro iterations      .... Maxiter - #DIIS iter
   Number of Davidson start vectors     ....     2
   Converg. threshold    (grad. norm)   ....   1.000e-05
   Grad. Scal. Fac. for Micro threshold ....   0.100
   Minimum threshold for Micro iter.    ....   1.000e-02
   NR start threshold (gradient norm)   ....   1.000e-04
   Initial trust radius                 ....   0.400
   Minimum AH scaling param. (alpha)    ....   1.000
   Maximum AH scaling param. (alpha)    .... 1000.000
   Quad. conv. algorithm                .... NR
   White noise on init. David. guess    .... on
   Maximum white noise                  ....   0.010
   Pseudo random numbers                .... off
   Inactive MOs                         .... canonical
   Orbital update algorithm             .... Taylor
   Preconditioner                       .... Diag
   Full preconditioner red. dimension   ....   250
 SOSCF                 CNVSOSCF           .... on
   Start iteration     SOSCFMaxIt         ....   150
   Startup grad/error  SOSCFStart         ....  0.003300
   Hessian update      SOSCFHessUp        .... L-BFGS
   Autom. constraints  SOSCFAutoConstrain .... off
 Level Shifting         CNVShift        .... on
   Level shift para.    LevelShift      ....    0.2500
   Turn off err/grad.   ShiftErr        ....    0.0010
 Zerner damping         CNVZerner       .... off
 Static damping         CNVDamp         .... on
   Fraction old density DampFac         ....    0.7000
   Max. Damping (<1)    DampMax         ....    0.9800
   Min. Damping (>=0)   DampMin         ....    0.0000
   Turn off err/grad.   DampErr         ....    0.1000

SCF Procedure:
 Maximum # iterations   MaxIter         ....   125
 SCF integral mode      SCFMode         .... Direct
   Integral package                     .... SHARK and LIBINT hybrid scheme
 Reset frequency        DirectResetFreq ....    20
 Integral Threshold     Thresh          ....  2.500e-11 Eh
 Primitive CutOff       TCut            ....  2.500e-12 Eh

Convergence Tolerance:
 Convergence Check Mode ConvCheckMode   .... Total+1el-Energy
 Convergence forced     ConvForced      .... 1
 Energy Change          TolE            ....  1.000e-08 Eh
 1-El. energy change                    ....  1.000e-05 Eh
 Orbital Gradient       TolG            ....  1.000e-05
 Orbital Rotation angle TolX            ....  1.000e-05
 DIIS Error             TolErr          ....  5.000e-07

------------------------------
INITIAL GUESS: MODEL POTENTIAL
------------------------------
Loading Hartree-Fock densities                     ... done
Calculating cut-offs                               ... done
Initializing the effective Hamiltonian             ... done
Setting up the integral package (SHARK)            ... done
Starting the Coulomb interaction                   ... done (   3.1 sec)
Making the grid                                    ... done (   1.6 sec)
Mapping shells                                     ... done
Starting the XC term evaluation                    ... done (   3.2 sec)
  promolecular density results
     # of electrons  =    176.013752315
     EX              =   -149.316411799
     EC              =     -5.985031575
     EX+EC           =   -155.301443373
Transforming the Hamiltonian                       ... done (   0.2 sec)
Diagonalizing the Hamiltonian                      ... done (   0.3 sec)
Back transforming the eigenvectors                 ... done (   0.1 sec)
Now organizing SCF variables                       ... done
                      ------------------
                      INITIAL GUESS DONE (   8.5 sec)
                      ------------------
             **** ENERGY FILE WAS UPDATED (tddft.en.tmp) ****
Finished Guess after   9.2 sec
Maximum memory used throughout the entire GUESS-calculation: 88.7 MB


           ************************************************************
           *        Program running with 4 parallel MPI-processes     *
           *              working on a common directory               *
           ************************************************************

-------------------------------------------------------------------------------------------
                                      ORCA LEAN-SCF
                              memory conserving SCF solver
-------------------------------------------------------------------------------------------

--------------------
CPCM SOLVATION MODEL
--------------------
CPCM parameters:
  Epsilon                                         ...       8.9990
  Refrac                                          ...       1.4242
  Rsolv                                           ...       1.3000
  Surface type                                    ... GAUSSIAN VDW
  Discretization scheme                           ... Constant charge density
    Threshold for H atoms                         ...       5.0000 (charges/Ang^2)
    Threshold for non-H atoms                     ...       5.0000 (charges/Ang^2)
  Epsilon function type                           ...         CPCM
Solvent:                                          ... DICHLOROMETHANE
Radii:
  Scheme                                          ... Element-dependent radii
  Radius for N  used is    3.5149 Bohr (=   1.8600 Ang.)
  Radius for C  used is    3.8550 Bohr (=   2.0400 Ang.)
  Radius for H  used is    2.4944 Bohr (=   1.3200 Ang.)
  Radius for Mg used is    3.9231 Bohr (=   2.0760 Ang.)
Calculating surface                               ...        done! (  0.0s)
Cavity surface points                             ...         3647
Cavity Volume                                     ...    2544.6779
Cavity Surface-area                               ...    1209.7494
Calculating surface distance matrix               ...        done! (  0.4s)
Performing Cholesky decomposition & store         ...        done! (  0.9s)
Overall time for CPCM initialization              ...                 1.4s

----------------------------------------D-I-I-S--------------------------------------------
Iteration    Energy (Eh)           Delta-E    RMSDP     MaxDP     DIISErr   Damp  Time(sec)
-------------------------------------------------------------------------------------------
               ***  Starting incremental Fock matrix formation  ***
    1    -1191.0513307024293681     0.00e+00  1.87e-03  4.42e-02  2.21e-01  0.700  57.2
Warning: op=0 Small HOMO/LUMO gap (   0.056) - skipping pre-diagonalization
         Will do a full diagonalization
    2    -1191.2942769096061966    -2.43e-01  1.69e-03  2.89e-02  9.29e-02  0.700  51.3
                               ***Turning on AO-DIIS***
    3    -1191.3900283420989581    -9.58e-02  9.16e-04  1.58e-02  2.93e-02  0.700  46.5
    4    -1191.4451330947586030    -5.51e-02  1.72e-03  4.07e-02  1.41e-02  0.000  47.6
    5    -1191.5658508498636365    -1.21e-01  4.29e-04  1.56e-02  5.16e-03  0.000  57.4
                              *** Initializing SOSCF ***
---------------------------------------S-O-S-C-F--------------------------------------
Iteration    Energy (Eh)           Delta-E    RMSDP     MaxDP     MaxGrad    Time(sec)
--------------------------------------------------------------------------------------
    6    -1191.5668246044015177    -9.74e-04  2.19e-04  7.40e-03  1.53e-03    52.8
               *** Restarting incremental Fock matrix formation ***
    7    -1191.5668979542574561    -7.33e-05  1.40e-04  5.16e-03  6.62e-04    63.6
    8    -1191.5668995675459882    -1.61e-06  5.18e-05  1.51e-03  6.66e-04    43.6
    9    -1191.5669185876213305    -1.90e-05  3.68e-05  1.26e-03  1.40e-04    43.8
   10    -1191.5669188532160661    -2.66e-07  5.40e-06  1.34e-04  1.06e-04    39.9
   11    -1191.5669194647939548    -6.12e-07  1.07e-05  3.99e-04  3.77e-05    42.2
   12    -1191.5669194950401106    -3.02e-08  3.89e-06  1.13e-04  2.48e-05    39.1
   13    -1191.5669195150744599    -2.00e-08  7.19e-06  2.78e-04  6.83e-06    32.9
   14    -1191.5669195457335263    -3.07e-08  3.26e-06  8.36e-05  6.97e-06    30.1
   15    -1191.5669195867922099    -4.11e-08  6.71e-06  3.14e-04  2.13e-06    30.7
                  *** Gradient check signals convergence ***

               *****************************************************
               *                     SUCCESS                       *
               *           SCF CONVERGED AFTER  15 CYCLES          *
               *****************************************************

             **** ENERGY FILE WAS UPDATED (tddft.en.tmp) ****

----------------
TOTAL SCF ENERGY
----------------

Total Energy       :      -1191.56691960904163 Eh          -32424.18430 eV

Components:
Nuclear Repulsion  :       2190.08622445267247 Eh           59595.27593 eV
Electronic Energy  :      -3381.63940340614545 Eh          -92019.08633 eV
One Electron Energy:      -5979.33435293663933 Eh         -162705.95955 eV
Two Electron Energy:       2597.69494953049389 Eh           70686.87323 eV
CPCM Dielectric    :         -0.01374065556887 Eh              -0.37390 eV

Virial components:
Potential Energy   :      -2378.35847789722811 Eh          -64718.42440 eV
Kinetic Energy     :       1186.79155828818625 Eh           32294.24011 eV
Virial Ratio       :          2.00402375740500

DFT components:
N(Alpha)           :       87.999997169696 electrons
N(Beta)            :       87.999997169696 electrons
N(Total)           :      175.999994339392 electrons
E(X)               :     -153.489742799524 Eh       
E(C)               :       -5.999800245821 Eh       
E(XC)              :     -159.489543045345 Eh       

CPCM Solvation Model Properties:
Surface-charge          :         -0.03846011143463
Corrected charge        :          0.00000000000000
Outlying charge corr.   :          0.00006982718069 Eh               0.00190 eV
Free-energy (cav+disp)  :  This term is not implemented in the current solvation scheme

---------------
SCF CONVERGENCE
---------------

  Last Energy change         ...    4.1059e-08  Tolerance :   1.0000e-08
  Last MAX-Density change    ...    3.1380e-04  Tolerance :   1.0000e-07
  Last RMS-Density change    ...    6.7052e-06  Tolerance :   5.0000e-09
  Last DIIS Error            ...    1.5259e-03  Tolerance :   5.0000e-07
  Last Orbital Gradient      ...    2.1323e-06  Tolerance :   1.0000e-05
  Last Orbital Rotation      ...    1.1650e-05  Tolerance :   1.0000e-05


----------------
ORBITAL ENERGIES
----------------

  NO   OCC          E(Eh)            E(eV) 
   0   2.0000     -46.388625     -1262.2987 
   1   2.0000     -14.104691      -383.8082 
   2   2.0000     -14.104687      -383.8081 
   3   2.0000     -14.080267      -383.1435 
   4   2.0000     -14.080259      -383.1433 
   5   2.0000     -10.017139      -272.5802 
   6   2.0000     -10.017132      -272.5800 
   7   2.0000     -10.017125      -272.5798 
   8   2.0000     -10.017119      -272.5797 
   9   2.0000     -10.007262      -272.3114 
  10   2.0000     -10.007255      -272.3112 
  11   2.0000     -10.007249      -272.3111 
  12   2.0000     -10.007241      -272.3109 
  13   2.0000      -9.986583      -271.7487 
  14   2.0000      -9.986580      -271.7486 
  15   2.0000      -9.986472      -271.7457 
  16   2.0000      -9.986468      -271.7456 
  17   2.0000      -9.978452      -271.5275 
  18   2.0000      -9.978449      -271.5274 
  19   2.0000      -9.978448      -271.5274 
  20   2.0000      -9.978445      -271.5273 
  21   2.0000      -9.974410      -271.4175 
  22   2.0000      -9.974392      -271.4170 
  23   2.0000      -9.973913      -271.4040 
  24   2.0000      -9.973894      -271.4035 
  25   2.0000      -2.921122       -79.4878 
  26   2.0000      -1.686286       -45.8862 
  27   2.0000      -1.679946       -45.7137 
  28   2.0000      -1.678722       -45.6803 
  29   2.0000      -0.892279       -24.2802 
  30   2.0000      -0.887010       -24.1368 
  31   2.0000      -0.879498       -23.9324 
  32   2.0000      -0.873395       -23.7663 
  33   2.0000      -0.749842       -20.4042 
  34   2.0000      -0.727784       -19.8040 
  35   2.0000      -0.720113       -19.5953 
  36   2.0000      -0.710733       -19.3400 
  37   2.0000      -0.709411       -19.3040 
  38   2.0000      -0.697596       -18.9826 
  39   2.0000      -0.697261       -18.9734 
  40   2.0000      -0.674192       -18.3457 
  41   2.0000      -0.658198       -17.9105 
  42   2.0000      -0.603403       -16.4194 
  43   2.0000      -0.595170       -16.1954 
  44   2.0000      -0.562829       -15.3153 
  45   2.0000      -0.543393       -14.7865 
  46   2.0000      -0.517907       -14.0930 
  47   2.0000      -0.516286       -14.0488 
  48   2.0000      -0.514519       -14.0008 
  49   2.0000      -0.505547       -13.7566 
  50   2.0000      -0.480678       -13.0799 
  51   2.0000      -0.469516       -12.7762 
  52   2.0000      -0.458592       -12.4789 
  53   2.0000      -0.453819       -12.3490 
  54   2.0000      -0.447712       -12.1829 
  55   2.0000      -0.437540       -11.9061 
  56   2.0000      -0.430159       -11.7052 
  57   2.0000      -0.428113       -11.6495 
  58   2.0000      -0.393242       -10.7007 
  59   2.0000      -0.391959       -10.6658 
  60   2.0000      -0.371679       -10.1139 
  61   2.0000      -0.370446       -10.0803 
  62   2.0000      -0.370184       -10.0732 
  63   2.0000      -0.359481        -9.7820 
  64   2.0000      -0.359368        -9.7789 
  65   2.0000      -0.355516        -9.6741 
  66   2.0000      -0.344107        -9.3636 
  67   2.0000      -0.339375        -9.2349 
  68   2.0000      -0.336782        -9.1643 
  69   2.0000      -0.333908        -9.0861 
  70   2.0000      -0.333538        -9.0760 
  71   2.0000      -0.324100        -8.8192 
  72   2.0000      -0.321813        -8.7570 
  73   2.0000      -0.316851        -8.6220 
  74   2.0000      -0.315377        -8.5819 
  75   2.0000      -0.313936        -8.5426 
  76   2.0000      -0.313001        -8.5172 
  77   2.0000      -0.308225        -8.3872 
  78   2.0000      -0.271543        -7.3891 
  79   2.0000      -0.269803        -7.3417 
  80   2.0000      -0.267709        -7.2847 
  81   2.0000      -0.243539        -6.6270 
  82   2.0000      -0.243242        -6.6190 
  83   2.0000      -0.229874        -6.2552 
  84   2.0000      -0.218415        -5.9434 
  85   2.0000      -0.210884        -5.7384 
  86   2.0000      -0.176414        -4.8005 
  87   2.0000      -0.153407        -4.1744 
  88   0.0000      -0.105125        -2.8606 
  89   0.0000      -0.056543        -1.5386 
  90   0.0000      -0.007598        -0.2067 
  91   0.0000      -0.004761        -0.1295 
  92   0.0000      -0.000370        -0.0101 
  93   0.0000       0.010629         0.2892 
  94   0.0000       0.022845         0.6216 
  95   0.0000       0.031076         0.8456 
  96   0.0000       0.047806         1.3009 
  97   0.0000       0.050771         1.3816 
  98   0.0000       0.059590         1.6215 
*Only the first 10 virtual orbitals were printed.

                    ********************************
                    * MULLIKEN POPULATION ANALYSIS *
                    ********************************

-----------------------
MULLIKEN ATOMIC CHARGES
-----------------------
   0 N :   -0.344760
   1 N :   -0.344622
   2 N :   -0.395305
   3 N :   -0.395270
   4 C :   -0.120467
   5 C :   -0.120502
   6 C :   -0.120410
   7 C :   -0.120474
   8 C :    0.218787
   9 C :    0.219055
  10 C :    0.218971
  11 C :    0.218803
  12 C :    0.356607
  13 C :    0.356696
  14 C :    0.356793
  15 C :    0.356657
  16 C :   -0.487648
  17 C :   -0.487846
  18 C :   -0.487817
  19 C :   -0.487623
  20 C :   -0.241309
  21 C :   -0.241272
  22 C :   -0.241381
  23 C :   -0.241179
  24 H :    0.099844
  25 H :    0.116819
  26 H :    0.099813
  27 H :    0.116860
  28 H :    0.116816
  29 H :    0.099847
  30 H :    0.116817
  31 H :    0.099856
  32 H :    0.120757
  33 H :    0.120768
  34 H :    0.120778
  35 H :    0.120770
  36 H :    0.120748
  37 H :    0.120751
  38 H :    0.120748
  39 H :    0.120752
  40 Mg:    0.742769
Sum of atomic charges:    0.0000000

--------------------------------
MULLIKEN REDUCED ORBITAL CHARGES
--------------------------------
  0 N s       :     3.680913  s :     3.680913
      pz      :     1.263742  p :     3.599904
      px      :     1.300541
      py      :     1.035621
      dz2     :     0.003978  d :     0.060221
      dxz     :     0.005238
      dyz     :     0.016076
      dx2y2   :     0.017537
      dxy     :     0.017393
      f0      :     0.000643  f :     0.003721
      f+1     :     0.000237
      f-1     :     0.000375
      f+2     :     0.000102
      f-2     :     0.000604
      f+3     :     0.000685
      f-3     :     0.001075

  1 N s       :     3.680893  s :     3.680893
      pz      :     1.263853  p :     3.599790
      px      :     1.300363
      py      :     1.035575
      dz2     :     0.003977  d :     0.060217
      dxz     :     0.005235
      dyz     :     0.016077
      dx2y2   :     0.017540
      dxy     :     0.017389
      f0      :     0.000643  f :     0.003721
      f+1     :     0.000237
      f-1     :     0.000375
      f+2     :     0.000102
      f-2     :     0.000604
      f+3     :     0.000685
      f-3     :     0.001075

  2 N s       :     3.674106  s :     3.674106
      pz      :     1.372307  p :     3.660444
      px      :     1.033892
      py      :     1.254245
      dz2     :     0.004138  d :     0.057028
      dxz     :     0.014000
      dyz     :     0.005390
      dx2y2   :     0.016891
      dxy     :     0.016609
      f0      :     0.000656  f :     0.003727
      f+1     :     0.000411
      f-1     :     0.000306
      f+2     :     0.000076
      f-2     :     0.000647
      f+3     :     0.000970
      f-3     :     0.000661

  3 N s       :     3.674081  s :     3.674081
      pz      :     1.372604  p :     3.660431
      px      :     1.033582
      py      :     1.254245
      dz2     :     0.004117  d :     0.057031
      dxz     :     0.014018
      dyz     :     0.005382
      dx2y2   :     0.016899
      dxy     :     0.016615
      f0      :     0.000657  f :     0.003727
      f+1     :     0.000410
      f-1     :     0.000306
      f+2     :     0.000074
      f-2     :     0.000647
      f+3     :     0.000972
      f-3     :     0.000661

  4 C s       :     3.077999  s :     3.077999
      pz      :     1.035088  p :     2.946498
      px      :     0.948097
      py      :     0.963314
      dz2     :     0.007914  d :     0.089121
      dxz     :     0.018447
      dyz     :     0.019017
      dx2y2   :     0.017432
      dxy     :     0.026310
      f0      :     0.000844  f :     0.006849
      f+1     :     0.000823
      f-1     :     0.000712
      f+2     :     0.000907
      f-2     :     0.000727
      f+3     :     0.001638
      f-3     :     0.001198

  5 C s       :     3.078105  s :     3.078105
      pz      :     1.035060  p :     2.946424
      px      :     0.948277
      py      :     0.963087
      dz2     :     0.007929  d :     0.089125
      dxz     :     0.018443
      dyz     :     0.019005
      dx2y2   :     0.017434
      dxy     :     0.026312
      f0      :     0.000845  f :     0.006849
      f+1     :     0.000824
      f-1     :     0.000710
      f+2     :     0.000907
      f-2     :     0.000727
      f+3     :     0.001640
      f-3     :     0.001197

  6 C s       :     3.077940  s :     3.077940
      pz      :     1.034900  p :     2.946496
      px      :     0.948485
      py      :     0.963110
      dz2     :     0.007702  d :     0.089125
      dxz     :     0.018665
      dyz     :     0.019074
      dx2y2   :     0.017433
      dxy     :     0.026251
      f0      :     0.000817  f :     0.006849
      f+1     :     0.000845
      f-1     :     0.000721
      f+2     :     0.000909
      f-2     :     0.000721
      f+3     :     0.001643
      f-3     :     0.001193

  7 C s       :     3.078043  s :     3.078043
      pz      :     1.034890  p :     2.946457
      px      :     0.948286
      py      :     0.963281
      dz2     :     0.007712  d :     0.089125
      dxz     :     0.018654
      dyz     :     0.019076
      dx2y2   :     0.017431
      dxy     :     0.026252
      f0      :     0.000817  f :     0.006849
      f+1     :     0.000843
      f-1     :     0.000722
      f+2     :     0.000910
      f-2     :     0.000720
      f+3     :     0.001642
      f-3     :     0.001194

  8 C s       :     3.126242  s :     3.126242
      pz      :     0.915929  p :     2.476605
      px      :     0.838465
      py      :     0.722211
      dz2     :     0.004168  d :     0.164058
      dxz     :     0.022062
      dyz     :     0.039965
      dx2y2   :     0.053678
      dxy     :     0.044186
      f0      :     0.001878  f :     0.014308
      f+1     :     0.000905
      f-1     :     0.000908
      f+2     :     0.001268
      f-2     :     0.001598
      f+3     :     0.002766
      f-3     :     0.004985

  9 C s       :     3.126177  s :     3.126177
      pz      :     0.915940  p :     2.476391
      px      :     0.838028
      py      :     0.722423
      dz2     :     0.004170  d :     0.164068
      dxz     :     0.022068
      dyz     :     0.039964
      dx2y2   :     0.053702
      dxy     :     0.044164
      f0      :     0.001878  f :     0.014309
      f+1     :     0.000906
      f-1     :     0.000907
      f+2     :     0.001265
      f-2     :     0.001601
      f+3     :     0.002778
      f-3     :     0.004973

 10 C s       :     3.126205  s :     3.126205
      pz      :     0.916117  p :     2.476462
      px      :     0.837856
      py      :     0.722489
      dz2     :     0.004016  d :     0.164053
      dxz     :     0.022142
      dyz     :     0.039948
      dx2y2   :     0.053771
      dxy     :     0.044176
      f0      :     0.001883  f :     0.014309
      f+1     :     0.000898
      f-1     :     0.000905
      f+2     :     0.001266
      f-2     :     0.001600
      f+3     :     0.002780
      f-3     :     0.004976

 11 C s       :     3.126213  s :     3.126213
      pz      :     0.916122  p :     2.476615
      px      :     0.838229
      py      :     0.722263
      dz2     :     0.004017  d :     0.164060
      dxz     :     0.022135
      dyz     :     0.039958
      dx2y2   :     0.053751
      dxy     :     0.044199
      f0      :     0.001883  f :     0.014309
      f+1     :     0.000898
      f-1     :     0.000906
      f+2     :     0.001268
      f-2     :     0.001598
      f+3     :     0.002768
      f-3     :     0.004988

 12 C s       :     3.081694  s :     3.081694
      pz      :     0.930645  p :     2.379252
      px      :     0.703129
      py      :     0.745478
      dz2     :     0.004661  d :     0.167744
      dxz     :     0.038054
      dyz     :     0.029810
      dx2y2   :     0.052919
      dxy     :     0.042300
      f0      :     0.002038  f :     0.014704
      f+1     :     0.001053
      f-1     :     0.000837
      f+2     :     0.000897
      f-2     :     0.002205
      f+3     :     0.004626
      f-3     :     0.003049

 13 C s       :     3.081625  s :     3.081625
      pz      :     0.930638  p :     2.379226
      px      :     0.703082
      py      :     0.745506
      dz2     :     0.004660  d :     0.167748
      dxz     :     0.038060
      dyz     :     0.029804
      dx2y2   :     0.052893
      dxy     :     0.042332
      f0      :     0.002038  f :     0.014704
      f+1     :     0.001054
      f-1     :     0.000836
      f+2     :     0.000901
      f-2     :     0.002200
      f+3     :     0.004640
      f-3     :     0.003035

 14 C s       :     3.081558  s :     3.081558
      pz      :     0.930876  p :     2.379196
      px      :     0.702774
      py      :     0.745546
      dz2     :     0.004581  d :     0.167748
      dxz     :     0.038150
      dyz     :     0.029790
      dx2y2   :     0.052888
      dxy     :     0.042339
      f0      :     0.002044  f :     0.014705
      f+1     :     0.001047
      f-1     :     0.000834
      f+2     :     0.000897
      f-2     :     0.002201
      f+3     :     0.004646
      f-3     :     0.003036

 15 C s       :     3.081687  s :     3.081687
      pz      :     0.930877  p :     2.379207
      px      :     0.702914
      py      :     0.745416
      dz2     :     0.004585  d :     0.167744
      dxz     :     0.038141
      dyz     :     0.029798
      dx2y2   :     0.052911
      dxy     :     0.042310
      f0      :     0.002044  f :     0.014705
      f+1     :     0.001046
      f-1     :     0.000835
      f+2     :     0.000893
      f-2     :     0.002205
      f+3     :     0.004632
      f-3     :     0.003050

 16 C s       :     3.438607  s :     3.438607
      pz      :     1.059729  p :     2.959965
      px      :     0.938884
      py      :     0.961352
      dz2     :     0.002167  d :     0.081272
      dxz     :     0.015296
      dyz     :     0.015517
      dx2y2   :     0.008763
      dxy     :     0.039528
      f0      :     0.001370  f :     0.007804
      f+1     :     0.000711
      f-1     :     0.000696
      f+2     :     0.000899
      f-2     :     0.000519
      f+3     :     0.001713
      f-3     :     0.001896

 17 C s       :     3.438664  s :     3.438664
      pz      :     1.059748  p :     2.960106
      px      :     0.939060
      py      :     0.961298
      dz2     :     0.002168  d :     0.081271
      dxz     :     0.015249
      dyz     :     0.015564
      dx2y2   :     0.008765
      dxy     :     0.039526
      f0      :     0.001370  f :     0.007804
      f+1     :     0.000711
      f-1     :     0.000696
      f+2     :     0.000899
      f-2     :     0.000519
      f+3     :     0.001718
      f-3     :     0.001890

 18 C s       :     3.438596  s :     3.438596
      pz      :     1.059923  p :     2.960147
      px      :     0.938881
      py      :     0.961344
      dz2     :     0.002151  d :     0.081268
      dxz     :     0.015277
      dyz     :     0.015538
      dx2y2   :     0.008750
      dxy     :     0.039553
      f0      :     0.001371  f :     0.007804
      f+1     :     0.000709
      f-1     :     0.000698
      f+2     :     0.000900
      f-2     :     0.000515
      f+3     :     0.001719
      f-3     :     0.001891

 19 C s       :     3.438477  s :     3.438477
      pz      :     1.059947  p :     2.960078
      px      :     0.938750
      py      :     0.961381
      dz2     :     0.002151  d :     0.081264
      dxz     :     0.015324
      dyz     :     0.015491
      dx2y2   :     0.008741
      dxy     :     0.039558
      f0      :     0.001371  f :     0.007804
      f+1     :     0.000709
      f-1     :     0.000699
      f+2     :     0.000899
      f-2     :     0.000515
      f+3     :     0.001714
      f-3     :     0.001897

 20 C s       :     3.310421  s :     3.310421
      pz      :     1.022692  p :     2.833676
      px      :     0.920161
      py      :     0.890824
      dz2     :     0.004983  d :     0.089081
      dxz     :     0.018832
      dyz     :     0.011121
      dx2y2   :     0.018104
      dxy     :     0.036041
      f0      :     0.001372  f :     0.008130
      f+1     :     0.000599
      f-1     :     0.000815
      f+2     :     0.001273
      f-2     :     0.000255
      f+3     :     0.001431
      f-3     :     0.002384

 21 C s       :     3.310378  s :     3.310378
      pz      :     1.022698  p :     2.833685
      px      :     0.920106
      py      :     0.890882
      dz2     :     0.004983  d :     0.089079
      dxz     :     0.018806
      dyz     :     0.011147
      dx2y2   :     0.018082
      dxy     :     0.036061
      f0      :     0.001372  f :     0.008130
      f+1     :     0.000600
      f-1     :     0.000814
      f+2     :     0.001276
      f-2     :     0.000252
      f+3     :     0.001434
      f-3     :     0.002382

 22 C s       :     3.310560  s :     3.310560
      pz      :     1.022728  p :     2.833616
      px      :     0.919990
      py      :     0.890898
      dz2     :     0.004951  d :     0.089075
      dxz     :     0.018837
      dyz     :     0.011125
      dx2y2   :     0.018081
      dxy     :     0.036081
      f0      :     0.001377  f :     0.008130
      f+1     :     0.000593
      f-1     :     0.000815
      f+2     :     0.001279
      f-2     :     0.000248
      f+3     :     0.001433
      f-3     :     0.002385

 23 C s       :     3.310396  s :     3.310396
      pz      :     1.022725  p :     2.833578
      px      :     0.920024
      py      :     0.890829
      dz2     :     0.004951  d :     0.089075
      dxz     :     0.018863
      dyz     :     0.011101
      dx2y2   :     0.018098
      dxy     :     0.036061
      f0      :     0.001377  f :     0.008130
      f+1     :     0.000592
      f-1     :     0.000816
      f+2     :     0.001276
      f-2     :     0.000251
      f+3     :     0.001431
      f-3     :     0.002387

 24 H s       :     0.879784  s :     0.879784
      pz      :     0.009785  p :     0.020373
      px      :     0.005675
      py      :     0.004912

 25 H s       :     0.863035  s :     0.863035
      pz      :     0.007028  p :     0.020146
      px      :     0.006783
      py      :     0.006335

 26 H s       :     0.879814  s :     0.879814
      pz      :     0.009789  p :     0.020373
      px      :     0.005676
      py      :     0.004909

 27 H s       :     0.862994  s :     0.862994
      pz      :     0.007025  p :     0.020145
      px      :     0.006793
      py      :     0.006328

 28 H s       :     0.863038  s :     0.863038
      pz      :     0.007101  p :     0.020146
      px      :     0.006718
      py      :     0.006327

 29 H s       :     0.879780  s :     0.879780
      pz      :     0.009709  p :     0.020373
      px      :     0.005753
      py      :     0.004910

 30 H s       :     0.863037  s :     0.863037
      pz      :     0.007100  p :     0.020146
      px      :     0.006711
      py      :     0.006335

 31 H s       :     0.879772  s :     0.879772
      pz      :     0.009711  p :     0.020373
      px      :     0.005749
      py      :     0.004913

 32 H s       :     0.858823  s :     0.858823
      pz      :     0.005433  p :     0.020420
      px      :     0.007369
      py      :     0.007619

 33 H s       :     0.858811  s :     0.858811
      pz      :     0.005433  p :     0.020420
      px      :     0.007384
      py      :     0.007604

 34 H s       :     0.858802  s :     0.858802
      pz      :     0.005430  p :     0.020421
      px      :     0.007388
      py      :     0.007603

 35 H s       :     0.858809  s :     0.858809
      pz      :     0.005430  p :     0.020421
      px      :     0.007372
      py      :     0.007619

 36 H s       :     0.859248  s :     0.859248
      pz      :     0.004979  p :     0.020004
      px      :     0.006501
      py      :     0.008524

 37 H s       :     0.859246  s :     0.859246
      pz      :     0.004979  p :     0.020004
      px      :     0.006515
      py      :     0.008510

 38 H s       :     0.859248  s :     0.859248
      pz      :     0.004977  p :     0.020004
      px      :     0.006518
      py      :     0.008508

 39 H s       :     0.859244  s :     0.859244
      pz      :     0.004977  p :     0.020004
      px      :     0.006504
      py      :     0.008522

 40 Mgs       :     4.552291  s :     4.552291
      pz      :     2.077374  p :     6.441707
      px      :     2.169078
      py      :     2.195255
      dz2     :     0.031844  d :     0.263233
      dxz     :     0.015972
      dyz     :     0.031936
      dx2y2   :     0.161883
      dxy     :     0.021598



                     *******************************
                     * LOEWDIN POPULATION ANALYSIS *
                     *******************************

----------------------
LOEWDIN ATOMIC CHARGES
----------------------
   0 N :    0.203208
   1 N :    0.203205
   2 N :    0.163428
   3 N :    0.163459
   4 C :   -0.189926
   5 C :   -0.189926
   6 C :   -0.189918
   7 C :   -0.189911
   8 C :   -0.202779
   9 C :   -0.202754
  10 C :   -0.202761
  11 C :   -0.202736
  12 C :   -0.215928
  13 C :   -0.215928
  14 C :   -0.215917
  15 C :   -0.215910
  16 C :   -0.123364
  17 C :   -0.123368
  18 C :   -0.123379
  19 C :   -0.123383
  20 C :   -0.134219
  21 C :   -0.134219
  22 C :   -0.134181
  23 C :   -0.134183
  24 H :    0.146855
  25 H :    0.143629
  26 H :    0.146868
  27 H :    0.143623
  28 H :    0.143629
  29 H :    0.146853
  30 H :    0.143632
  31 H :    0.146851
  32 H :    0.161569
  33 H :    0.161570
  34 H :    0.161577
  35 H :    0.161578
  36 H :    0.140317
  37 H :    0.140316
  38 H :    0.140318
  39 H :    0.140318
  40 Mg:    0.361887

-------------------------------
LOEWDIN REDUCED ORBITAL CHARGES
-------------------------------
  0 N s       :     2.983837  s :     2.983837
      pz      :     1.115073  p :     3.580081
      px      :     1.343943
      py      :     1.121066
      dz2     :     0.016337  d :     0.214067
      dxz     :     0.009652
      dyz     :     0.049244
      dx2y2   :     0.065006
      dxy     :     0.073827
      f0      :     0.001149  f :     0.018807
      f+1     :     0.000775
      f-1     :     0.001792
      f+2     :     0.000312
      f-2     :     0.003599
      f+3     :     0.003880
      f-3     :     0.007299

  1 N s       :     2.983806  s :     2.983806
      pz      :     1.115146  p :     3.580122
      px      :     1.343914
      py      :     1.121062
      dz2     :     0.016336  d :     0.214061
      dxz     :     0.009650
      dyz     :     0.049243
      dx2y2   :     0.065008
      dxy     :     0.073823
      f0      :     0.001149  f :     0.018806
      f+1     :     0.000775
      f-1     :     0.001792
      f+2     :     0.000312
      f-2     :     0.003599
      f+3     :     0.003880
      f-3     :     0.007298

  2 N s       :     2.982764  s :     2.982764
      pz      :     1.207570  p :     3.633465
      px      :     1.104335
      py      :     1.321560
      dz2     :     0.016107  d :     0.201831
      dxz     :     0.043589
      dyz     :     0.011831
      dx2y2   :     0.061764
      dxy     :     0.068540
      f0      :     0.001156  f :     0.018512
      f+1     :     0.001729
      f-1     :     0.000845
      f+2     :     0.000190
      f-2     :     0.003808
      f+3     :     0.006796
      f-3     :     0.003989

  3 N s       :     2.982708  s :     2.982708
      pz      :     1.207615  p :     3.633462
      px      :     1.104288
      py      :     1.321559
      dz2     :     0.016062  d :     0.201855
      dxz     :     0.043611
      dyz     :     0.011788
      dx2y2   :     0.061806
      dxy     :     0.068587
      f0      :     0.001154  f :     0.018515
      f+1     :     0.001732
      f-1     :     0.000841
      f+2     :     0.000184
      f-2     :     0.003810
      f+3     :     0.006803
      f-3     :     0.003992

  4 C s       :     2.769102  s :     2.769102
      pz      :     1.029325  p :     3.010909
      px      :     0.987623
      py      :     0.993961
      dz2     :     0.049340  d :     0.368697
      dxz     :     0.071908
      dyz     :     0.068573
      dx2y2   :     0.087045
      dxy     :     0.091831
      f0      :     0.004484  f :     0.041218
      f+1     :     0.003768
      f-1     :     0.003687
      f+2     :     0.005574
      f-2     :     0.004926
      f+3     :     0.011258
      f-3     :     0.007521

  5 C s       :     2.769096  s :     2.769096
      pz      :     1.029314  p :     3.010899
      px      :     0.987651
      py      :     0.993934
      dz2     :     0.049394  d :     0.368712
      dxz     :     0.071953
      dyz     :     0.068472
      dx2y2   :     0.086992
      dxy     :     0.091900
      f0      :     0.004488  f :     0.041219
      f+1     :     0.003766
      f-1     :     0.003685
      f+2     :     0.005574
      f-2     :     0.004928
      f+3     :     0.011268
      f-3     :     0.007511

  6 C s       :     2.769106  s :     2.769106
      pz      :     1.029382  p :     3.010903
      px      :     0.987592
      py      :     0.993929
      dz2     :     0.048297  d :     0.368692
      dxz     :     0.072927
      dyz     :     0.068840
      dx2y2   :     0.087083
      dxy     :     0.091544
      f0      :     0.004400  f :     0.041217
      f+1     :     0.003856
      f-1     :     0.003744
      f+2     :     0.005518
      f-2     :     0.004869
      f+3     :     0.011315
      f-3     :     0.007514

  7 C s       :     2.769106  s :     2.769106
      pz      :     1.029376  p :     3.010892
      px      :     0.987558
      py      :     0.993958
      dz2     :     0.048329  d :     0.368696
      dxz     :     0.072831
      dyz     :     0.068910
      dx2y2   :     0.087127
      dxy     :     0.091499
      f0      :     0.004401  f :     0.041217
      f+1     :     0.003854
      f-1     :     0.003745
      f+2     :     0.005522
      f-2     :     0.004867
      f+3     :     0.011305
      f-3     :     0.007523

  8 C s       :     2.715535  s :     2.715535
      pz      :     0.838927  p :     2.782075
      px      :     0.957855
      py      :     0.985293
      dz2     :     0.043110  d :     0.628107
      dxz     :     0.068731
      dyz     :     0.119494
      dx2y2   :     0.203002
      dxy     :     0.193771
      f0      :     0.005132  f :     0.077062
      f+1     :     0.004544
      f-1     :     0.006125
      f+2     :     0.006778
      f-2     :     0.010602
      f+3     :     0.015586
      f-3     :     0.028295

  9 C s       :     2.715529  s :     2.715529
      pz      :     0.838930  p :     2.782064
      px      :     0.957697
      py      :     0.985437
      dz2     :     0.043112  d :     0.628101
      dxz     :     0.068753
      dyz     :     0.119477
      dx2y2   :     0.202972
      dxy     :     0.193787
      f0      :     0.005132  f :     0.077060
      f+1     :     0.004548
      f-1     :     0.006121
      f+2     :     0.006767
      f-2     :     0.010613
      f+3     :     0.015654
      f-3     :     0.028225

 10 C s       :     2.715531  s :     2.715531
      pz      :     0.838741  p :     2.782060
      px      :     0.957868
      py      :     0.985451
      dz2     :     0.042847  d :     0.628110
      dxz     :     0.068842
      dyz     :     0.119412
      dx2y2   :     0.203163
      dxy     :     0.193844
      f0      :     0.005137  f :     0.077060
      f+1     :     0.004522
      f-1     :     0.006106
      f+2     :     0.006772
      f-2     :     0.010605
      f+3     :     0.015669
      f-3     :     0.028249

 11 C s       :     2.715529  s :     2.715529
      pz      :     0.838742  p :     2.782048
      px      :     0.958012
      py      :     0.985295
      dz2     :     0.042848  d :     0.628100
      dxz     :     0.068815
      dyz     :     0.119442
      dx2y2   :     0.203167
      dxy     :     0.193829
      f0      :     0.005137  f :     0.077059
      f+1     :     0.004519
      f-1     :     0.006109
      f+2     :     0.006781
      f-2     :     0.010596
      f+3     :     0.015601
      f-3     :     0.028315

 12 C s       :     2.699901  s :     2.699901
      pz      :     0.852456  p :     2.790341
      px      :     0.965264
      py      :     0.972620
      dz2     :     0.043593  d :     0.645813
      dxz     :     0.111781
      dyz     :     0.093506
      dx2y2   :     0.200097
      dxy     :     0.196835
      f0      :     0.004787  f :     0.079873
      f+1     :     0.006053
      f-1     :     0.004744
      f+2     :     0.006382
      f-2     :     0.013523
      f+3     :     0.026291
      f-3     :     0.018093

 13 C s       :     2.699900  s :     2.699900
      pz      :     0.852450  p :     2.790336
      px      :     0.965111
      py      :     0.972775
      dz2     :     0.043595  d :     0.645818
      dxz     :     0.111835
      dyz     :     0.093455
      dx2y2   :     0.200070
      dxy     :     0.196863
      f0      :     0.004787  f :     0.079874
      f+1     :     0.006056
      f-1     :     0.004741
      f+2     :     0.006406
      f-2     :     0.013499
      f+3     :     0.026377
      f-3     :     0.018007

 14 C s       :     2.699897  s :     2.699897
      pz      :     0.852350  p :     2.790313
      px      :     0.965214
      py      :     0.972749
      dz2     :     0.043463  d :     0.645829
      dxz     :     0.111913
      dyz     :     0.093365
      dx2y2   :     0.200148
      dxy     :     0.196940
      f0      :     0.004787  f :     0.079878
      f+1     :     0.006053
      f-1     :     0.004728
      f+2     :     0.006386
      f-2     :     0.013505
      f+3     :     0.026405
      f-3     :     0.018015

 15 C s       :     2.699896  s :     2.699896
      pz      :     0.852345  p :     2.790310
      px      :     0.965367
      py      :     0.972598
      dz2     :     0.043464  d :     0.645828
      dxz     :     0.111863
      dyz     :     0.093416
      dx2y2   :     0.200179
      dxy     :     0.196905
      f0      :     0.004786  f :     0.079876
      f+1     :     0.006050
      f-1     :     0.004731
      f+2     :     0.006362
      f-2     :     0.013528
      f+3     :     0.026318
      f-3     :     0.018100

 16 C s       :     2.750538  s :     2.750538
      pz      :     0.939098  p :     2.954207
      px      :     1.003861
      py      :     1.011248
      dz2     :     0.025000  d :     0.377717
      dxz     :     0.048400
      dyz     :     0.048284
      dx2y2   :     0.096784
      dxy     :     0.159248
      f0      :     0.003188  f :     0.040902
      f+1     :     0.003885
      f-1     :     0.003927
      f+2     :     0.006384
      f-2     :     0.002091
      f+3     :     0.010633
      f-3     :     0.010793

 17 C s       :     2.750534  s :     2.750534
      pz      :     0.939111  p :     2.954217
      px      :     1.003770
[...]
  0-1A  -> 26-1A    5.264866   42464.0   235.5   0.000000024   0.00000  -0.00042  -0.00010   0.00005
  0-1A  -> 27-1A    5.467090   44095.1   226.8   0.000000014   0.00000   0.00015  -0.00028   0.00002
  0-1A  -> 28-1A    5.495149   44321.4   225.6   0.000517222   0.00384   0.00051  -0.00005  -0.06198
  0-1A  -> 29-1A    5.542793   44705.6   223.7   0.000196796   0.00145   0.00003  -0.03807   0.00006
  0-1A  -> 30-1A    5.548479   44751.5   223.5   0.000256182   0.00188  -0.04341  -0.00000  -0.00036

----------------------------------------------------------------------------------------------------
                     ABSORPTION SPECTRUM VIA TRANSITION VELOCITY DIPOLE MOMENTS    
----------------------------------------------------------------------------------------------------
     Transition      Energy     Energy  Wavelength fosc(P2)      P2        PX        PY        PZ   
                      (eV)      (cm-1)    (nm)                 (au**2)    (au)      (au)      (au)  
----------------------------------------------------------------------------------------------------
  0-1A  ->  1-1A    1.920893   15493.0   645.5   0.346569114   0.03670  -0.00018   0.19157   0.00001
  0-1A  ->  2-1A    2.361949   19050.4   524.9   0.080720745   0.01051   0.10251   0.00010   0.00081
  0-1A  ->  3-1A    3.009368   24272.2   412.0   0.000019284   0.00000   0.00003  -0.00001   0.00179
  0-1A  ->  4-1A    3.186953   25704.5   389.0   0.030504093   0.00536  -0.07320  -0.00007  -0.00057
  0-1A  ->  5-1A    3.427780   27646.9   361.7   1.113243344   0.21035  -0.45863  -0.00043  -0.00359
  0-1A  ->  6-1A    3.609709   29114.3   343.5   0.000094169   0.00002   0.00035   0.00003  -0.00431
  0-1A  ->  7-1A    3.754761   30284.2   330.2   0.768754426   0.15911  -0.00039   0.39889   0.00003
  0-1A  ->  8-1A    3.795752   30614.8   326.6   0.074478125   0.01558  -0.00013   0.12483   0.00000
  0-1A  ->  9-1A    3.987490   32161.3   310.9   0.000000137   0.00000   0.00001   0.00017  -0.00000
  0-1A  -> 10-1A    4.136000   33359.1   299.8   0.000000014   0.00000  -0.00006   0.00001   0.00000
  0-1A  -> 11-1A    4.261019   34367.4   291.0   0.000588191   0.00014  -0.00005   0.00012   0.01175
  0-1A  -> 12-1A    4.312946   34786.3   287.5   0.000000010   0.00000   0.00004   0.00003  -0.00001
  0-1A  -> 13-1A    4.399392   35483.5   281.8   0.000000124   0.00000   0.00001  -0.00017  -0.00000
  0-1A  -> 14-1A    4.463471   36000.3   277.8   0.000332272   0.00008   0.00008  -0.00001  -0.00904
  0-1A  -> 15-1A    4.493852   36245.4   275.9   0.000000023   0.00000   0.00005   0.00006  -0.00001
  0-1A  -> 16-1A    4.514302   36410.3   274.6   0.007234973   0.00180   0.00004  -0.04243   0.00001
  0-1A  -> 17-1A    4.625140   37304.3   268.1   0.104328860   0.02660   0.00016  -0.16309  -0.00001
  0-1A  -> 18-1A    4.713130   38014.0   263.1   0.000040548   0.00001  -0.00004   0.00006   0.00325
  0-1A  -> 19-1A    4.786561   38606.2   259.0   0.000155813   0.00004  -0.00007   0.00002   0.00641
  0-1A  -> 20-1A    4.790359   38636.9   258.8   0.000000008   0.00000   0.00003  -0.00003  -0.00002
  0-1A  -> 21-1A    4.853477   39145.9   255.5   0.000051607   0.00001  -0.00007   0.00017   0.00371
  0-1A  -> 22-1A    4.866141   39248.1   254.8   0.265233162   0.07115   0.00026  -0.26673  -0.00000
  0-1A  -> 23-1A    5.006245   40378.1   247.7   0.000097597   0.00003   0.00519  -0.00006   0.00004
  0-1A  -> 24-1A    5.103282   41160.8   242.9   0.000858740   0.00024  -0.01554  -0.00002  -0.00011
  0-1A  -> 25-1A    5.178450   41767.0   239.4   0.036708433   0.01048   0.10236   0.00010   0.00081
  0-1A  -> 26-1A    5.264866   42464.0   235.5   0.000000024   0.00000   0.00008   0.00002  -0.00001
  0-1A  -> 27-1A    5.467090   44095.1   226.8   0.000000013   0.00000  -0.00003   0.00006  -0.00001
  0-1A  -> 28-1A    5.495149   44321.4   225.6   0.000486666   0.00015  -0.00010   0.00001   0.01214
  0-1A  -> 29-1A    5.542793   44705.6   223.7   0.000085102   0.00003  -0.00000   0.00510  -0.00001
  0-1A  -> 30-1A    5.548479   44751.5   223.5   0.000228242   0.00007   0.00835   0.00000   0.00007

------------------------------------------------------------------------------------------
                     CD SPECTRUM VIA TRANSITION ELECTRIC DIPOLE MOMENTS    
------------------------------------------------------------------------------------------
     Transition      Energy     Energy  Wavelength    R        MX        MY        MZ   
                      (eV)      (cm-1)    (nm)   (1e40*cgs)   (au)      (au)      (au)  
------------------------------------------------------------------------------------------
  0-1A  ->  1-1A    1.920893   15493.0   645.5  -13.37330  -0.00000  -0.01025  -0.00016
  0-1A  ->  2-1A    2.361949   19050.4   524.9   -4.21975  -0.00743  -0.00001  -0.00039
  0-1A  ->  3-1A    3.009368   24272.2   412.0   -1.44614   0.00149  -0.00004  -0.18699
  0-1A  ->  4-1A    3.186953   25704.5   389.0    1.15814  -0.00381  -0.00001  -0.00022
  0-1A  ->  5-1A    3.427780   27646.9   361.7  -68.72805   0.03911   0.00009  -0.00015
  0-1A  ->  6-1A    3.609709   29114.3   343.5    9.86738   0.00508  -0.00003  -0.65467
  0-1A  ->  7-1A    3.754761   30284.2   330.2  -80.74315   0.00003  -0.05831  -0.00005
  0-1A  ->  8-1A    3.795752   30614.8   326.6   92.43677  -0.00021   0.21577   0.00001
  0-1A  ->  9-1A    3.987490   32161.3   310.9   -0.00002   0.00000  -0.00003  -0.00001
  0-1A  -> 10-1A    4.136000   33359.1   299.8    0.00000  -0.00000   0.00003   0.00011
  0-1A  -> 11-1A    4.261019   34367.4   291.0   44.09236  -0.00933  -0.00012   1.19598
  0-1A  -> 12-1A    4.312946   34786.3   287.5   -0.00001  -0.00004  -0.00003  -0.00004
  0-1A  -> 13-1A    4.399392   35483.5   281.8   -0.00001  -0.00003   0.00001  -0.00002
  0-1A  -> 14-1A    4.463471   36000.3   277.8   -1.66440  -0.00042  -0.00011   0.05780
  0-1A  -> 15-1A    4.493852   36245.4   275.9   -0.00001   0.00002  -0.00007   0.00003
  0-1A  -> 16-1A    4.514302   36410.3   274.6   -0.00641   0.00000   0.00005  -0.00037
  0-1A  -> 17-1A    4.625140   37304.3   268.1   -0.97829  -0.00001   0.00211   0.00025
  0-1A  -> 18-1A    4.713130   38014.0   263.1   -0.97394   0.00091  -0.00001  -0.11312
  0-1A  -> 19-1A    4.786561   38606.2   259.0   -2.85480   0.00115   0.00002  -0.14958
  0-1A  -> 20-1A    4.790359   38636.9   258.8   -0.00002  -0.00001  -0.00002   0.00038
  0-1A  -> 21-1A    4.853477   39145.9   255.5    0.82184  -0.00056  -0.00013   0.06838
  0-1A  -> 22-1A    4.866141   39248.1   254.8    8.25414   0.00003  -0.01146   0.00010
  0-1A  -> 23-1A    5.006245   40378.1   247.7   -0.00991  -0.00095  -0.00002  -0.00016
  0-1A  -> 24-1A    5.103282   41160.8   242.9   -6.01285   0.15339   0.00014   0.00130
  0-1A  -> 25-1A    5.178450   41767.0   239.4    2.71513   0.01067   0.00001   0.00017
  0-1A  -> 26-1A    5.264866   42464.0   235.5   -0.00001  -0.00005   0.00005  -0.00001
  0-1A  -> 27-1A    5.467090   44095.1   226.8   -0.00000  -0.00001  -0.00003   0.00004
  0-1A  -> 28-1A    5.495149   44321.4   225.6   -1.63935   0.00046   0.00007  -0.05610
  0-1A  -> 29-1A    5.542793   44705.6   223.7    1.94575  -0.00009   0.10841   0.00013
  0-1A  -> 30-1A    5.548479   44751.5   223.5   -0.08759  -0.00428  -0.00000  -0.00016

------------------------------------------------------------------------------------------
                     CD SPECTRUM VIA TRANSITION VELOCITY DIPOLE MOMENTS    
------------------------------------------------------------------------------------------
     Transition      Energy     Energy  Wavelength    R        MX        MY        MZ   
                      (eV)      (cm-1)    (nm)   (1e40*cgs)   (au)      (au)      (au)  
------------------------------------------------------------------------------------------
  0-1A  ->  1-1A    1.920893   15493.0   645.5  -13.11252  -0.00000  -0.01025  -0.00016
  0-1A  ->  2-1A    2.361949   19050.4   524.9   -4.13620  -0.00743  -0.00001  -0.00039
  0-1A  ->  3-1A    3.009368   24272.2   412.0   -1.42527   0.00149  -0.00004  -0.18699
  0-1A  ->  4-1A    3.186953   25704.5   389.0    1.12450  -0.00381  -0.00001  -0.00022
  0-1A  ->  5-1A    3.427780   27646.9   361.7  -67.13221   0.03911   0.00009  -0.00015
  0-1A  ->  6-1A    3.609709   29114.3   343.5   10.04504   0.00508  -0.00003  -0.65467
  0-1A  ->  7-1A    3.754761   30284.2   330.2  -79.46425   0.00003  -0.05831  -0.00005
  0-1A  ->  8-1A    3.795752   30614.8   326.6   91.03542  -0.00021   0.21577   0.00001
  0-1A  ->  9-1A    3.987490   32161.3   310.9   -0.00002   0.00000  -0.00003  -0.00001
  0-1A  -> 10-1A    4.136000   33359.1   299.8    0.00000  -0.00000   0.00003   0.00011
  0-1A  -> 11-1A    4.261019   34367.4   291.0   42.32244  -0.00933  -0.00012   1.19598
  0-1A  -> 12-1A    4.312946   34786.3   287.5   -0.00001  -0.00004  -0.00003  -0.00004
  0-1A  -> 13-1A    4.399392   35483.5   281.8   -0.00001  -0.00003   0.00001  -0.00002
  0-1A  -> 14-1A    4.463471   36000.3   277.8   -1.50206  -0.00042  -0.00011   0.05780
  0-1A  -> 15-1A    4.493852   36245.4   275.9   -0.00001   0.00002  -0.00007   0.00003
  0-1A  -> 16-1A    4.514302   36410.3   274.6   -0.00607   0.00000   0.00005  -0.00037
  0-1A  -> 17-1A    4.625140   37304.3   268.1   -0.95292  -0.00001   0.00211   0.00025
  0-1A  -> 18-1A    4.713130   38014.0   263.1   -0.99930   0.00091  -0.00001  -0.11312
  0-1A  -> 19-1A    4.786561   38606.2   259.0   -2.57049   0.00115   0.00002  -0.14958
  0-1A  -> 20-1A    4.790359   38636.9   258.8   -0.00002  -0.00001  -0.00002   0.00038
  0-1A  -> 21-1A    4.853477   39145.9   255.5    0.67080  -0.00056  -0.00013   0.06838
  0-1A  -> 22-1A    4.866141   39248.1   254.8    8.05566   0.00003  -0.01146   0.00010
  0-1A  -> 23-1A    5.006245   40378.1   247.7   -0.01259  -0.00095  -0.00002  -0.00016
  0-1A  -> 24-1A    5.103282   41160.8   242.9   -5.99328   0.15339   0.00014   0.00130
  0-1A  -> 25-1A    5.178450   41767.0   239.4    2.70617   0.01067   0.00001   0.00017
  0-1A  -> 26-1A    5.264866   42464.0   235.5   -0.00001  -0.00005   0.00005  -0.00001
  0-1A  -> 27-1A    5.467090   44095.1   226.8   -0.00000  -0.00001  -0.00003   0.00004
  0-1A  -> 28-1A    5.495149   44321.4   225.6   -1.59019   0.00046   0.00007  -0.05610
  0-1A  -> 29-1A    5.542793   44705.6   223.7    1.27952  -0.00009   0.10841   0.00013
  0-1A  -> 30-1A    5.548479   44751.5   223.5   -0.08268  -0.00428  -0.00000  -0.00016

Total run time:     3750.517 sec

           *** ORCA-CIS/TD-DFT FINISHED WITHOUT ERROR ***
-----------------------
CIS/TD-DFT TOTAL ENERGY
-----------------------

    E(SCF)  =  -1191.566919609 Eh
    DE(CIS) =      0.070591526 Eh (Root  1)
    ----------------------------- ---------
    E(tot)  =  -1191.496328083 Eh


Maximum memory used throughout the entire CIS-calculation: 1697.2 MB
=> NOW LEAVING ORCA_CIS

-------------------------   --------------------
FINAL SINGLE POINT ENERGY     -1191.496328082878
-------------------------   --------------------



           ************************************************************
           *        Program running with 4 parallel MPI-processes     *
           *              working on a common directory               *
           ************************************************************

------------------------------------------------------------------------------
                              ORCA PROPERTY CALCULATIONS
------------------------------------------------------------------------------

GBWName                                 ... tddft.gbw
Number of atoms                         ...     41
Number of basis functions               ...    872
Max core memory                         ...   3000 MB

Electric properties:
Dipole moment                           ... YES
Quadrupole moment                       ...  NO
Static polarizability (Dipole/Dipole)   ...  NO
Static polarizability (Dipole/Quad.)    ...  NO
Static polarizability (Quad./Quad.)     ...  NO
Static polarizability (Velocity)        ...  NO
Static hyperpolarizability              ...  NO

Atomic electric properties:
Dipole moment                           ...  NO
Quadrupole moment                       ...  NO
Static polarizability                   ...  NO

Choice of electric origin               ... Center of mass
Position of electric origin             ...    -0.003613    -0.019229     0.068836

General magnetic properties:
Magnetizability                         ...  NO

EPR properties:
g-Tensor (aka g-matrix)                 ...  NO
Zero-Field splitting spin-orbit         ...  NO
Zero-field splitting spin-spin          ...  NO
Hyperfine couplings                     ...  NO (   0 nuclei)
Quadrupole couplings                    ...  NO (   0 nuclei)
Contact density                         ...  NO (   0 nuclei)

NMR properties:
Chemical shifts                         ...  NO (   0 nuclei)
Spin-rotation constants                 ...  NO (   0 nuclei)
Spin-spin couplings                     ...  NO (   0 nuclei,    0 pairs)

Choice of magnetic origin               ... GIAO
Position of magnetic origin             ...     0.000000     0.000000     0.000000

Properties with geometric perturbations:
SCF Hessian                             ...  NO
IR spectrum                             ...  NO
VCD spectrum                            ...  NO
X-ray spectroscopy properties:
SCF XES/XAS/RIXS spectra                ...  NO

SCF SOC stabilization energy            ...  NO
Diagonal Born-Oppenheimer correction    ...  NO

-------------
DIPOLE MOMENT
-------------

Method             : SCF
Type of density    : Electron Density
Multiplicity       :   1
Irrep              :   0
Energy             : -1191.5669196090416335 Eh
Basis              : AO
                                X                 Y                 Z
Electronic contribution:      0.000969751       0.000906093      -0.000410709
Nuclear contribution   :     -0.000660183       0.000201001       0.000373176
                        -----------------------------------------
Total Dipole Moment    :      0.000309568       0.001107094      -0.000037533
                        -----------------------------------------
Magnitude (a.u.)       :      0.001150173
Magnitude (Debye)      :      0.002923508



--------------------
Rotational spectrum 
--------------------
 
Rotational constants in cm-1:             0.008915             0.008207             0.004290 
Rotational constants in MHz :           267.260438           246.047427           128.597541 

Dipole components along the rotational axes: 
x,y,z [a.u.] :     0.000310    -0.001107    -0.000040 
x,y,z [Debye]:     0.000789    -0.002813    -0.000102 

 

Dipole moment calculation done in   0.0 sec 

Maximum memory used throughout the entire PROP-calculation: 90.9 MB

--------------------------------
SUGGESTED CITATIONS FOR THIS RUN
--------------------------------

Below you find a list of papers that are relevant to this ORCA run
We neither can nor want to force you to cite these papers, but we appreciate if you do
You receive ORCA, which is the product of decades of hard work by many enthusiastic individuals, for free
The only thing we kindly ask in return is that you cite our papers,
We deeply appreciate it, if you show your appreciation for ORCA by not just citing the generic ORCA reference.

Please note that relegating all ORCA citations to the supporting information does *not* help us.
SI sections are not indexed - citations you put there will not count into any citation statistics
But we need these citations in order to attract the funding resources that allow us to do what we are doing

Therefore, if you are a happy ORCA user, please consider citing a few of the papers listed below in the main body of your paper

In addition to the list printed below, the program has created the file tddft.bibtex that contains the list in bibtex format
You can import this file easily into all common literature databanks and citation aid programs

It goes without saying that in many instances, there are alternative algorithms to achieve similar
results as the ones you have gotten from ORCA. It is, of course, also the case that in some instances
ORCA just re-implements algorithms worked out by others. We are fully aware of that and we are also
fully appreciative of our colleagues work. Hence this citation list should not be read as indicating
that the listed papers, which are focused on our own work, are the only ones worth citing. It simply
meant to make it easier for users to cite ORCA specific papers. It is not a substitute for doing your
own literature research and citing the relevant literature in a scientifically appropriate manner.

List of essential papers. We consider these as the minimum necessary citations

  1. Neese, F.
     Software update: the ORCA program system, version 6.0
     WIRES Comput. Molec. Sci. 2025 15(1), e70019
     doi.org/10.1002/wcms.70019

List of papers to cite with high priority. The work reported in these papers was absolutely
necessary for this run to complete.
Our perspective: the developers of density functionals and basis sets usually get cited in chemistry papers
Good! But without the algorithms to do something with them, the functionals or basis sets would not do anything.
Hence, in our opinion, the algorithm design and method developments papers are equally worthy of getting cited

  1. Neese, F.; Olbrich, G.
     Efficient use of the resolution of the identity approximation in time-dependent density functional calculations with hybrid density functionals
     Chem. Phys. Lett. 2002 362 , 170-178
     doi.org/10.1016/s0009-2614(02)01053-9
  2. Neese, F.
     An improvement of the resolution of the identity approximation for the formation of the Coulomb matrix
     J. Comp. Chem. 2003 24(14), 1740-1747
     doi.org/10.1002/jcc.10318
  3. Garcia-Rates, M.; Neese, F.
     Effect of the Solute Cavity on the Solvation Energy and its Derivatives within the Framework of the Gaussian Charge Scheme
     J. Comput. Chem. 2020 41 , 922-939
     doi.org/10.1002/jcc.26139
  4. Neese, F.
     The SHARK Integral Generation and Digestion System
     J. Comp. Chem. 2022 44(3), 381
     doi.org/10.1002/jcc.26942

List of suggested additional citations. These are papers that are important in the 'surrounding' of 
of this run, or papers that preceded the highly important papers. If you like your results we are grateful for a citation.

  1. Neese, F.
     The ORCA program system
     WIRES Comput. Molec. Sci. 2012 2(1), 73-78
     doi.org/10.1002/wcms.81
  2. Neese, F.
     Software update: the ORCA program system, version 4.0
     WIRES Comput. Molec. Sci. 2018 8(1), 1-6
     doi.org/10.1002/wcms.1327
  3. Neese, F.; Wennmohs, F.; Becker, U.; Riplinger, C.
     The ORCA quantum chemistry program package
     J. Chem. Phys. 2020 152(22), 224108
     doi.org/10.1063/5.0004608
  4. Neese, F.
     Software update: The ORCA program system—Version 5.0
     WIRES Comput. Molec. Sci. 2022 12(1), e1606
     doi.org/10.1002/wcms.1606

List of optional additional citations

  1. Neese, F.
     Approximate second-order SCF convergence for spin unrestricted wavefunctions
     Chem. Phys. Lett. 2000 325(1-3), 93-98
     doi.org/10.1016/s0009-2614(00)00662-x

Timings for individual modules:

Sum of individual times          ...     4491.033 sec (=  74.851 min)
Startup calculation              ...       19.457 sec (=   0.324 min)   0.4 %
SCF iterations                   ...      718.841 sec (=  11.981 min)  16.0 %
Property integrals               ...        1.126 sec (=   0.019 min)   0.0 %
Property calculations            ...        0.611 sec (=   0.010 min)   0.0 %
CIS module                       ...     3750.998 sec (=  62.517 min)  83.5 %
                             ****ORCA TERMINATED NORMALLY****
TOTAL RUN TIME: 0 days 1 hours 14 minutes 51 seconds 447 msec
