
                                 *****************
                                 * O   R   C   A *
                                 *****************

                                            #,                                       
                                            ###                                      
                                            ####                                     
                                            #####                                    
                                            ######                                   
                                           ########,                                 
                                     ,,################,,,,,                         
                               ,,#################################,,                 
                          ,,##########################################,,             
                       ,#########################################, ''#####,          
                    ,#############################################,,   '####,        
                  ,##################################################,,,,####,       
                ,###########''''           ''''###############################       
              ,#####''   ,,,,##########,,,,          '''####'''          '####       
            ,##' ,,,,###########################,,,                        '##       
           ' ,,###''''                  '''############,,,                           
         ,,##''                                '''############,,,,        ,,,,,,###''
      ,#''                                            '''#######################'''  
     '                                                          ''''####''''         
             ,#######,   #######,   ,#######,      ##                                
            ,#'     '#,  ##    ##  ,#'     '#,    #''#        ,####,    ,#,          
            ##       ##  ##   ,#'  ##            #'  '#       #'       ,# #          
            ##       ##  #######   ##           ,######,      #####,      #          
            '#,     ,#'  ##    ##  '#,     ,#' ,#      #,     #,   #      #          
             '#######'   ##     ##  '#######'  #'      '#     '####' #    #          



                #########################################################
                #                        -***-                          #
                #          Department of theory and spectroscopy        #
                #                                                       #
                #                      Frank Neese                      #
                #                                                       #
                #     Directorship, Architecture, Infrastructure        #
                #                    SHARK, DRIVERS                     #
                #        Core code/Algorithms in most modules           #
                #                                                       #
                #        Max Planck Institute fuer Kohlenforschung      #
                #                Kaiser Wilhelm Platz 1                 #
                #                 D-45470 Muelheim/Ruhr                 #
                #                      Germany                          #
                #                                                       #
                #                  All rights reserved                  #
                #                        -***-                          #
                #########################################################


                         Program Version 6.1.1  -  RELEASE   -
                                (GIT: $487d211c$)
                          ($2025-11-21 10:33:24 +0100$)


 With contributions from (in alphabetic order):
[Max-Planck-Institut fuer Kohlenforschung]                               
  Daniel Aravena         : Magnetic Suceptibility                        
  Michael Atanasov       : Ab Initio Ligand Field Theory (pilot matlab implementation)
  Alexander A. Auer      : GIAO ZORA, VPT2 properties, NMR spectrum      
  Ute Becker             : All parallelization in ORCA, NUMFREQ, NUMCALC 
  Giovanni Bistoni       : ED, misc. LED, open-shell LED, HFLD           
  Dmytro Bykov           : pre 5.0 version of the SCF Hessian            
  Marcos Casanova-Páez   : Triplet and SCS-CIS(D). UHF-(DLPNO)-IP/EA/STEOM-CCSD. UHF-CVS-IP/STEOM-CCSD   
  Vijay G. Chilkuri      : MRCI spin determinant printing, contributions to CSF-ICE 
  Pauline Colinet        : FMM embedding                                 
  Dipayan Datta          : RHF DLPNO-CCSD density                        
  Achintya Kumar Dutta   : EOM-CC, STEOM-CC                              
  Nicolas Foglia         : Exact transition moments, OPA infrastructure, MCD improvements    
  Dmitry Ganyushin       : Spin-Orbit,Spin-Spin,Magnetic field MRCI      
  Miquel Garcia-Rates    : C-PCM and meta-GGA Hessian, CCSD/C-PCM, Gaussian charge scheme 
  Tiago L. C. Gouveia    : GS-ROHF, GS-ROCIS                             
  Yang Guo               : DLPNO-NEVPT2, F12-NEVPT2, CIM, IAO-localization        
  Andreas Hansen         : Spin unrestricted coupled pair/coupled cluster methods 
  Ingolf Harden          : AUTO-CI MPn and infrastructure                
  Benjamin Helmich-Paris : MC-RPA, TRAH-(SCF,CASSCF), AVAS, COSX integrals, SCF dyn. polar., MC-PDFT, srDFT 
  Lee Huntington         : MR-EOM, pCC                                   
  Robert Izsak           : Overlap fitted RIJCOSX, COSX-SCS-MP3, EOM     
  Riya Kayal             : Wick's Theorem for AUTO-CI, AUTO-CI UHF-CCSDT 
  Emily Kempfer          : AUTO-CI RHF CISDT and CCSDT, approximate NEVPT4
  Christian Kollmar      : KDIIS, OOCD, Brueckner-CCSD(T), CCSD density, CASPT2, CASPT2-K, improved NEVPT2 
  Axel Koslowski         : Symmetry handling                             
  Simone Kossmann        : meta-GGA functionals, TD-DFT gradient, OOMP2, (MP2 Hessian; deprecated post 5.0) 
  Lucas Lang             : DCDCAS, Hyperfine gauge corrections, ICE-SOC+SSC
  Marvin Lechner         : AUTO-CI (C++ implementation), FIC-MRCC        
  Spencer Leger          : CASSCF response                               
  Dagmar Lenk            : GEPOL surface, SMD, ORCA-2-JSON               
  Dimitrios Liakos       : Extrapolation schemes; Compound Job, Property file
  Dimitrios Manganas     : Further ROCIS development; embedding schemes. LFT, Crystal Embedding 
  Dimitrios Pantazis     : SARC Basis sets                               
  Anastasios Papadopoulos: AUTO-CI, single reference methods and gradients 
  Taras Petrenko         : pre 6.0 DFT Hessian and TD-DFT gradient,  ECA, NRVS 
  Petra Pikulova         : Analytic Raman intensities                    
  Peter Pinski           : DLPNO-MP2, DLPNO-MP2 Gradient                 
  Shashank Vittal Rao    : ES-AILFT, MagRelax                            
  Christoph Reimann      : Effective Core Potentials                     
  Marius Retegan         : Local ZFS, SOC                                
  Christoph Riplinger    : Optimizer, TS searches, QM/MM, DLPNO-CCSD(T), (RO)-DLPNO pert. Triples 
  Michael Roemelt        : Original ROCIS implementation, recursive CI coupling coefficients
  Masaaki Saitow         : Open-shell DLPNO-CCSD energy and density      
  Barbara Sandhoefer     : DKH picture change effects                    
  Yorick L. A. Schmerwitz: GMF and freeze-and-release deltaSCF, NEB S-IDPP initial path                    
  Kantharuban Sivalingam : CASSCF convergence/infrastructure, NEVPT2, NEVPT3, NEVPT4(SD), FIC-MRCI and CEPA variants
  Bernardo de Souza      : ESD, SOC TD-DFT                               
  Georgi L. Stoychev     : AutoAux, RI-MP2 NMR, DLPNO-MP2 response, X2C  
  Van Anh Tran           : RI-MP2 g-tensors                              
  Willem Van den Heuvel  : Paramagnetic NMR                              
  Zikuan Wang            : NOTCH, Electric field optimization            
  Frank Wennmohs         : Technical directorship and infrastructure     
  Hang Xu                : AUTO-CI-Response properties                   
                                                                         
[FACCTs GmbH]                                                            
  Markus Bursch, Nicolas Foglia, Miquel Garcia-Rates, Ingolf Harden, Hagen Neugebauer, Anastasios Papadopoulos, 
  Christoph Riplinger, Bernardo de Souza, Georgi L. Stoychev                                                    
                                                                 
  APM, various basis sets, CI-OPT, improved COSX, DLPNO-Multilevel,           
  DOCKER, DRACO, updates on ESD, Fragmentator, GOAT, IRC, LR-CPCM, L-BFGS, MBIS, meta-GGA TD-DFT gradient, ML-optimized integration grids, 
  MM, NACMEs, nearIR, NEB, NEB-TS, NL-DFT gradient (VV10), 2- and 3-layer-ONIOM, interface openCOSMO-RS, QMMM,   
  Crystal-QMMM, RESP, rigid body optimization, SF, symmetry and pop. for TD-DFT, various functionals, SOLVATOR                                   
                                                                         
[Other institutions]                                                     
  V. Asgeirsson          : NEB                                           
  Christoph Bannwarth    : sTDA-DFT, sTD-DFT, PBEh-3c, B97-3c, D3        
  Giovanni Bistoni       : ETS/NOCV, ADLD/ADEX, COVALED                  
  Martin Brehm           : Molecular dynamics                            
  Ronald Cardenas        : ETS/NOCV                                      
  Martina Colucci        : COVALED                                       
  Sebastian Ehlert       : rSCAN, r2SCAN, r2SCAN-3c, D4, dhf basis sets  
  Marvin Friede          : D4 for Fr, Ra, Ac-Lr                          
  Lars Goerigk           : TD-DFT with DH, B97 family of functionals     
  Stefan Grimme          : VdW corrections, initial TS optimization, DFT functionals, gCP, sTDA/sTD-DF 
  Waldemar Hujo          : DFT-NL                                        
  H. Jonsson             : NEB                                           
  Holger Kruse           : gCP                                           
  Marcel Mueller         : wB97X-3c, vDZP basis set                      
  Hagen Neugebauer       : wr2SCAN, Native XTB                           
  Gianluca Regni         : ADLD/ADEX                                     
  Tobias Risthaus        : pre 6.0 range-separated hybrid DFT and stability analysis
  Lukas Wittmann         : regularized MP2, r2SCAN double-hybrids, wr2SCAN        
                                                                         
We gratefully acknowledge several colleagues who have allowed us to      
interface, adapt or use parts of their codes:                            
  Ed Valeev, F. Pavosevic, A. Kumar             : LibInt (2-el integral package), F12 methods 
  Garnet Chan, S. Sharma, J. Yang, R. Olivares  : DMRG                   
  Ulf Ekstrom                                   : XCFun DFT Library      
  Mihaly Kallay                                 : mrcc  (arbitrary order and MRCC methods)
  Frank Weinhold                                : gennbo (NPA and NBO analysis)           
  Simon Mueller                                 : openCOSMO-RS                            
  Christopher J. Cramer and Donald G. Truhlar   : smd solvation model                     
  S Lehtola, MJT Oliveira, MAL Marques          : LibXC Library                           
  Liviu Ungur et al                             : ANISO software                          


 Your calculation uses the libint2 library for the computation of 2-el integrals
 For citations please refer to: http://libint.valeyev.net

 Your ORCA version has been built with support for libXC version: 7.0.0
 For citations please refer to: https://libxc.gitlab.io

 This ORCA versions uses:
   CBLAS   interface :  Fast vector & matrix operations
   LAPACKE interface :  Fast linear algebra routines
   SCALAPACK package :  Parallel linear algebra routines
   Shared memory     :  Shared parallel matrices
   BLAS/LAPACK       :  OpenBLAS 0.3.29  USE64BITINT DYNAMIC_ARCH NO_AFFINITY Haswell SINGLE_THREADED
        Core in use  :  Haswell
   Copyright (c) 2011-2014, The OpenBLAS Project


  ***********************************
  * Starting time: Sun Jul  5 22:38:20 2026
  * Host name:     steezy
  * Process ID:    1306103
  * Working dir.:  /home/jannes/chlorophyll-ladder/007-mg-core-ladder/mgbacteriochlorin/03_tddft_ch2cl2/pbe0
  ***********************************

NOTE: MaxCore=3000 MB was set to SCF,MP2,MDCI,CIPSI,MRCI,RASCI and CIS
      => If you want to overwrite this, your respective input block should be placed after the MaxCore statement


***************************************
The coordinates will be read from file: /home/jannes/chlorophyll-ladder/007-mg-core-ladder/mgbacteriochlorin/01_opt/mgbacteriochlorin_opt_b3lypd4_tzvp.xyz
***************************************


================================================================================

----- Orbital basis set information -----
Your calculation utilizes the basis: def2-TZVP
   F. Weigend and R. Ahlrichs, Phys. Chem. Chem. Phys. 7, 3297 (2005).

----- AuxJ basis set information -----
Your calculation utilizes the auxiliary basis: def2/J
   H-Rn: F. Weigend, Phys. Chem. Chem. Phys. 8, 1057 (2006).
   Fr-Lr: K. Eichkorn, F. Weigend, O. Treutler, R. Ahlrichs; Theor. Chem. Acc. 97, 119 (1997).

================================================================================
                                        WARNINGS
                       Please study these warnings very carefully!
================================================================================


WARNING: CIS/ROCIS methods need fully converged wavefunctions
  ===> : Setting SCFConvForced true
         You can overwrite this default with %scf ConvForced false 


================================================================================
                                       INPUT FILE
================================================================================
NAME = tddft.inp
|  1> %pal nprocs 4 end
|  2> %maxcore 3000
|  3> ! PBE0 def2-TZVP def2/J RIJCOSX DefGrid3 TightSCF CPCM(CH2Cl2)
|  4> %tddft
|  5>   nroots 30
|  6>   tda false
|  7>   triplets false
|  8> end
|  9> * xyzfile 0 1 /home/jannes/chlorophyll-ladder/007-mg-core-ladder/mgbacteriochlorin/01_opt/mgbacteriochlorin_opt_b3lypd4_tzvp.xyz
| 10> 
| 11>                          ****END OF INPUT****
================================================================================

                       ****************************
                       * Single Point Calculation *
                       ****************************

---------------------------------
CARTESIAN COORDINATES (ANGSTROEM)
---------------------------------
  N     -2.124578   -0.012303    0.019619
  N      2.120702   -0.008182    0.053311
  N      0.000054   -2.042965    0.036072
  N     -0.003922    2.022643    0.036768
  C     -4.365647   -0.772052   -0.118068
  C      4.363206   -0.763605    0.191137
  C     -4.368868    0.743331    0.123418
  C      4.363545    0.751732   -0.050582
  C     -2.893435   -1.127457   -0.033347
  C      2.891729   -1.121890    0.105994
  C     -2.896171    1.101445    0.061023
  C      2.890180    1.107061    0.012189
  C     -1.099225   -2.861182    0.000405
  C      1.100883   -2.859069    0.071901
  C     -1.105169    2.838701    0.055116
  C      1.095772    2.840793    0.018125
  C     -2.428367   -2.424151   -0.040149
  C      2.429194   -2.419482    0.112495
  C     -2.433870    2.399066    0.075036
  C      2.425350    2.403775   -0.001591
  C     -0.680956   -4.229545    0.012980
  C      0.685237   -4.228237    0.059463
  C     -0.689363    4.207941    0.048969
  C      0.677354    4.209237    0.023929
  H     -4.752237   -1.026638   -1.108895
  H     -4.959962   -1.326894    0.608414
  H      4.749790   -1.017167    1.182234
  H      4.958957   -1.317434   -0.534930
  H     -4.953125    1.297020   -0.612043
  H     -4.770793    0.997360    1.108263
  H      4.946888    1.306572    0.684739
  H      4.764732    1.006428   -1.035547
  H     -3.179766   -3.203559   -0.079566
  H      3.182074   -3.197459    0.151893
  H     -3.187309    3.176996    0.103002
  H      3.177260    3.183189   -0.029363
  H     -1.343528   -5.080762   -0.009530
  H      1.349426   -5.078189    0.082157
  H     -1.354064    5.057708    0.060979
  H      1.340439    5.060262    0.011412
  Mg    -0.001641   -0.010087    0.036418

----------------------------
CARTESIAN COORDINATES (A.U.)
----------------------------
  NO LB      ZA    FRAG     MASS         X           Y           Z
   0 N     7.0000    0    14.007   -4.014871   -0.023249    0.037074
   1 N     7.0000    0    14.007    4.007547   -0.015462    0.100743
   2 N     7.0000    0    14.007    0.000102   -3.860643    0.068165
   3 N     7.0000    0    14.007   -0.007411    3.822241    0.069481
   4 C     6.0000    0    12.011   -8.249878   -1.458967   -0.223116
   5 C     6.0000    0    12.011    8.245265   -1.443005    0.361196
   6 C     6.0000    0    12.011   -8.255964    1.404693    0.233226
   7 C     6.0000    0    12.011    8.245904    1.420568   -0.095586
   8 C     6.0000    0    12.011   -5.467801   -2.130585   -0.063016
   9 C     6.0000    0    12.011    5.464575   -2.120065    0.200300
  10 C     6.0000    0    12.011   -5.472971    2.081430    0.115316
  11 C     6.0000    0    12.011    5.461648    2.092042    0.023034
  12 C     6.0000    0    12.011   -2.077234   -5.406851    0.000765
  13 C     6.0000    0    12.011    2.080367   -5.402857    0.135874
  14 C     6.0000    0    12.011   -2.088466    5.364367    0.104155
  15 C     6.0000    0    12.011    2.070710    5.368321    0.034251
  16 C     6.0000    0    12.011   -4.588949   -4.580981   -0.075870
  17 C     6.0000    0    12.011    4.590511   -4.572158    0.212586
  18 C     6.0000    0    12.011   -4.599348    4.533577    0.141797
  19 C     6.0000    0    12.011    4.583247    4.542477   -0.003006
  20 C     6.0000    0    12.011   -1.286820   -7.992681    0.024528
  21 C     6.0000    0    12.011    1.294910   -7.990210    0.112369
  22 C     6.0000    0    12.011   -1.302708    7.951855    0.092538
  23 C     6.0000    0    12.011    1.280014    7.954306    0.045220
  24 H     1.0000    0     1.008   -8.980427   -1.940064   -2.095508
  25 H     1.0000    0     1.008   -9.372970   -2.507465    1.149735
  26 H     1.0000    0     1.008    8.975803   -1.922168    2.234098
  27 H     1.0000    0     1.008    9.371070   -2.489590   -1.010871
  28 H     1.0000    0     1.008   -9.360049    2.451013   -1.156593
  29 H     1.0000    0     1.008   -9.015493    1.884737    2.094314
  30 H     1.0000    0     1.008    9.348264    2.469063    1.293968
  31 H     1.0000    0     1.008    9.004039    1.901874   -1.956899
  32 H     1.0000    0     1.008   -6.008887   -6.053850   -0.150357
  33 H     1.0000    0     1.008    6.013249   -6.042321    0.287037
  34 H     1.0000    0     1.008   -6.023141    6.003652    0.194646
  35 H     1.0000    0     1.008    6.004152    6.015356   -0.055489
  36 H     1.0000    0     1.008   -2.538900   -9.601249   -0.018009
  37 H     1.0000    0     1.008    2.550046   -9.596387    0.155255
  38 H     1.0000    0     1.008   -2.558811    9.557682    0.115234
  39 H     1.0000    0     1.008    2.533064    9.562509    0.021566
  40 Mg   12.0000    0    24.305   -0.003102   -0.019062    0.068819

--------------------------------
INTERNAL COORDINATES (ANGSTROEM)
--------------------------------
 N      0   0   0     0.000000000000     0.00000000     0.00000000
 N      1   0   0     4.245416085717     0.00000000     0.00000000
 N      2   1   0     2.939011375942    43.75967239     0.00000000
 N      1   2   3     2.939129070827    43.76187171   180.00255177
 C      1   2   3     2.370352009699   161.12036003   351.01820559
 C      2   1   3     2.370334321602   161.11898876   350.98604815
 C      5   1   2     1.534507198399    71.11414070   179.93485080
 C      6   2   1     1.534495241103    71.11492103   179.93600990
 C      1   2   3     1.355550048196   124.63056083   357.60358136
 C      2   1   3     1.355582128298   124.62977820   357.59599889
 C      1   2   3     1.355546123926   124.62160127   177.56972785
 C      2   1   3     1.355563808831   124.62364954   177.56200688
 C      3   2   1     1.370826670960   172.75333140     8.90847460
 C      3   2   1     1.370815363532    80.36235659   181.15564598
 C      4   1   2     1.370777821536    80.36358993   181.14305473
 C      4   1   2     1.370782906164   172.74430185     9.13892315
 C      9   1   2     1.377588111167   125.66613610     2.25390691
 C     10   2   1     1.377579558700   125.66739448     2.25241290
 C     11   1   2     1.377584022390   125.67739340     2.30114869
 C     12   2   1     1.377579356145   125.67503938     2.29624379
 C     13   3  14     1.430916519652   109.64262364   359.95276415
 C     21  13   3     1.366983719650   106.94919461     0.12079397
 C     15   4   1     1.430996176158   109.64179711   181.00446043
 C     23  15   4     1.366947587917   106.94825517     0.12005675
 H      5   1   2     1.093619998274   117.48119229   285.29610054
 H      5   1   2     1.090336727187   129.77292185    74.83365878
 H      6   2   1     1.093624260422   117.45243435   285.29735237
 H      6   2   1     1.090329122694   129.79853465    74.83293182
 H      7   5   1     1.090334418898   113.35711182   126.06534071
 H      7   5   1     1.093615512790   111.83148131   247.14860792
 H      8   6   2     1.090336113225   113.35342562   126.07482105
 H      8   6   2     1.093607292633   111.83547187   247.16406460
 H     17   9   1     1.083342905325   116.30988331   179.63283291
 H     18  10   2     1.083341733356   116.31217148   179.64366974
 H     19  11   1     1.083340715870   116.31275699   179.62575756
 H     20  12   2     1.083340310464   116.31350810   179.62687671
 H     21  13   3     1.078925603982   125.08340360   180.05189031
 H     22  21  13     1.078925857550   127.96702129   179.92425103
 H     23  15   4     1.078923414896   125.06844783   180.04988392
 H     24  23  15     1.078926070118   127.98362874   179.91361688
 Mg     4   1   2     2.032731255388    46.24671301     0.00000000

---------------------------
INTERNAL COORDINATES (A.U.)
---------------------------
 N      0   0   0     0.000000000000     0.00000000     0.00000000
 N      1   0   0     8.022673726548     0.00000000     0.00000000
 N      2   1   0     5.553926605009    43.75967239     0.00000000
 N      1   2   3     5.554149016110    43.76187171   180.00255177
 C      1   2   3     4.479316139321   161.12036003   351.01820559
 C      2   1   3     4.479282713662   161.11898876   350.98604815
 C      5   1   2     2.899798355505    71.11414070   179.93485080
 C      6   2   1     2.899775759491    71.11492103   179.93600990
 C      1   2   3     2.561618351915   124.63056083   357.60358136
 C      2   1   3     2.561678974521   124.62977820   357.59599889
 C      1   2   3     2.561610936119   124.62160127   177.56972785
 C      2   1   3     2.561644355746   124.62364954   177.56200688
 C      3   2   1     2.590486985190   172.75333140     8.90847460
 C      3   2   1     2.590465617247    80.36235659   181.15564598
 C      4   1   2     2.590394673157    80.36358993   181.14305473
 C      4   1   2     2.590404281711   172.74430185     9.13892315
 C      9   1   2     2.603264255451   125.66613610     2.25390691
 C     10   2   1     2.603248093630   125.66739448     2.25241290
 C     11   1   2     2.603256528784   125.67739340     2.30114869
 C     12   2   1     2.603247710858   125.67503938     2.29624379
 C     13   3  14     2.704040342647   109.64262364   359.95276415
 C     21  13   3     2.583224859667   106.94919461     0.12079397
 C     15   4   1     2.704190871627   109.64179711   181.00446043
 C     23  15   4     2.583156580588   106.94825517     0.12005675
 H      5   1   2     2.066642291317   117.48119229   285.29610054
 H      5   1   2     2.060437808139   129.77292185    74.83365878
 H      6   2   1     2.066650345610   117.45243435   285.29735237
 H      6   2   1     2.060423437730   129.79853465    74.83293182
 H      7   5   1     2.060433446106   113.35711182   126.06534071
 H      7   5   1     2.066633814981   111.83148131   247.14860792
 H      8   6   2     2.060436647919   113.35342562   126.07482105
 H      8   6   2     2.066618281135   111.83547187   247.16406460
 H     17   9   1     2.047221400191   116.30988331   179.63283291
 H     18  10   2     2.047219185490   116.31217148   179.64366974
 H     19  11   1     2.047217262721   116.31275699   179.62575756
 H     20  12   2     2.047216496614   116.31350810   179.62687671
 H     21  13   3     2.038873910402   125.08340360   180.05189031
 H     22  21  13     2.038874389575   127.96702129   179.92425103
 H     23  15   4     2.038869773628   125.06844783   180.04988392
 H     24  23  15     2.038874791271   127.98362874   179.91361688
 Mg     4   1   2     3.841305376545    46.24671301     0.00000000

---------------------
BASIS SET INFORMATION
---------------------
There are 4 groups of distinct atoms

 Group   1 Type N   : 11s6p2d1f contracted to 5s3p2d1f pattern {62111/411/11/1}
 Group   2 Type C   : 11s6p2d1f contracted to 5s3p2d1f pattern {62111/411/11/1}
 Group   3 Type H   : 5s1p contracted to 3s1p pattern {311/1}
 Group   4 Type Mg  : 14s8p3d contracted to 5s4p3d pattern {73211/5111/111}

Atom   0N    basis set group =>   1
Atom   1N    basis set group =>   1
Atom   2N    basis set group =>   1
Atom   3N    basis set group =>   1
Atom   4C    basis set group =>   2
Atom   5C    basis set group =>   2
Atom   6C    basis set group =>   2
Atom   7C    basis set group =>   2
Atom   8C    basis set group =>   2
Atom   9C    basis set group =>   2
Atom  10C    basis set group =>   2
Atom  11C    basis set group =>   2
Atom  12C    basis set group =>   2
Atom  13C    basis set group =>   2
Atom  14C    basis set group =>   2
Atom  15C    basis set group =>   2
Atom  16C    basis set group =>   2
Atom  17C    basis set group =>   2
Atom  18C    basis set group =>   2
Atom  19C    basis set group =>   2
Atom  20C    basis set group =>   2
Atom  21C    basis set group =>   2
Atom  22C    basis set group =>   2
Atom  23C    basis set group =>   2
Atom  24H    basis set group =>   3
Atom  25H    basis set group =>   3
Atom  26H    basis set group =>   3
Atom  27H    basis set group =>   3
Atom  28H    basis set group =>   3
Atom  29H    basis set group =>   3
Atom  30H    basis set group =>   3
Atom  31H    basis set group =>   3
Atom  32H    basis set group =>   3
Atom  33H    basis set group =>   3
Atom  34H    basis set group =>   3
Atom  35H    basis set group =>   3
Atom  36H    basis set group =>   3
Atom  37H    basis set group =>   3
Atom  38H    basis set group =>   3
Atom  39H    basis set group =>   3
Atom  40Mg   basis set group =>   4
---------------------------------
AUXILIARY/J BASIS SET INFORMATION
---------------------------------
There are 4 groups of distinct atoms

 Group   1 Type N   : 12s5p4d2f1g contracted to 6s4p3d1f1g pattern {711111/2111/211/2/1}
 Group   2 Type C   : 12s5p4d2f1g contracted to 6s4p3d1f1g pattern {711111/2111/211/2/1}
 Group   3 Type H   : 5s2p1d contracted to 3s1p1d pattern {311/2/1}
 Group   4 Type Mg  : 14s5p5d2f1g contracted to 8s4p4d1f1g pattern {71111111/2111/2111/2/1}

Atom   0N    basis set group =>   1
Atom   1N    basis set group =>   1
Atom   2N    basis set group =>   1
Atom   3N    basis set group =>   1
Atom   4C    basis set group =>   2
Atom   5C    basis set group =>   2
Atom   6C    basis set group =>   2
Atom   7C    basis set group =>   2
Atom   8C    basis set group =>   2
Atom   9C    basis set group =>   2
Atom  10C    basis set group =>   2
Atom  11C    basis set group =>   2
Atom  12C    basis set group =>   2
Atom  13C    basis set group =>   2
Atom  14C    basis set group =>   2
Atom  15C    basis set group =>   2
Atom  16C    basis set group =>   2
Atom  17C    basis set group =>   2
Atom  18C    basis set group =>   2
Atom  19C    basis set group =>   2
Atom  20C    basis set group =>   2
Atom  21C    basis set group =>   2
Atom  22C    basis set group =>   2
Atom  23C    basis set group =>   2
Atom  24H    basis set group =>   3
Atom  25H    basis set group =>   3
Atom  26H    basis set group =>   3
Atom  27H    basis set group =>   3
Atom  28H    basis set group =>   3
Atom  29H    basis set group =>   3
Atom  30H    basis set group =>   3
Atom  31H    basis set group =>   3
Atom  32H    basis set group =>   3
Atom  33H    basis set group =>   3
Atom  34H    basis set group =>   3
Atom  35H    basis set group =>   3
Atom  36H    basis set group =>   3
Atom  37H    basis set group =>   3
Atom  38H    basis set group =>   3
Atom  39H    basis set group =>   3
Atom  40Mg   basis set group =>   4


           ************************************************************
           *        Program running with 4 parallel MPI-processes     *
           *              working on a common directory               *
           ************************************************************
------------------------------------------------------------------------------
                             ORCA STARTUP CALCULATIONS
                           -- RI-GTO INTEGRALS CHOSEN --
------------------------------------------------------------------------------
------------------------------------------------------------------------------
                   ___                                                        
                  /   \      - P O W E R E D   B Y -                         
                 /     \                                                     
                 |  |  |   _    _      __       _____    __    __             
                 |  |  |  | |  | |    /  \     |  _  \  |  |  /  |          
                  \  \/   | |  | |   /    \    | | | |  |  | /  /          
                 / \  \   | |__| |  /  /\  \   | |_| |  |  |/  /          
                |  |  |   |  __  | /  /__\  \  |    /   |      \           
                |  |  |   | |  | | |   __   |  |    \   |  |\   \          
                \     /   | |  | | |  |  |  |  | |\  \  |  | \   \       
                 \___/    |_|  |_| |__|  |__|  |_| \__\ |__|  \__/        
                                                                              
                      - O R C A' S   B I G   F R I E N D -                    
                                      &                                       
                       - I N T E G R A L  F E E D E R -                       
                                                                              
 v1 FN, 2020, v2 2021, v3 2022-2024                                           
------------------------------------------------------------------------------


----------------------
SHARK INTEGRAL PACKAGE
----------------------

Number of atoms                             ...     41
Number of basis functions                   ...    872
Number of shells                            ...    340
Maximum angular momentum                    ...      3
Integral batch strategy                     ... SHARK/LIBINT Hybrid
RI-J (if used) integral strategy            ... SPLIT-RIJ (Revised 2003 algorithm where possible)
Printlevel                                  ...      1
Contraction scheme used                     ... SEGMENTED contraction
Prescreening option                         ... SCHWARTZ
   Thresh                                   ... 2.500e-11
   Tcut                                     ... 2.500e-12
   Tpresel                                  ... 2.500e-12 
Coulomb Range Separation                    ... NOT USED
Exchange Range Separation                   ... NOT USED
Multipole approximations                    ... NOT USED
Finite Nucleus Model                        ... NOT USED
CABS basis                                  ... NOT available
Auxiliary Coulomb fitting basis             ... AVAILABLE
   # of basis functions in Aux-J            ...   1408
   # of shells in Aux-J                     ...    458
   Maximum angular momentum in Aux-J        ...      4
Auxiliary J/K fitting basis                 ... NOT available
Auxiliary Correlation fitting basis         ... NOT available
Auxiliary 'external' fitting basis          ... NOT available

Checking pre-screening integrals            ... done (  0.0 sec) Dimension = 340
   => SHARK Basis and OBASIS are compatible. Storing Pre-screening
Shell pair information
Shell pair cut-off parameter TPreSel        ...   2.5e-12
Total number of shell pairs                 ...     57970
Shell pairs after pre-screening             ...     40545
Total number of primitive shell pairs       ...    181512
Primitive shell pairs kept                  ...     83416
          la=0 lb=0:   9964 shell pairs
          la=1 lb=0:  11660 shell pairs
          la=1 lb=1:   3400 shell pairs
          la=2 lb=0:   5941 shell pairs
          la=2 lb=1:   3556 shell pairs
          la=2 lb=2:    970 shell pairs
          la=3 lb=0:   2548 shell pairs
          la=3 lb=1:   1556 shell pairs
          la=3 lb=2:    780 shell pairs
          la=3 lb=3:    170 shell pairs

Checking whether 4 symmetric matrices of dimension 872 fit in memory
:Max Core in MB      =   3000.00
 MB in use           =     52.70
 MB left             =   2947.30
 MB needed           =     11.62
 Data fit in memory  = YES
Calculating RI/J V-Matrix + Cholesky decomp.... done (  0.8 sec)
Calculating Nuclear repulsion               ... done (  0.0 sec) ENN=   2190.086224452672 Eh

Diagonalization of the overlap matrix:
Smallest eigenvalue                        ... 1.019e-05
Time for diagonalization                   ...    0.289 sec
Threshold for overlap eigenvalues          ... 1.000e-07
Number of eigenvalues below threshold      ... 0
Time for construction of square roots      ...    0.136 sec
Total time needed                          ...    0.436 sec

-------------------
DFT GRID GENERATION
-------------------

General Integration Accuracy     IntAcc      ... 4.959
Radial Grid Type                 RadialGrid  ... OptM3 with GC (2021)
Angular Grid (max. ang.)         AngularGrid ... 6 (Lebedev-590)
Angular grid pruning method      GridPruning ... 4 (adaptive)
Weight generation scheme         WeightScheme... mBecke (2022)
Basis function cutoff            BFCut       ... 1.0000e-11
Integration weight cutoff        WCut        ... 1.0000e-14
Partially contracted basis set               ... off
Rotationally invariant grid construction     ... off
Angular grids for H and He will be reduced by one unit

Total number of grid points                  ...   489901
Total number of batches                      ...     7676
Average number of points per batch           ...       63
Average number of grid points per atom       ...    11949

--------------------
COSX GRID GENERATION
--------------------

GRIDX 1
-------
General Integration Accuracy     IntAcc      ... 4.020
Radial Grid Type                 RadialGrid  ... OptM3 with GC (2021)
Angular Grid (max. ang.)         AngularGrid ... 2 (Lebedev-110)
Angular grid pruning method      GridPruning ... 4 (adaptive)
Weight generation scheme         WeightScheme... mBecke (2022)
Basis function cutoff            BFCut       ... 1.0000e-11
Integration weight cutoff        WCut        ... 1.0000e-14
Partially contracted basis set               ... on
Rotationally invariant grid construction     ... off
Angular grids for H and He will be reduced by one unit

Total number of grid points                  ...    55413
Total number of batches                      ...      455
Average number of points per batch           ...      121
Average number of grid points per atom       ...     1352
UseSFitting                                  ... on

GRIDX 2
-------
General Integration Accuracy     IntAcc      ... 4.338
Radial Grid Type                 RadialGrid  ... OptM3 with GC (2021)
Angular Grid (max. ang.)         AngularGrid ... 3 (Lebedev-194)
Angular grid pruning method      GridPruning ... 4 (adaptive)
Weight generation scheme         WeightScheme... mBecke (2022)
Basis function cutoff            BFCut       ... 1.0000e-11
Integration weight cutoff        WCut        ... 1.0000e-14
Partially contracted basis set               ... on
Rotationally invariant grid construction     ... off
Angular grids for H and He will be reduced by one unit

Total number of grid points                  ...   121895
Total number of batches                      ...      972
Average number of points per batch           ...      125
Average number of grid points per atom       ...     2973
UseSFitting                                  ... on

GRIDX 3
-------
General Integration Accuracy     IntAcc      ... 4.871
Radial Grid Type                 RadialGrid  ... OptM3 with GC (2021)
Angular Grid (max. ang.)         AngularGrid ... 4 (Lebedev-302)
Angular grid pruning method      GridPruning ... 4 (adaptive)
Weight generation scheme         WeightScheme... mBecke (2022)
Basis function cutoff            BFCut       ... 1.0000e-11
Integration weight cutoff        WCut        ... 1.0000e-14
Partially contracted basis set               ... on
Rotationally invariant grid construction     ... off
Angular grids for H and He will be reduced by one unit

Total number of grid points                  ...   225543
Total number of batches                      ...     1784
Average number of points per batch           ...      126
Average number of grid points per atom       ...     5501
UseSFitting                                  ... on
Grids setup in  33.6 sec
Initializing property integral containers    ... done (  0.0 sec)

SHARK setup successfully completed in  39.1 seconds

Maximum memory used throughout the entire STARTUP-calculation: 159.8 MB


           ************************************************************
           *        Program running with 4 parallel MPI-processes     *
           *              working on a common directory               *
           ************************************************************
-------------------------------------------------------------------------------
                                 ORCA GUESS
                   Start orbitals & Density for SCF / CASSCF
-------------------------------------------------------------------------------

------------
SCF SETTINGS
------------
Hamiltonian:
 Density Functional     Method          .... DFT(GTOs)
 Exchange Functional    Exchange        .... PBE
   PBE kappa parameter   XKappa         ....  0.804000
   PBE mue parameter    XMuePBE         ....  0.219520
 Correlation Functional Correlation     .... PBE
   PBE beta parameter  CBetaPBE         ....  0.066725
 LDA part of GGA corr.  LDAOpt          .... PW91-LDA
 Gradients option       PostSCFGGA      .... off
 Hybrid DFT is turned on
   Fraction HF Exchange ScalHFX         ....  0.250000
   Scaling of DF-GGA-X  ScalDFX         ....  0.750000
   Scaling of DF-GGA-C  ScalDFC         ....  1.000000
   Scaling of DF-LDA-C  ScalLDAC        ....  1.000000
   Perturbative correction              ....  0.000000
   NL short-range parameter             ....  6.900000
 RI-approximation to the Coulomb term is turned on
   Number of AuxJ basis functions       .... 1408
   RIJ-COSX (HFX calculated with COS-X)).... on


General Settings:
 Integral files         IntName         .... tddft
 Hartree-Fock type      HFTyp           .... RHF
 Total Charge           Charge          ....    0
 Multiplicity           Mult            ....    1
 Number of Electrons    NEL             ....  176
 Basis Dimension        Dim             ....  872
 Nuclear Repulsion      ENuc            ....   2190.0862244527 Eh

Convergence Acceleration:
 AO-DIIS                CNVDIIS         .... on
   Start iteration      DIISMaxIt       ....    12
   Startup error        DIISStart       ....  0.200000
   # of expansion vecs  DIISMaxEq       ....     5
   Bias factor          DIISBfac        ....   1.050
   Max. coefficient     DIISMaxC        ....  10.000
 MO-DIIS                CNVKDIIS        .... off
 Trust-Rad. Augm. Hess. CNVTRAH         .... auto
   Auto Start mean grad. ratio tolernc. ....  1.125000
   Auto Start start iteration           ....    50
   Auto Start num. interpolation iter.  ....    10
   Max. Number of Micro iterations      ....    24
   Max. Number of Macro iterations      .... Maxiter - #DIIS iter
   Number of Davidson start vectors     ....     2
   Converg. threshold    (grad. norm)   ....   1.000e-05
   Grad. Scal. Fac. for Micro threshold ....   0.100
   Minimum threshold for Micro iter.    ....   1.000e-02
   NR start threshold (gradient norm)   ....   1.000e-04
   Initial trust radius                 ....   0.400
   Minimum AH scaling param. (alpha)    ....   1.000
   Maximum AH scaling param. (alpha)    .... 1000.000
   Quad. conv. algorithm                .... NR
   White noise on init. David. guess    .... on
   Maximum white noise                  ....   0.010
   Pseudo random numbers                .... off
   Inactive MOs                         .... canonical
   Orbital update algorithm             .... Taylor
   Preconditioner                       .... Diag
   Full preconditioner red. dimension   ....   250
 SOSCF                 CNVSOSCF           .... on
   Start iteration     SOSCFMaxIt         ....   150
   Startup grad/error  SOSCFStart         ....  0.003300
   Hessian update      SOSCFHessUp        .... L-BFGS
   Autom. constraints  SOSCFAutoConstrain .... off
 Level Shifting         CNVShift        .... on
   Level shift para.    LevelShift      ....    0.2500
   Turn off err/grad.   ShiftErr        ....    0.0010
 Zerner damping         CNVZerner       .... off
 Static damping         CNVDamp         .... on
   Fraction old density DampFac         ....    0.7000
   Max. Damping (<1)    DampMax         ....    0.9800
   Min. Damping (>=0)   DampMin         ....    0.0000
   Turn off err/grad.   DampErr         ....    0.1000

SCF Procedure:
 Maximum # iterations   MaxIter         ....   125
 SCF integral mode      SCFMode         .... Direct
   Integral package                     .... SHARK and LIBINT hybrid scheme
 Reset frequency        DirectResetFreq ....    20
 Integral Threshold     Thresh          ....  2.500e-11 Eh
 Primitive CutOff       TCut            ....  2.500e-12 Eh

Convergence Tolerance:
 Convergence Check Mode ConvCheckMode   .... Total+1el-Energy
 Convergence forced     ConvForced      .... 1
 Energy Change          TolE            ....  1.000e-08 Eh
 1-El. energy change                    ....  1.000e-05 Eh
 Orbital Gradient       TolG            ....  1.000e-05
 Orbital Rotation angle TolX            ....  1.000e-05
 DIIS Error             TolErr          ....  5.000e-07

------------------------------
INITIAL GUESS: MODEL POTENTIAL
------------------------------
Loading Hartree-Fock densities                     ... done
Calculating cut-offs                               ... done
Initializing the effective Hamiltonian             ... done
Setting up the integral package (SHARK)            ... done
Starting the Coulomb interaction                   ... done (   2.9 sec)
Making the grid                                    ... done (   1.4 sec)
Mapping shells                                     ... done
Starting the XC term evaluation                    ... done (   3.2 sec)
  promolecular density results
     # of electrons  =    176.013752315
     EX              =   -149.316411799
     EC              =     -5.985031575
     EX+EC           =   -155.301443373
Transforming the Hamiltonian                       ... done (   0.2 sec)
Diagonalizing the Hamiltonian                      ... done (   0.3 sec)
Back transforming the eigenvectors                 ... done (   0.1 sec)
Now organizing SCF variables                       ... done
                      ------------------
                      INITIAL GUESS DONE (   8.1 sec)
                      ------------------
             **** ENERGY FILE WAS UPDATED (tddft.en.tmp) ****
Finished Guess after   8.8 sec
Maximum memory used throughout the entire GUESS-calculation: 88.7 MB


           ************************************************************
           *        Program running with 4 parallel MPI-processes     *
           *              working on a common directory               *
           ************************************************************

-------------------------------------------------------------------------------------------
                                      ORCA LEAN-SCF
                              memory conserving SCF solver
-------------------------------------------------------------------------------------------

--------------------
CPCM SOLVATION MODEL
--------------------
CPCM parameters:
  Epsilon                                         ...       8.9990
  Refrac                                          ...       1.4242
  Rsolv                                           ...       1.3000
  Surface type                                    ... GAUSSIAN VDW
  Discretization scheme                           ... Constant charge density
    Threshold for H atoms                         ...       5.0000 (charges/Ang^2)
    Threshold for non-H atoms                     ...       5.0000 (charges/Ang^2)
  Epsilon function type                           ...         CPCM
Solvent:                                          ... DICHLOROMETHANE
Radii:
  Scheme                                          ... Element-dependent radii
  Radius for N  used is    3.5149 Bohr (=   1.8600 Ang.)
  Radius for C  used is    3.8550 Bohr (=   2.0400 Ang.)
  Radius for H  used is    2.4944 Bohr (=   1.3200 Ang.)
  Radius for Mg used is    3.9231 Bohr (=   2.0760 Ang.)
Calculating surface                               ...        done! (  0.0s)
Cavity surface points                             ...         3647
Cavity Volume                                     ...    2544.6779
Cavity Surface-area                               ...    1209.7494
Calculating surface distance matrix               ...        done! (  0.4s)
Performing Cholesky decomposition & store         ...        done! (  1.0s)
Overall time for CPCM initialization              ...                 1.4s

----------------------------------------D-I-I-S--------------------------------------------
Iteration    Energy (Eh)           Delta-E    RMSDP     MaxDP     DIISErr   Damp  Time(sec)
-------------------------------------------------------------------------------------------
               ***  Starting incremental Fock matrix formation  ***
    1    -1189.5563289194137724     0.00e+00  1.66e-03  4.19e-02  2.30e-01  0.700 163.5
Warning: op=0 Small HOMO/LUMO gap (   0.087) - skipping pre-diagonalization
         Will do a full diagonalization
    2    -1189.7971994133818043    -2.41e-01  1.29e-03  2.71e-02  1.12e-01  0.700  69.8
                               ***Turning on AO-DIIS***
    3    -1189.9064937052157802    -1.09e-01  6.31e-04  1.01e-02  4.02e-02  0.700  93.5
    4    -1189.9698249490065791    -6.33e-02  1.24e-03  2.44e-02  2.50e-02  0.000  64.2
    5    -1190.1049287403502603    -1.35e-01  2.34e-04  4.62e-03  4.30e-03  0.000  66.1
                              *** Initializing SOSCF ***
---------------------------------------S-O-S-C-F--------------------------------------
Iteration    Energy (Eh)           Delta-E    RMSDP     MaxDP     MaxGrad    Time(sec)
--------------------------------------------------------------------------------------
    6    -1190.1055286068431087    -6.00e-04  1.14e-04  2.60e-03  2.50e-03    68.3
               *** Restarting incremental Fock matrix formation ***
    7    -1190.1055698978266264    -4.13e-05  8.28e-05  2.00e-03  3.60e-04   169.5
    8    -1190.1055752629476956    -5.37e-06  3.82e-05  8.91e-04  2.06e-04   120.1
    9    -1190.1055769108083950    -1.65e-06  2.55e-05  5.81e-04  1.26e-04   108.4
   10    -1190.1055776229900403    -7.12e-07  5.47e-06  1.48e-04  1.90e-05    93.2
   11    -1190.1055776910015993    -6.80e-08  5.33e-06  1.81e-04  1.48e-05    69.0
   12    -1190.1055776689618142     2.20e-08  7.27e-06  2.36e-04  4.83e-06    84.1
   13    -1190.1055776359603442     3.30e-08  2.45e-06  6.08e-05  5.07e-06    55.2
   14    -1190.1055776828115995    -4.69e-08  7.11e-06  3.86e-04  1.15e-06    56.1
                  *** Gradient check signals convergence ***

               *****************************************************
               *                     SUCCESS                       *
               *           SCF CONVERGED AFTER  14 CYCLES          *
               *****************************************************

Recomputing exchange energy using gridx3       ... done (  240.410 sec)
Old exchange energy                            :    -38.042669224 Eh
New exchange energy                            :    -38.042657944 Eh
Exchange energy change after final integration :      0.000011279 Eh
Total energy after final integration           :  -1190.105566316 Eh
             **** ENERGY FILE WAS UPDATED (tddft.en.tmp) ****

----------------
TOTAL SCF ENERGY
----------------

Total Energy       :      -1190.10556631572285 Eh          -32384.41885 eV

Components:
Nuclear Repulsion  :       2190.08622445267247 Eh           59595.27593 eV
Electronic Energy  :      -3380.17622575800488 Eh          -91979.27124 eV
One Electron Energy:      -5978.88970401316965 Eh         -162693.86004 eV
Two Electron Energy:       2598.71347825516477 Eh           70714.58880 eV
CPCM Dielectric    :         -0.01557628965901 Eh              -0.42385 eV

Virial components:
Potential Energy   :      -2374.71659046385867 Eh          -64619.32361 eV
Kinetic Energy     :       1184.61102414813558 Eh           32234.90476 eV
Virial Ratio       :          2.00463826695479

DFT components:
N(Alpha)           :       87.999996478252 electrons
N(Beta)            :       87.999996478252 electrons
N(Total)           :      175.999992956503 electrons
E(X)               :     -113.821360509254 Eh       
E(C)               :       -5.993231440399 Eh       
E(XC)              :     -119.814591949653 Eh       

CPCM Solvation Model Properties:
Surface-charge          :         -0.03847015243891
Corrected charge        :          0.00000000000000
Outlying charge corr.   :          0.00006986364582 Eh               0.00190 eV
Free-energy (cav+disp)  :  This term is not implemented in the current solvation scheme

---------------
SCF CONVERGENCE
---------------

  Last Energy change         ...    4.6851e-08  Tolerance :   1.0000e-08
  Last MAX-Density change    ...    3.8606e-04  Tolerance :   1.0000e-07
  Last RMS-Density change    ...    7.1079e-06  Tolerance :   5.0000e-09
  Last DIIS Error            ...    2.4951e-03  Tolerance :   5.0000e-07
  Last Orbital Gradient      ...    1.1464e-06  Tolerance :   1.0000e-05
  Last Orbital Rotation      ...    3.8806e-06  Tolerance :   1.0000e-05


----------------
ORBITAL ENERGIES
----------------

  NO   OCC          E(Eh)            E(eV) 
   0   2.0000     -46.876193     -1275.5661 
   1   2.0000     -14.393289      -391.6613 
   2   2.0000     -14.393285      -391.6612 
   3   2.0000     -14.367322      -390.9547 
   4   2.0000     -14.367312      -390.9544 
   5   2.0000     -10.262353      -279.2528 
   6   2.0000     -10.262345      -279.2526 
   7   2.0000     -10.262323      -279.2520 
   8   2.0000     -10.262315      -279.2518 
   9   2.0000     -10.251370      -278.9540 
  10   2.0000     -10.251357      -278.9536 
  11   2.0000     -10.251340      -278.9531 
  12   2.0000     -10.251327      -278.9528 
  13   2.0000     -10.223992      -278.2090 
  14   2.0000     -10.223988      -278.2089 
  15   2.0000     -10.223754      -278.2025 
  16   2.0000     -10.223750      -278.2024 
  17   2.0000     -10.218545      -278.0608 
  18   2.0000     -10.218541      -278.0606 
  19   2.0000     -10.218540      -278.0606 
  20   2.0000     -10.218536      -278.0605 
  21   2.0000     -10.215748      -277.9846 
  22   2.0000     -10.215725      -277.9840 
  23   2.0000     -10.215009      -277.9645 
  24   2.0000     -10.214985      -277.9639 
  25   2.0000      -3.098241       -84.3074 
  26   2.0000      -1.824994       -49.6606 
  27   2.0000      -1.819871       -49.5212 
  28   2.0000      -1.818908       -49.4950 
  29   2.0000      -0.988641       -26.9023 
  30   2.0000      -0.982878       -26.7455 
  31   2.0000      -0.975530       -26.5455 
  32   2.0000      -0.968875       -26.3644 
  33   2.0000      -0.836221       -22.7547 
  34   2.0000      -0.812585       -22.1116 
  35   2.0000      -0.804390       -21.8886 
  36   2.0000      -0.792429       -21.5631 
  37   2.0000      -0.790766       -21.5178 
  38   2.0000      -0.780654       -21.2427 
  39   2.0000      -0.780168       -21.2294 
  40   2.0000      -0.754360       -20.5272 
  41   2.0000      -0.738385       -20.0925 
  42   2.0000      -0.677775       -18.4432 
  43   2.0000      -0.670257       -18.2386 
  44   2.0000      -0.632963       -17.2238 
  45   2.0000      -0.613074       -16.6826 
  46   2.0000      -0.586195       -15.9512 
  47   2.0000      -0.585897       -15.9431 
  48   2.0000      -0.581820       -15.8321 
  49   2.0000      -0.571999       -15.5649 
  50   2.0000      -0.546498       -14.8710 
  51   2.0000      -0.534382       -14.5413 
  52   2.0000      -0.522312       -14.2128 
  53   2.0000      -0.517159       -14.0726 
  54   2.0000      -0.510505       -13.8915 
  55   2.0000      -0.499380       -13.5888 
  56   2.0000      -0.487798       -13.2737 
  57   2.0000      -0.485471       -13.2103 
  58   2.0000      -0.452593       -12.3157 
  59   2.0000      -0.448690       -12.2095 
  60   2.0000      -0.428928       -11.6717 
  61   2.0000      -0.427441       -11.6313 
  62   2.0000      -0.427397       -11.6301 
  63   2.0000      -0.415288       -11.3006 
  64   2.0000      -0.414487       -11.2788 
  65   2.0000      -0.412121       -11.2144 
  66   2.0000      -0.398484       -10.8433 
  67   2.0000      -0.389614       -10.6019 
  68   2.0000      -0.389070       -10.5871 
  69   2.0000      -0.385837       -10.4991 
  70   2.0000      -0.382955       -10.4207 
  71   2.0000      -0.376498       -10.2450 
  72   2.0000      -0.373265       -10.1571 
  73   2.0000      -0.371757       -10.1160 
  74   2.0000      -0.369097       -10.0436 
  75   2.0000      -0.369017       -10.0415 
  76   2.0000      -0.366341        -9.9686 
  77   2.0000      -0.361269        -9.8306 
  78   2.0000      -0.324719        -8.8361 
  79   2.0000      -0.321313        -8.7434 
  80   2.0000      -0.316848        -8.6219 
  81   2.0000      -0.295835        -8.0501 
  82   2.0000      -0.284678        -7.7465 
  83   2.0000      -0.270467        -7.3598 
  84   2.0000      -0.261062        -7.1039 
  85   2.0000      -0.252501        -6.8709 
  86   2.0000      -0.206365        -5.6155 
  87   2.0000      -0.175126        -4.7654 
  88   0.0000      -0.094319        -2.5665 
  89   0.0000      -0.036923        -1.0047 
  90   0.0000       0.012735         0.3465 
  91   0.0000       0.021806         0.5934 
  92   0.0000       0.023962         0.6520 
  93   0.0000       0.040822         1.1108 
  94   0.0000       0.042258         1.1499 
  95   0.0000       0.049177         1.3382 
  96   0.0000       0.066334         1.8050 
  97   0.0000       0.068812         1.8725 
  98   0.0000       0.077996         2.1224 
*Only the first 10 virtual orbitals were printed.

                    ********************************
                    * MULLIKEN POPULATION ANALYSIS *
                    ********************************

-----------------------
MULLIKEN ATOMIC CHARGES
-----------------------
   0 N :   -0.307164
   1 N :   -0.307003
   2 N :   -0.352100
   3 N :   -0.352047
   4 C :   -0.168505
   5 C :   -0.168665
   6 C :   -0.168554
   7 C :   -0.168490
   8 C :    0.197939
   9 C :    0.198085
  10 C :    0.198054
  11 C :    0.197979
  12 C :    0.324151
  13 C :    0.324179
  14 C :    0.324268
  15 C :    0.324169
  16 C :   -0.484249
  17 C :   -0.484275
  18 C :   -0.484316
  19 C :   -0.484350
  20 C :   -0.263833
  21 C :   -0.263728
  22 C :   -0.263885
  23 C :   -0.263580
  24 H :    0.119960
  25 H :    0.135390
  26 H :    0.119945
  27 H :    0.135435
  28 H :    0.135400
  29 H :    0.119972
  30 H :    0.135397
  31 H :    0.119975
  32 H :    0.145176
  33 H :    0.145178
  34 H :    0.145184
  35 H :    0.145180
  36 H :    0.145138
  37 H :    0.145166
  38 H :    0.145183
  39 H :    0.145184
  40 Mg:    0.713057
Sum of atomic charges:    0.0000000

--------------------------------
MULLIKEN REDUCED ORBITAL CHARGES
--------------------------------
  0 N s       :     3.654398  s :     3.654398
      pz      :     1.269704  p :     3.585813
      px      :     1.290883
      py      :     1.025227
      dz2     :     0.004322  d :     0.063326
      dxz     :     0.005806
      dyz     :     0.016467
      dx2y2   :     0.017777
      dxy     :     0.018955
      f0      :     0.000643  f :     0.003627
      f+1     :     0.000247
      f-1     :     0.000386
      f+2     :     0.000099
      f-2     :     0.000571
      f+3     :     0.000636
      f-3     :     0.001044

  1 N s       :     3.654369  s :     3.654369
      pz      :     1.269825  p :     3.585686
      px      :     1.290678
      py      :     1.025183
      dz2     :     0.004321  d :     0.063322
      dxz     :     0.005802
      dyz     :     0.016468
      dx2y2   :     0.017780
      dxy     :     0.018951
      f0      :     0.000643  f :     0.003627
      f+1     :     0.000247
      f-1     :     0.000386
      f+2     :     0.000099
      f-2     :     0.000571
      f+3     :     0.000636
      f-3     :     0.001044

  2 N s       :     3.647379  s :     3.647379
      pz      :     1.384730  p :     3.641720
      px      :     1.020899
      py      :     1.236092
      dz2     :     0.004450  d :     0.059361
      dxz     :     0.014319
      dyz     :     0.005576
      dx2y2   :     0.017273
      dxy     :     0.017743
      f0      :     0.000654  f :     0.003639
      f+1     :     0.000422
      f-1     :     0.000316
      f+2     :     0.000073
      f-2     :     0.000623
      f+3     :     0.000937
      f-3     :     0.000613

  3 N s       :     3.647364  s :     3.647364
      pz      :     1.385031  p :     3.641679
      px      :     1.020576
      py      :     1.236072
      dz2     :     0.004429  d :     0.059364
      dxz     :     0.014336
      dyz     :     0.005567
      dx2y2   :     0.017282
      dxy     :     0.017750
      f0      :     0.000655  f :     0.003639
      f+1     :     0.000421
      f-1     :     0.000316
      f+2     :     0.000072
      f-2     :     0.000622
      f+3     :     0.000939
      f-3     :     0.000614

  4 C s       :     3.113300  s :     3.113300
      pz      :     1.058161  p :     2.963974
      px      :     0.942533
      py      :     0.963279
      dz2     :     0.007382  d :     0.085457
      dxz     :     0.016791
      dyz     :     0.018012
      dx2y2   :     0.017891
      dxy     :     0.025380
      f0      :     0.000737  f :     0.005773
      f+1     :     0.000627
      f-1     :     0.000544
      f+2     :     0.000820
      f-2     :     0.000405
      f+3     :     0.001547
      f-3     :     0.001094

  5 C s       :     3.113539  s :     3.113539
      pz      :     1.058140  p :     2.963891
      px      :     0.942692
      py      :     0.963059
      dz2     :     0.007396  d :     0.085462
      dxz     :     0.016784
      dyz     :     0.018007
      dx2y2   :     0.017888
      dxy     :     0.025387
      f0      :     0.000738  f :     0.005773
      f+1     :     0.000627
      f-1     :     0.000542
      f+2     :     0.000819
      f-2     :     0.000406
      f+3     :     0.001549
      f-3     :     0.001092

  6 C s       :     3.113364  s :     3.113364
      pz      :     1.057974  p :     2.963955
      px      :     0.942895
      py      :     0.963086
      dz2     :     0.007215  d :     0.085462
      dxz     :     0.016960
      dyz     :     0.018053
      dx2y2   :     0.017887
      dxy     :     0.025347
      f0      :     0.000716  f :     0.005773
      f+1     :     0.000642
      f-1     :     0.000551
      f+2     :     0.000823
      f-2     :     0.000401
      f+3     :     0.001552
      f-3     :     0.001089

  7 C s       :     3.113311  s :     3.113311
      pz      :     1.057976  p :     2.963942
      px      :     0.942724
      py      :     0.963241
      dz2     :     0.007224  d :     0.085464
      dxz     :     0.016956
      dyz     :     0.018050
      dx2y2   :     0.017889
      dxy     :     0.025345
      f0      :     0.000716  f :     0.005773
      f+1     :     0.000641
      f-1     :     0.000553
      f+2     :     0.000824
      f-2     :     0.000400
      f+3     :     0.001550
      f-3     :     0.001090

  8 C s       :     3.140854  s :     3.140854
      pz      :     0.903693  p :     2.482114
      px      :     0.847407
      py      :     0.731014
      dz2     :     0.003593  d :     0.165085
      dxz     :     0.022651
      dyz     :     0.041890
      dx2y2   :     0.052416
      dxy     :     0.044533
      f0      :     0.001960  f :     0.014008
      f+1     :     0.000907
      f-1     :     0.000936
      f+2     :     0.001237
      f-2     :     0.001560
      f+3     :     0.002592
      f-3     :     0.004815

  9 C s       :     3.140839  s :     3.140839
      pz      :     0.903699  p :     2.481973
      px      :     0.846950
      py      :     0.731324
      dz2     :     0.003595  d :     0.165095
      dxz     :     0.022660
      dyz     :     0.041888
      dx2y2   :     0.052426
      dxy     :     0.044525
      f0      :     0.001960  f :     0.014008
      f+1     :     0.000908
      f-1     :     0.000936
      f+2     :     0.001235
      f-2     :     0.001563
      f+3     :     0.002604
      f-3     :     0.004803

 10 C s       :     3.140797  s :     3.140797
      pz      :     0.903816  p :     2.482060
      px      :     0.846883
      py      :     0.731362
      dz2     :     0.003435  d :     0.165080
      dxz     :     0.022730
      dyz     :     0.041874
      dx2y2   :     0.052509
      dxy     :     0.044532
      f0      :     0.001966  f :     0.014008
      f+1     :     0.000900
      f-1     :     0.000933
      f+2     :     0.001235
      f-2     :     0.001562
      f+3     :     0.002606
      f-3     :     0.004806

 11 C s       :     3.140852  s :     3.140852
      pz      :     0.903814  p :     2.482070
      px      :     0.847215
      py      :     0.731041
      dz2     :     0.003434  d :     0.165091
      dxz     :     0.022721
      dyz     :     0.041887
      dx2y2   :     0.052502
      dxy     :     0.044546
      f0      :     0.001966  f :     0.014009
      f+1     :     0.000900
      f-1     :     0.000934
      f+2     :     0.001238
      f-2     :     0.001560
      f+3     :     0.002594
      f-3     :     0.004818

 12 C s       :     3.102184  s :     3.102184
      pz      :     0.920910  p :     2.390666
      px      :     0.703245
      py      :     0.766512
      dz2     :     0.004061  d :     0.168581
      dxz     :     0.039830
      dyz     :     0.030965
      dx2y2   :     0.050604
      dxy     :     0.043121
      f0      :     0.002121  f :     0.014417
      f+1     :     0.001054
      f-1     :     0.000852
      f+2     :     0.000858
      f-2     :     0.002155
      f+3     :     0.004481
      f-3     :     0.002897

 13 C s       :     3.102096  s :     3.102096
      pz      :     0.920900  p :     2.390724
      px      :     0.703099
      py      :     0.766726
      dz2     :     0.004062  d :     0.168583
      dxz     :     0.039839
      dyz     :     0.030956
      dx2y2   :     0.050584
      dxy     :     0.043141
      f0      :     0.002120  f :     0.014417
      f+1     :     0.001055
      f-1     :     0.000852
      f+2     :     0.000862
      f-2     :     0.002151
      f+3     :     0.004495
      f-3     :     0.002882

 14 C s       :     3.102134  s :     3.102134
      pz      :     0.921101  p :     2.390591
      px      :     0.702834
      py      :     0.766656
      dz2     :     0.003974  d :     0.168588
      dxz     :     0.039947
      dyz     :     0.030942
      dx2y2   :     0.050575
      dxy     :     0.043150
      f0      :     0.002127  f :     0.014419
      f+1     :     0.001048
      f-1     :     0.000850
      f+2     :     0.000858
      f-2     :     0.002151
      f+3     :     0.004501
      f-3     :     0.002884

 15 C s       :     3.102183  s :     3.102183
      pz      :     0.921100  p :     2.390648
      px      :     0.702970
      py      :     0.766578
      dz2     :     0.003976  d :     0.168583
      dxz     :     0.039936
      dyz     :     0.030952
      dx2y2   :     0.050580
      dxy     :     0.043138
      f0      :     0.002127  f :     0.014418
      f+1     :     0.001047
      f-1     :     0.000850
      f+2     :     0.000854
      f-2     :     0.002155
      f+3     :     0.004486
      f-3     :     0.002898

 16 C s       :     3.394588  s :     3.394588
      pz      :     1.065360  p :     3.006424
      px      :     0.959798
      py      :     0.981265
      dz2     :     0.002475  d :     0.075955
      dxz     :     0.015441
      dyz     :     0.015888
      dx2y2   :     0.008455
      dxy     :     0.033697
      f0      :     0.001475  f :     0.007283
      f+1     :     0.000682
      f-1     :     0.000669
      f+2     :     0.000833
      f-2     :     0.000421
      f+3     :     0.001513
      f-3     :     0.001690

 17 C s       :     3.394589  s :     3.394589
      pz      :     1.065383  p :     3.006442
      px      :     0.959913
      py      :     0.981145
      dz2     :     0.002476  d :     0.075961
      dxz     :     0.015392
      dyz     :     0.015935
      dx2y2   :     0.008461
      dxy     :     0.033697
      f0      :     0.001475  f :     0.007283
      f+1     :     0.000682
      f-1     :     0.000669
      f+2     :     0.000833
      f-2     :     0.000421
      f+3     :     0.001519
      f-3     :     0.001684

 18 C s       :     3.394596  s :     3.394596
      pz      :     1.065590  p :     3.006493
      px      :     0.959682
      py      :     0.981221
      dz2     :     0.002457  d :     0.075944
      dxz     :     0.015419
      dyz     :     0.015915
      dx2y2   :     0.008444
      dxy     :     0.033709
      f0      :     0.001477  f :     0.007283
      f+1     :     0.000679
      f-1     :     0.000671
      f+2     :     0.000833
      f-2     :     0.000418
      f+3     :     0.001520
      f-3     :     0.001685

 19 C s       :     3.394617  s :     3.394617
      pz      :     1.065618  p :     3.006512
      px      :     0.959651
      py      :     0.981243
      dz2     :     0.002459  d :     0.075939
      dxz     :     0.015467
      dyz     :     0.015867
      dx2y2   :     0.008432
      dxy     :     0.033715
      f0      :     0.001477  f :     0.007283
      f+1     :     0.000679
      f-1     :     0.000671
      f+2     :     0.000833
      f-2     :     0.000418
      f+3     :     0.001514
      f-3     :     0.001691

 20 C s       :     3.280963  s :     3.280963
      pz      :     1.020972  p :     2.887684
      px      :     0.948940
      py      :     0.917772
      dz2     :     0.004995  d :     0.087449
      dxz     :     0.019731
      dyz     :     0.011193
      dx2y2   :     0.019061
      dxy     :     0.032469
      f0      :     0.001477  f :     0.007738
      f+1     :     0.000605
      f-1     :     0.000758
      f+2     :     0.001181
      f-2     :     0.000226
      f+3     :     0.001206
      f-3     :     0.002284

 21 C s       :     3.280783  s :     3.280783
      pz      :     1.020980  p :     2.887763
      px      :     0.948951
      py      :     0.917832
      dz2     :     0.004993  d :     0.087444
      dxz     :     0.019704
      dyz     :     0.011220
      dx2y2   :     0.019061
      dxy     :     0.032466
      f0      :     0.001477  f :     0.007738
      f+1     :     0.000606
      f-1     :     0.000757
      f+2     :     0.001185
      f-2     :     0.000223
      f+3     :     0.001209
      f-3     :     0.002281

 22 C s       :     3.280953  s :     3.280953
      pz      :     1.020975  p :     2.887747
      px      :     0.948922
      py      :     0.917851
      dz2     :     0.004960  d :     0.087447
      dxz     :     0.019736
      dyz     :     0.011200
      dx2y2   :     0.019064
      dxy     :     0.032486
      f0      :     0.001483  f :     0.007738
      f+1     :     0.000598
      f-1     :     0.000758
      f+2     :     0.001187
      f-2     :     0.000219
      f+3     :     0.001208
      f-3     :     0.002284

 23 C s       :     3.280693  s :     3.280693
      pz      :     1.020974  p :     2.887701
      px      :     0.948908
      py      :     0.917819
      dz2     :     0.004959  d :     0.087447
      dxz     :     0.019763
      dyz     :     0.011175
      dx2y2   :     0.019059
      dxy     :     0.032490
      f0      :     0.001483  f :     0.007738
      f+1     :     0.000598
      f-1     :     0.000759
      f+2     :     0.001184
      f-2     :     0.000222
      f+3     :     0.001206
      f-3     :     0.002286

 24 H s       :     0.858137  s :     0.858137
      pz      :     0.011288  p :     0.021903
      px      :     0.005735
      py      :     0.004880

 25 H s       :     0.842851  s :     0.842851
      pz      :     0.007876  p :     0.021760
      px      :     0.007194
      py      :     0.006691

 26 H s       :     0.858152  s :     0.858152
      pz      :     0.011292  p :     0.021903
      px      :     0.005736
      py      :     0.004876

 27 H s       :     0.842805  s :     0.842805
      pz      :     0.007871  p :     0.021760
      px      :     0.007207
      py      :     0.006682

 28 H s       :     0.842840  s :     0.842840
      pz      :     0.007970  p :     0.021760
      px      :     0.007109
      py      :     0.006680

 29 H s       :     0.858125  s :     0.858125
      pz      :     0.011194  p :     0.021903
      px      :     0.005831
      py      :     0.004878

 30 H s       :     0.842844  s :     0.842844
      pz      :     0.007968  p :     0.021760
      px      :     0.007101
      py      :     0.006691

 31 H s       :     0.858121  s :     0.858121
      pz      :     0.011197  p :     0.021903
      px      :     0.005826
      py      :     0.004881

 32 H s       :     0.832255  s :     0.832255
      pz      :     0.005501  p :     0.022569
      px      :     0.008369
      py      :     0.008699

 33 H s       :     0.832253  s :     0.832253
      pz      :     0.005501  p :     0.022569
      px      :     0.008388
      py      :     0.008679

 34 H s       :     0.832247  s :     0.832247
      pz      :     0.005497  p :     0.022569
      px      :     0.008394
      py      :     0.008679

 35 H s       :     0.832251  s :     0.832251
      pz      :     0.005497  p :     0.022570
      px      :     0.008374
      py      :     0.008699

 36 H s       :     0.832502  s :     0.832502
      pz      :     0.005025  p :     0.022359
      px      :     0.007354
      py      :     0.009980

 37 H s       :     0.832474  s :     0.832474
      pz      :     0.005025  p :     0.022359
      px      :     0.007373
      py      :     0.009962

 38 H s       :     0.832458  s :     0.832458
      pz      :     0.005023  p :     0.022359
      px      :     0.007377
      py      :     0.009959

 39 H s       :     0.832457  s :     0.832457
      pz      :     0.005023  p :     0.022359
      px      :     0.007359
      py      :     0.009977

 40 Mgs       :     4.571082  s :     4.571082
      pz      :     2.075274  p :     6.443630
      px      :     2.168876
      py      :     2.199481
      dz2     :     0.034719  d :     0.272230
      dxz     :     0.014842
      dyz     :     0.031852
      dx2y2   :     0.172734
      dxy     :     0.018083



                     *******************************
                     * LOEWDIN POPULATION ANALYSIS *
                     *******************************

----------------------
LOEWDIN ATOMIC CHARGES
----------------------
   0 N :    0.201374
   1 N :    0.201370
   2 N :    0.159115
   3 N :    0.159150
   4 C :   -0.196415
   5 C :   -0.196414
   6 C :   -0.196406
   7 C :   -0.196399
   8 C :   -0.203729
   9 C :   -0.203702
  10 C :   -0.203702
  11 C :   -0.203676
  12 C :   -0.217854
  13 C :   -0.217852
  14 C :   -0.217835
  15 C :   -0.217825
  16 C :   -0.129188
  17 C :   -0.129193
  18 C :   -0.129202
  19 C :   -0.129209
  20 C :   -0.136593
  21 C :   -0.136594
  22 C :   -0.136544
  23 C :   -0.136546
  24 H :    0.151793
  25 H :    0.148464
  26 H :    0.151806
  27 H :    0.148458
  28 H :    0.148464
  29 H :    0.151791
  30 H :    0.148468
  31 H :    0.151789
  32 H :    0.166517
  33 H :    0.166517
  34 H :    0.166525
  35 H :    0.166525
  36 H :    0.145490
  37 H :    0.145489
  38 H :    0.145491
  39 H :    0.145492
  40 Mg:    0.364789

-------------------------------
LOEWDIN REDUCED ORBITAL CHARGES
-------------------------------
  0 N s       :     2.978628  s :     2.978628
      pz      :     1.117235  p :     3.586626
      px      :     1.348170
      py      :     1.121221
      dz2     :     0.016476  d :     0.214778
      dxz     :     0.009597
      dyz     :     0.049544
      dx2y2   :     0.064885
      dxy     :     0.074275
      f0      :     0.001107  f :     0.018594
      f+1     :     0.000775
      f-1     :     0.001774
      f+2     :     0.000315
      f-2     :     0.003479
      f+3     :     0.003796
      f-3     :     0.007349

  1 N s       :     2.978596  s :     2.978596
      pz      :     1.117316  p :     3.586670
      px      :     1.348137
      py      :     1.121217
      dz2     :     0.016475  d :     0.214771
      dxz     :     0.009595
      dyz     :     0.049543
      dx2y2   :     0.064888
      dxy     :     0.074271
      f0      :     0.001107  f :     0.018593
      f+1     :     0.000775
      f-1     :     0.001774
      f+2     :     0.000314
      f-2     :     0.003479
      f+3     :     0.003795
      f-3     :     0.007348

  2 N s       :     2.976858  s :     2.976858
      pz      :     1.214555  p :     3.643343
      px      :     1.104000
      py      :     1.324788
      dz2     :     0.016197  d :     0.202339
      dxz     :     0.043974
      dyz     :     0.011541
      dx2y2   :     0.061553
      dxy     :     0.069072
      f0      :     0.001116  f :     0.018346
      f+1     :     0.001715
      f-1     :     0.000844
      f+2     :     0.000192
      f-2     :     0.003742
      f+3     :     0.006834
      f-3     :     0.003903

  3 N s       :     2.976803  s :     2.976803
      pz      :     1.214606  p :     3.643337
      px      :     1.103946
      py      :     1.324785
      dz2     :     0.016152  d :     0.202361
      dxz     :     0.043996
      dyz     :     0.011498
      dx2y2   :     0.061595
      dxy     :     0.069120
      f0      :     0.001115  f :     0.018349
      f+1     :     0.001718
      f-1     :     0.000840
      f+2     :     0.000186
      f-2     :     0.003744
      f+3     :     0.006842
      f-3     :     0.003905

  4 C s       :     2.766921  s :     2.766921
      pz      :     1.036176  p :     3.023885
      px      :     0.990480
      py      :     0.997229
      dz2     :     0.048401  d :     0.365546
      dxz     :     0.070079
      dyz     :     0.068606
      dx2y2   :     0.086654
      dxy     :     0.091806
      f0      :     0.004393  f :     0.040063
      f+1     :     0.003493
      f-1     :     0.003495
      f+2     :     0.005505
      f-2     :     0.004577
      f+3     :     0.011250
      f-3     :     0.007349

  5 C s       :     2.766916  s :     2.766916
      pz      :     1.036165  p :     3.023874
      px      :     0.990514
      py      :     0.997196
      dz2     :     0.048454  d :     0.365560
      dxz     :     0.070120
      dyz     :     0.068511
      dx2y2   :     0.086601
      dxy     :     0.091874
      f0      :     0.004397  f :     0.040064
      f+1     :     0.003491
      f-1     :     0.003493
      f+2     :     0.005504
      f-2     :     0.004579
      f+3     :     0.011261
      f-3     :     0.007338

  6 C s       :     2.766925  s :     2.766925
      pz      :     1.036233  p :     3.023878
      px      :     0.990452
      py      :     0.997192
      dz2     :     0.047393  d :     0.365540
      dxz     :     0.071060
      dyz     :     0.068863
      dx2y2   :     0.086690
      dxy     :     0.091534
      f0      :     0.004317  f :     0.040062
      f+1     :     0.003573
      f-1     :     0.003551
      f+2     :     0.005452
      f-2     :     0.004520
      f+3     :     0.011307
      f-3     :     0.007342

  7 C s       :     2.766925  s :     2.766925
      pz      :     1.036228  p :     3.023868
      px      :     0.990412
      py      :     0.997228
      dz2     :     0.047424  d :     0.365544
      dxz     :     0.070968
      dyz     :     0.068929
      dx2y2   :     0.086734
      dxy     :     0.091489
      f0      :     0.004318  f :     0.040062
      f+1     :     0.003570
      f-1     :     0.003552
      f+2     :     0.005455
      f-2     :     0.004518
      f+3     :     0.011296
      f-3     :     0.007352

  8 C s       :     2.712037  s :     2.712037
      pz      :     0.830186  p :     2.780182
      px      :     0.960951
      py      :     0.989045
      dz2     :     0.043013  d :     0.634142
      dxz     :     0.070669
      dyz     :     0.122219
      dx2y2   :     0.203887
      dxy     :     0.194354
      f0      :     0.005269  f :     0.077368
      f+1     :     0.004465
      f-1     :     0.006066
      f+2     :     0.006855
      f-2     :     0.010592
      f+3     :     0.015466
      f-3     :     0.028655

  9 C s       :     2.712031  s :     2.712031
      pz      :     0.830186  p :     2.780169
      px      :     0.960794
      py      :     0.989189
      dz2     :     0.043015  d :     0.634136
      dxz     :     0.070691
      dyz     :     0.122204
      dx2y2   :     0.203855
      dxy     :     0.194371
      f0      :     0.005269  f :     0.077366
      f+1     :     0.004469
      f-1     :     0.006063
      f+2     :     0.006843
      f-2     :     0.010604
      f+3     :     0.015537
      f-3     :     0.028582

 10 C s       :     2.712033  s :     2.712033
      pz      :     0.829970  p :     2.780159
      px      :     0.960986
      py      :     0.989203
      dz2     :     0.042736  d :     0.634144
      dxz     :     0.070795
      dyz     :     0.122140
      dx2y2   :     0.204047
      dxy     :     0.194426
      f0      :     0.005277  f :     0.077366
      f+1     :     0.004439
      f-1     :     0.006046
      f+2     :     0.006850
      f-2     :     0.010597
[...]
  0-1A  ->  1-1A    1.864838   15040.9   664.9   0.424328922   0.04362  -0.00020   0.20885   0.00001
  0-1A  ->  2-1A    2.471840   19936.7   501.6   0.101277893   0.01380  -0.11747  -0.00011  -0.00093
  0-1A  ->  3-1A    3.430122   27665.8   361.5   0.000038957   0.00001  -0.00037   0.00001  -0.00269
  0-1A  ->  4-1A    3.502203   28247.2   354.0   1.004812888   0.19398  -0.44042  -0.00041  -0.00344
  0-1A  ->  5-1A    3.677301   29659.4   337.2   0.280362961   0.05683  -0.23839  -0.00022  -0.00187
  0-1A  ->  6-1A    4.028432   32491.5   307.8   0.963977611   0.21406   0.00044  -0.46267  -0.00004
  0-1A  ->  7-1A    4.097568   33049.1   302.6   0.000218781   0.00005   0.00020  -0.00007  -0.00703
  0-1A  ->  8-1A    4.231989   34133.3   293.0   0.000000020   0.00000  -0.00006   0.00003  -0.00000
  0-1A  ->  9-1A    4.371588   35259.2   283.6   0.003479542   0.00084  -0.00003   0.02896  -0.00001
  0-1A  -> 10-1A    4.511137   36384.8   274.8   0.000000043   0.00000   0.00002   0.00010  -0.00000
  0-1A  -> 11-1A    4.616866   37237.5   268.5   0.000784744   0.00020   0.00007  -0.00012  -0.01413
  0-1A  -> 12-1A    4.738263   38216.7   261.7   0.000000002   0.00000   0.00002  -0.00000  -0.00001
  0-1A  -> 13-1A    5.001281   40338.1   247.9   0.000032910   0.00001  -0.00003  -0.00005   0.00301
  0-1A  -> 14-1A    5.036342   40620.8   246.2   0.000012874   0.00000  -0.00009  -0.00002   0.00189
  0-1A  -> 15-1A    5.078142   40958.0   244.2   0.000617407   0.00017   0.00012   0.00004  -0.01315
  0-1A  -> 16-1A    5.109614   41211.8   242.6   0.067566356   0.01903   0.00014  -0.13795  -0.00003
  0-1A  -> 17-1A    5.132812   41398.9   241.6   0.000001925   0.00000  -0.00000   0.00074  -0.00000
  0-1A  -> 18-1A    5.148110   41522.3   240.8   0.000000027   0.00000   0.00006  -0.00007  -0.00000
  0-1A  -> 19-1A    5.302545   42767.9   233.8   0.000040438   0.00001  -0.00344  -0.00009  -0.00002
  0-1A  -> 20-1A    5.318140   42893.7   233.1   0.036040190   0.01057   0.00010  -0.10279  -0.00001
  0-1A  -> 21-1A    5.413927   43666.3   229.0   0.331930077   0.09906  -0.00031   0.31474   0.00000
  0-1A  -> 22-1A    5.425034   43755.9   228.5   0.000001320   0.00000  -0.00003  -0.00063  -0.00000
  0-1A  -> 23-1A    5.496166   44329.6   225.6   0.000346178   0.00010   0.00006   0.00009  -0.01024
  0-1A  -> 24-1A    5.700278   45975.8   217.5   0.000000061   0.00000  -0.00001  -0.00014   0.00001
  0-1A  -> 25-1A    5.791827   46714.2   214.1   0.000000027   0.00000  -0.00004   0.00009  -0.00001
  0-1A  -> 26-1A    5.818435   46928.8   213.1   0.000013946   0.00000   0.00000  -0.00211   0.00000
  0-1A  -> 27-1A    5.861649   47277.4   211.5   0.000000046   0.00000  -0.00012   0.00003  -0.00002
  0-1A  -> 28-1A    5.869179   47338.1   211.2   0.003039907   0.00098   0.03136   0.00003   0.00022
  0-1A  -> 29-1A    5.877530   47405.5   210.9   0.027123106   0.00879  -0.09374  -0.00010  -0.00074
  0-1A  -> 30-1A    6.010005   48474.0   206.3   0.000425076   0.00014   0.00009  -0.00000  -0.01187

------------------------------------------------------------------------------------------
                     CD SPECTRUM VIA TRANSITION ELECTRIC DIPOLE MOMENTS    
------------------------------------------------------------------------------------------
     Transition      Energy     Energy  Wavelength    R        MX        MY        MZ   
                      (eV)      (cm-1)    (nm)   (1e40*cgs)   (au)      (au)      (au)  
------------------------------------------------------------------------------------------
  0-1A  ->  1-1A    1.864838   15040.9   664.9  -14.15873  -0.00000  -0.00987  -0.00018
  0-1A  ->  2-1A    2.471840   19936.7   501.6   -5.81623   0.00951   0.00002   0.00051
  0-1A  ->  3-1A    3.430122   27665.8   361.5   -1.32385  -0.00107   0.00005   0.13517
  0-1A  ->  4-1A    3.502203   28247.2   354.0  -48.91900   0.03021   0.00007  -0.00016
  0-1A  ->  5-1A    3.677301   29659.4   337.2  -24.12483   0.02902   0.00006   0.00008
  0-1A  ->  6-1A    4.028432   32491.5   307.8   -4.30842   0.00003   0.00293   0.00014
  0-1A  ->  7-1A    4.097568   33049.1   302.6   19.00686   0.00702  -0.00002  -0.90305
  0-1A  ->  8-1A    4.231989   34133.3   293.0    0.00000  -0.00001   0.00003  -0.00000
  0-1A  ->  9-1A    4.371588   35259.2   283.6   23.68924  -0.00027   0.28088   0.00002
  0-1A  -> 10-1A    4.511137   36384.8   274.8   -0.00003  -0.00001  -0.00010  -0.00004
  0-1A  -> 11-1A    4.616866   37237.5   268.5   48.44598   0.00951   0.00016  -1.21851
  0-1A  -> 12-1A    4.738263   38216.7   261.7   -0.00000  -0.00006  -0.00004  -0.00002
  0-1A  -> 13-1A    5.001281   40338.1   247.9    0.23923  -0.00033   0.00006   0.03765
  0-1A  -> 14-1A    5.036342   40620.8   246.2   -1.72324   0.00186  -0.00011  -0.24800
  0-1A  -> 15-1A    5.078142   40958.0   244.2   -1.99547  -0.00049  -0.00012   0.06822
  0-1A  -> 16-1A    5.109614   41211.8   242.6    0.35731   0.00000  -0.00103   0.00028
  0-1A  -> 17-1A    5.132812   41398.9   241.6   -0.00004   0.00003  -0.00002   0.00000
  0-1A  -> 18-1A    5.148110   41522.3   240.8    0.00001   0.00002  -0.00006  -0.00001
  0-1A  -> 19-1A    5.302545   42767.9   233.8    0.15477  -0.02652  -0.00001   0.00019
  0-1A  -> 20-1A    5.318140   42893.7   233.1   -2.24370  -0.00001   0.00895   0.00006
  0-1A  -> 21-1A    5.413927   43666.3   229.0    7.11999  -0.00004   0.00946  -0.00010
  0-1A  -> 22-1A    5.425034   43755.9   228.5   -0.00007  -0.00002   0.00005   0.00000
  0-1A  -> 23-1A    5.496166   44329.6   225.6   -5.16529  -0.00171  -0.00008   0.21591
  0-1A  -> 24-1A    5.700278   45975.8   217.5    0.00002   0.00009  -0.00005   0.00002
  0-1A  -> 25-1A    5.791827   46714.2   214.1   -0.00001  -0.00001  -0.00003   0.00006
  0-1A  -> 26-1A    5.818435   46928.8   213.1    1.33403   0.00013  -0.13072  -0.00014
  0-1A  -> 27-1A    5.861649   47277.4   211.5    0.00001  -0.00013  -0.00032  -0.00000
  0-1A  -> 28-1A    5.869179   47338.1   211.2  -14.00477  -0.20943  -0.00020  -0.00171
  0-1A  -> 29-1A    5.877530   47405.5   210.9   11.26458  -0.05660  -0.00007  -0.00054
  0-1A  -> 30-1A    6.010005   48474.0   206.3   -1.84412  -0.00047   0.00000   0.07202

------------------------------------------------------------------------------------------
                     CD SPECTRUM VIA TRANSITION VELOCITY DIPOLE MOMENTS    
------------------------------------------------------------------------------------------
     Transition      Energy     Energy  Wavelength    R        MX        MY        MZ   
                      (eV)      (cm-1)    (nm)   (1e40*cgs)   (au)      (au)      (au)  
------------------------------------------------------------------------------------------
  0-1A  ->  1-1A    1.864838   15040.9   664.9  -14.17836  -0.00000  -0.00987  -0.00018
  0-1A  ->  2-1A    2.471840   19936.7   501.6   -5.79897   0.00951   0.00002   0.00051
  0-1A  ->  3-1A    3.430122   27665.8   361.5   -1.35797  -0.00107   0.00005   0.13517
  0-1A  ->  4-1A    3.502203   28247.2   354.0  -48.72881   0.03021   0.00007  -0.00016
  0-1A  ->  5-1A    3.677301   29659.4   337.2  -24.13540   0.02902   0.00006   0.00008
  0-1A  ->  6-1A    4.028432   32491.5   307.8   -4.31986   0.00003   0.00293   0.00014
  0-1A  ->  7-1A    4.097568   33049.1   302.6   19.87014   0.00702  -0.00002  -0.90305
  0-1A  ->  8-1A    4.231989   34133.3   293.0    0.00000  -0.00001   0.00003  -0.00000
  0-1A  ->  9-1A    4.371588   35259.2   283.6   23.86838  -0.00027   0.28088   0.00002
  0-1A  -> 10-1A    4.511137   36384.8   274.8   -0.00003  -0.00001  -0.00010  -0.00004
  0-1A  -> 11-1A    4.616866   37237.5   268.5   47.84864   0.00951   0.00016  -1.21851
  0-1A  -> 12-1A    4.738263   38216.7   261.7   -0.00000  -0.00006  -0.00004  -0.00002
  0-1A  -> 13-1A    5.001281   40338.1   247.9    0.29084  -0.00033   0.00006   0.03765
  0-1A  -> 14-1A    5.036342   40620.8   246.2   -1.19318   0.00186  -0.00011  -0.24800
  0-1A  -> 15-1A    5.078142   40958.0   244.2   -2.26588  -0.00049  -0.00012   0.06822
  0-1A  -> 16-1A    5.109614   41211.8   242.6    0.35629   0.00000  -0.00103   0.00028
  0-1A  -> 17-1A    5.132812   41398.9   241.6   -0.00004   0.00003  -0.00002   0.00000
  0-1A  -> 18-1A    5.148110   41522.3   240.8    0.00001   0.00002  -0.00006  -0.00001
  0-1A  -> 19-1A    5.302545   42767.9   233.8    0.22048  -0.02652  -0.00001   0.00019
  0-1A  -> 20-1A    5.318140   42893.7   233.1   -2.22011  -0.00001   0.00895   0.00006
  0-1A  -> 21-1A    5.413927   43666.3   229.0    7.05224  -0.00004   0.00946  -0.00010
  0-1A  -> 22-1A    5.425034   43755.9   228.5   -0.00007  -0.00002   0.00005   0.00000
  0-1A  -> 23-1A    5.496166   44329.6   225.6   -5.16105  -0.00171  -0.00008   0.21591
  0-1A  -> 24-1A    5.700278   45975.8   217.5    0.00002   0.00009  -0.00005   0.00002
  0-1A  -> 25-1A    5.791827   46714.2   214.1   -0.00001  -0.00001  -0.00003   0.00006
  0-1A  -> 26-1A    5.818435   46928.8   213.1    0.60955   0.00013  -0.13072  -0.00014
  0-1A  -> 27-1A    5.861649   47277.4   211.5    0.00001  -0.00013  -0.00032  -0.00000
  0-1A  -> 28-1A    5.869179   47338.1   211.2  -14.35641  -0.20943  -0.00020  -0.00171
  0-1A  -> 29-1A    5.877530   47405.5   210.9   11.58066  -0.05660  -0.00007  -0.00054
  0-1A  -> 30-1A    6.010005   48474.0   206.3   -1.82430  -0.00047   0.00000   0.07202

Total run time:     5123.047 sec

           *** ORCA-CIS/TD-DFT FINISHED WITHOUT ERROR ***
-----------------------
CIS/TD-DFT TOTAL ENERGY
-----------------------

    E(SCF)  =  -1190.105566316 Eh
    DE(CIS) =      0.068531538 Eh (Root  1)
    ----------------------------- ---------
    E(tot)  =  -1190.037034778 Eh


Maximum memory used throughout the entire CIS-calculation: 2721.1 MB
=> NOW LEAVING ORCA_CIS

-------------------------   --------------------
FINAL SINGLE POINT ENERGY     -1190.037034777878
-------------------------   --------------------



           ************************************************************
           *        Program running with 4 parallel MPI-processes     *
           *              working on a common directory               *
           ************************************************************

------------------------------------------------------------------------------
                              ORCA PROPERTY CALCULATIONS
------------------------------------------------------------------------------

GBWName                                 ... tddft.gbw
Number of atoms                         ...     41
Number of basis functions               ...    872
Max core memory                         ...   3000 MB

Electric properties:
Dipole moment                           ... YES
Quadrupole moment                       ...  NO
Static polarizability (Dipole/Dipole)   ...  NO
Static polarizability (Dipole/Quad.)    ...  NO
Static polarizability (Quad./Quad.)     ...  NO
Static polarizability (Velocity)        ...  NO
Static hyperpolarizability              ...  NO

Atomic electric properties:
Dipole moment                           ...  NO
Quadrupole moment                       ...  NO
Static polarizability                   ...  NO

Choice of electric origin               ... Center of mass
Position of electric origin             ...    -0.003613    -0.019229     0.068836

General magnetic properties:
Magnetizability                         ...  NO

EPR properties:
g-Tensor (aka g-matrix)                 ...  NO
Zero-Field splitting spin-orbit         ...  NO
Zero-field splitting spin-spin          ...  NO
Hyperfine couplings                     ...  NO (   0 nuclei)
Quadrupole couplings                    ...  NO (   0 nuclei)
Contact density                         ...  NO (   0 nuclei)

NMR properties:
Chemical shifts                         ...  NO (   0 nuclei)
Spin-rotation constants                 ...  NO (   0 nuclei)
Spin-spin couplings                     ...  NO (   0 nuclei,    0 pairs)

Choice of magnetic origin               ... GIAO
Position of magnetic origin             ...     0.000000     0.000000     0.000000

Properties with geometric perturbations:
SCF Hessian                             ...  NO
IR spectrum                             ...  NO
VCD spectrum                            ...  NO
X-ray spectroscopy properties:
SCF XES/XAS/RIXS spectra                ...  NO

SCF SOC stabilization energy            ...  NO
Diagonal Born-Oppenheimer correction    ...  NO

-------------
DIPOLE MOMENT
-------------

Method             : SCF
Type of density    : Electron Density
Multiplicity       :   1
Irrep              :   0
Energy             : -1190.1055663157228537 Eh
Basis              : AO
                                X                 Y                 Z
Electronic contribution:      0.000960844       0.001249611      -0.000405984
Nuclear contribution   :     -0.000660183       0.000201001       0.000373176
                        -----------------------------------------
Total Dipole Moment    :      0.000300661       0.001450613      -0.000032807
                        -----------------------------------------
Magnitude (a.u.)       :      0.001481807
Magnitude (Debye)      :      0.003766453



--------------------
Rotational spectrum 
--------------------
 
Rotational constants in cm-1:             0.008915             0.008207             0.004290 
Rotational constants in MHz :           267.260438           246.047427           128.597541 

Dipole components along the rotational axes: 
x,y,z [a.u.] :     0.000302    -0.001450    -0.000035 
x,y,z [Debye]:     0.000767    -0.003686    -0.000090 

 

Dipole moment calculation done in   0.0 sec 

Maximum memory used throughout the entire PROP-calculation: 90.9 MB

--------------------------------
SUGGESTED CITATIONS FOR THIS RUN
--------------------------------

Below you find a list of papers that are relevant to this ORCA run
We neither can nor want to force you to cite these papers, but we appreciate if you do
You receive ORCA, which is the product of decades of hard work by many enthusiastic individuals, for free
The only thing we kindly ask in return is that you cite our papers,
We deeply appreciate it, if you show your appreciation for ORCA by not just citing the generic ORCA reference.

Please note that relegating all ORCA citations to the supporting information does *not* help us.
SI sections are not indexed - citations you put there will not count into any citation statistics
But we need these citations in order to attract the funding resources that allow us to do what we are doing

Therefore, if you are a happy ORCA user, please consider citing a few of the papers listed below in the main body of your paper

In addition to the list printed below, the program has created the file tddft.bibtex that contains the list in bibtex format
You can import this file easily into all common literature databanks and citation aid programs

It goes without saying that in many instances, there are alternative algorithms to achieve similar
results as the ones you have gotten from ORCA. It is, of course, also the case that in some instances
ORCA just re-implements algorithms worked out by others. We are fully aware of that and we are also
fully appreciative of our colleagues work. Hence this citation list should not be read as indicating
that the listed papers, which are focused on our own work, are the only ones worth citing. It simply
meant to make it easier for users to cite ORCA specific papers. It is not a substitute for doing your
own literature research and citing the relevant literature in a scientifically appropriate manner.

List of essential papers. We consider these as the minimum necessary citations

  1. Neese, F.
     Software update: the ORCA program system, version 6.0
     WIRES Comput. Molec. Sci. 2025 15(1), e70019
     doi.org/10.1002/wcms.70019

List of papers to cite with high priority. The work reported in these papers was absolutely
necessary for this run to complete.
Our perspective: the developers of density functionals and basis sets usually get cited in chemistry papers
Good! But without the algorithms to do something with them, the functionals or basis sets would not do anything.
Hence, in our opinion, the algorithm design and method developments papers are equally worthy of getting cited

  1. Neese, F.; Olbrich, G.
     Efficient use of the resolution of the identity approximation in time-dependent density functional calculations with hybrid density functionals
     Chem. Phys. Lett. 2002 362 , 170-178
     doi.org/10.1016/s0009-2614(02)01053-9
  2. Neese, F.
     An improvement of the resolution of the identity approximation for the formation of the Coulomb matrix
     J. Comp. Chem. 2003 24(14), 1740-1747
     doi.org/10.1002/jcc.10318
  3. Neese, F.; Wennmohs, F.; Hansen, A.; Becker, U.
     Efficient, approximate and parallel Hartree-Fock and hybrid DFT calculations. A 'chain-of-spheres' algorithm for the Hartree-Fock exchange
     Chem. Phys. 2009 356(1-3), 98-109
     doi.org/10.1016/j.chemphys.2008.10.036
  4. Garcia-Rates, M.; Neese, F.
     Effect of the Solute Cavity on the Solvation Energy and its Derivatives within the Framework of the Gaussian Charge Scheme
     J. Comput. Chem. 2020 41 , 922-939
     doi.org/10.1002/jcc.26139
  5. Helmich-Paris, B.; de Souza, B.; Neese, F.; Izsák, R.
     An improved chain of spheres for exchange algorithm
     J. Chem. Phys. 2021 155(10), 104109
     doi.org/10.1063/5.0058766
  6. Neese, F.
     The SHARK Integral Generation and Digestion System
     J. Comp. Chem. 2022 44(3), 381
     doi.org/10.1002/jcc.26942

List of suggested additional citations. These are papers that are important in the 'surrounding' of 
of this run, or papers that preceded the highly important papers. If you like your results we are grateful for a citation.

  1. Izsak, R.; Neese, F.
     An overlap fitted chain of spheres exchange method
     J. Chem. Phys. 2011 135 , 144105
     doi.org/10.1063/1.3646921
  2. Izsak, R.; Hansen, A.; Neese, F.
     The resolution of identity and chain of spheres approximations for the LPNO-CCSD singles Fock term
     Molec. Phys. 2012 110 , 2413-2417
     doi.org/10.1080/00268976.2012.687466
  3. Neese, F.
     The ORCA program system
     WIRES Comput. Molec. Sci. 2012 2(1), 73-78
     doi.org/10.1002/wcms.81
  4. Izsak, R.; Neese, F.; Klopper, W.
     Robust fitting techniques in the chain of spheres approximation to the Fock exchange: The role of the complementary space
     J. Chem. Phys. 2013 139 , 
     doi.org/10.1063/1.4819264
  5. Neese, F.
     Software update: the ORCA program system, version 4.0
     WIRES Comput. Molec. Sci. 2018 8(1), 1-6
     doi.org/10.1002/wcms.1327
  6. Neese, F.; Wennmohs, F.; Becker, U.; Riplinger, C.
     The ORCA quantum chemistry program package
     J. Chem. Phys. 2020 152(22), 224108
     doi.org/10.1063/5.0004608
  7. Neese, F.
     Software update: The ORCA program system—Version 5.0
     WIRES Comput. Molec. Sci. 2022 12(1), e1606
     doi.org/10.1002/wcms.1606

List of optional additional citations

  1. Neese, F.
     Approximate second-order SCF convergence for spin unrestricted wavefunctions
     Chem. Phys. Lett. 2000 325(1-3), 93-98
     doi.org/10.1016/s0009-2614(00)00662-x

Timings for individual modules:

Sum of individual times          ...     6757.710 sec (= 112.629 min)
Startup calculation              ...       39.659 sec (=   0.661 min)   0.6 %
SCF iterations                   ...     1592.790 sec (=  26.547 min)  23.6 %
Property integrals               ...        1.234 sec (=   0.021 min)   0.0 %
Property calculations            ...        0.604 sec (=   0.010 min)   0.0 %
CIS module                       ...     5123.422 sec (=  85.390 min)  75.8 %
                             ****ORCA TERMINATED NORMALLY****
TOTAL RUN TIME: 0 days 1 hours 52 minutes 38 seconds 152 msec
