
                                 *****************
                                 * O   R   C   A *
                                 *****************

                                            #,                                       
                                            ###                                      
                                            ####                                     
                                            #####                                    
                                            ######                                   
                                           ########,                                 
                                     ,,################,,,,,                         
                               ,,#################################,,                 
                          ,,##########################################,,             
                       ,#########################################, ''#####,          
                    ,#############################################,,   '####,        
                  ,##################################################,,,,####,       
                ,###########''''           ''''###############################       
              ,#####''   ,,,,##########,,,,          '''####'''          '####       
            ,##' ,,,,###########################,,,                        '##       
           ' ,,###''''                  '''############,,,                           
         ,,##''                                '''############,,,,        ,,,,,,###''
      ,#''                                            '''#######################'''  
     '                                                          ''''####''''         
             ,#######,   #######,   ,#######,      ##                                
            ,#'     '#,  ##    ##  ,#'     '#,    #''#        ,####,    ,#,          
            ##       ##  ##   ,#'  ##            #'  '#       #'       ,# #          
            ##       ##  #######   ##           ,######,      #####,      #          
            '#,     ,#'  ##    ##  '#,     ,#' ,#      #,     #,   #      #          
             '#######'   ##     ##  '#######'  #'      '#     '####' #    #          



                #########################################################
                #                        -***-                          #
                #          Department of theory and spectroscopy        #
                #                                                       #
                #                      Frank Neese                      #
                #                                                       #
                #     Directorship, Architecture, Infrastructure        #
                #                    SHARK, DRIVERS                     #
                #        Core code/Algorithms in most modules           #
                #                                                       #
                #        Max Planck Institute fuer Kohlenforschung      #
                #                Kaiser Wilhelm Platz 1                 #
                #                 D-45470 Muelheim/Ruhr                 #
                #                      Germany                          #
                #                                                       #
                #                  All rights reserved                  #
                #                        -***-                          #
                #########################################################


                         Program Version 6.1.1  -  RELEASE   -
                                (GIT: $487d211c$)
                          ($2025-11-21 10:33:24 +0100$)


 With contributions from (in alphabetic order):
[Max-Planck-Institut fuer Kohlenforschung]                               
  Daniel Aravena         : Magnetic Suceptibility                        
  Michael Atanasov       : Ab Initio Ligand Field Theory (pilot matlab implementation)
  Alexander A. Auer      : GIAO ZORA, VPT2 properties, NMR spectrum      
  Ute Becker             : All parallelization in ORCA, NUMFREQ, NUMCALC 
  Giovanni Bistoni       : ED, misc. LED, open-shell LED, HFLD           
  Dmytro Bykov           : pre 5.0 version of the SCF Hessian            
  Marcos Casanova-Páez   : Triplet and SCS-CIS(D). UHF-(DLPNO)-IP/EA/STEOM-CCSD. UHF-CVS-IP/STEOM-CCSD   
  Vijay G. Chilkuri      : MRCI spin determinant printing, contributions to CSF-ICE 
  Pauline Colinet        : FMM embedding                                 
  Dipayan Datta          : RHF DLPNO-CCSD density                        
  Achintya Kumar Dutta   : EOM-CC, STEOM-CC                              
  Nicolas Foglia         : Exact transition moments, OPA infrastructure, MCD improvements    
  Dmitry Ganyushin       : Spin-Orbit,Spin-Spin,Magnetic field MRCI      
  Miquel Garcia-Rates    : C-PCM and meta-GGA Hessian, CCSD/C-PCM, Gaussian charge scheme 
  Tiago L. C. Gouveia    : GS-ROHF, GS-ROCIS                             
  Yang Guo               : DLPNO-NEVPT2, F12-NEVPT2, CIM, IAO-localization        
  Andreas Hansen         : Spin unrestricted coupled pair/coupled cluster methods 
  Ingolf Harden          : AUTO-CI MPn and infrastructure                
  Benjamin Helmich-Paris : MC-RPA, TRAH-(SCF,CASSCF), AVAS, COSX integrals, SCF dyn. polar., MC-PDFT, srDFT 
  Lee Huntington         : MR-EOM, pCC                                   
  Robert Izsak           : Overlap fitted RIJCOSX, COSX-SCS-MP3, EOM     
  Riya Kayal             : Wick's Theorem for AUTO-CI, AUTO-CI UHF-CCSDT 
  Emily Kempfer          : AUTO-CI RHF CISDT and CCSDT, approximate NEVPT4
  Christian Kollmar      : KDIIS, OOCD, Brueckner-CCSD(T), CCSD density, CASPT2, CASPT2-K, improved NEVPT2 
  Axel Koslowski         : Symmetry handling                             
  Simone Kossmann        : meta-GGA functionals, TD-DFT gradient, OOMP2, (MP2 Hessian; deprecated post 5.0) 
  Lucas Lang             : DCDCAS, Hyperfine gauge corrections, ICE-SOC+SSC
  Marvin Lechner         : AUTO-CI (C++ implementation), FIC-MRCC        
  Spencer Leger          : CASSCF response                               
  Dagmar Lenk            : GEPOL surface, SMD, ORCA-2-JSON               
  Dimitrios Liakos       : Extrapolation schemes; Compound Job, Property file
  Dimitrios Manganas     : Further ROCIS development; embedding schemes. LFT, Crystal Embedding 
  Dimitrios Pantazis     : SARC Basis sets                               
  Anastasios Papadopoulos: AUTO-CI, single reference methods and gradients 
  Taras Petrenko         : pre 6.0 DFT Hessian and TD-DFT gradient,  ECA, NRVS 
  Petra Pikulova         : Analytic Raman intensities                    
  Peter Pinski           : DLPNO-MP2, DLPNO-MP2 Gradient                 
  Shashank Vittal Rao    : ES-AILFT, MagRelax                            
  Christoph Reimann      : Effective Core Potentials                     
  Marius Retegan         : Local ZFS, SOC                                
  Christoph Riplinger    : Optimizer, TS searches, QM/MM, DLPNO-CCSD(T), (RO)-DLPNO pert. Triples 
  Michael Roemelt        : Original ROCIS implementation, recursive CI coupling coefficients
  Masaaki Saitow         : Open-shell DLPNO-CCSD energy and density      
  Barbara Sandhoefer     : DKH picture change effects                    
  Yorick L. A. Schmerwitz: GMF and freeze-and-release deltaSCF, NEB S-IDPP initial path                    
  Kantharuban Sivalingam : CASSCF convergence/infrastructure, NEVPT2, NEVPT3, NEVPT4(SD), FIC-MRCI and CEPA variants
  Bernardo de Souza      : ESD, SOC TD-DFT                               
  Georgi L. Stoychev     : AutoAux, RI-MP2 NMR, DLPNO-MP2 response, X2C  
  Van Anh Tran           : RI-MP2 g-tensors                              
  Willem Van den Heuvel  : Paramagnetic NMR                              
  Zikuan Wang            : NOTCH, Electric field optimization            
  Frank Wennmohs         : Technical directorship and infrastructure     
  Hang Xu                : AUTO-CI-Response properties                   
                                                                         
[FACCTs GmbH]                                                            
  Markus Bursch, Nicolas Foglia, Miquel Garcia-Rates, Ingolf Harden, Hagen Neugebauer, Anastasios Papadopoulos, 
  Christoph Riplinger, Bernardo de Souza, Georgi L. Stoychev                                                    
                                                                 
  APM, various basis sets, CI-OPT, improved COSX, DLPNO-Multilevel,           
  DOCKER, DRACO, updates on ESD, Fragmentator, GOAT, IRC, LR-CPCM, L-BFGS, MBIS, meta-GGA TD-DFT gradient, ML-optimized integration grids, 
  MM, NACMEs, nearIR, NEB, NEB-TS, NL-DFT gradient (VV10), 2- and 3-layer-ONIOM, interface openCOSMO-RS, QMMM,   
  Crystal-QMMM, RESP, rigid body optimization, SF, symmetry and pop. for TD-DFT, various functionals, SOLVATOR                                   
                                                                         
[Other institutions]                                                     
  V. Asgeirsson          : NEB                                           
  Christoph Bannwarth    : sTDA-DFT, sTD-DFT, PBEh-3c, B97-3c, D3        
  Giovanni Bistoni       : ETS/NOCV, ADLD/ADEX, COVALED                  
  Martin Brehm           : Molecular dynamics                            
  Ronald Cardenas        : ETS/NOCV                                      
  Martina Colucci        : COVALED                                       
  Sebastian Ehlert       : rSCAN, r2SCAN, r2SCAN-3c, D4, dhf basis sets  
  Marvin Friede          : D4 for Fr, Ra, Ac-Lr                          
  Lars Goerigk           : TD-DFT with DH, B97 family of functionals     
  Stefan Grimme          : VdW corrections, initial TS optimization, DFT functionals, gCP, sTDA/sTD-DF 
  Waldemar Hujo          : DFT-NL                                        
  H. Jonsson             : NEB                                           
  Holger Kruse           : gCP                                           
  Marcel Mueller         : wB97X-3c, vDZP basis set                      
  Hagen Neugebauer       : wr2SCAN, Native XTB                           
  Gianluca Regni         : ADLD/ADEX                                     
  Tobias Risthaus        : pre 6.0 range-separated hybrid DFT and stability analysis
  Lukas Wittmann         : regularized MP2, r2SCAN double-hybrids, wr2SCAN        
                                                                         
We gratefully acknowledge several colleagues who have allowed us to      
interface, adapt or use parts of their codes:                            
  Ed Valeev, F. Pavosevic, A. Kumar             : LibInt (2-el integral package), F12 methods 
  Garnet Chan, S. Sharma, J. Yang, R. Olivares  : DMRG                   
  Ulf Ekstrom                                   : XCFun DFT Library      
  Mihaly Kallay                                 : mrcc  (arbitrary order and MRCC methods)
  Frank Weinhold                                : gennbo (NPA and NBO analysis)           
  Simon Mueller                                 : openCOSMO-RS                            
  Christopher J. Cramer and Donald G. Truhlar   : smd solvation model                     
  S Lehtola, MJT Oliveira, MAL Marques          : LibXC Library                           
  Liviu Ungur et al                             : ANISO software                          


 Your calculation uses the libint2 library for the computation of 2-el integrals
 For citations please refer to: http://libint.valeyev.net

 Your ORCA version has been built with support for libXC version: 7.0.0
 For citations please refer to: https://libxc.gitlab.io

 This ORCA versions uses:
   CBLAS   interface :  Fast vector & matrix operations
   LAPACKE interface :  Fast linear algebra routines
   SCALAPACK package :  Parallel linear algebra routines
   Shared memory     :  Shared parallel matrices
   BLAS/LAPACK       :  OpenBLAS 0.3.29  USE64BITINT DYNAMIC_ARCH NO_AFFINITY Haswell SINGLE_THREADED
        Core in use  :  Haswell
   Copyright (c) 2011-2014, The OpenBLAS Project


  ***********************************
  * Starting time: Sun Jul  5 22:56:41 2026
  * Host name:     steezy
  * Process ID:    1307752
  * Working dir.:  /home/jannes/chlorophyll-ladder/007-mg-core-ladder/mgbacteriochlorin/03_tddft_ch2cl2/camb3lyp
  ***********************************

NOTE: MaxCore=3000 MB was set to SCF,MP2,MDCI,CIPSI,MRCI,RASCI and CIS
      => If you want to overwrite this, your respective input block should be placed after the MaxCore statement


***************************************
The coordinates will be read from file: /home/jannes/chlorophyll-ladder/007-mg-core-ladder/mgbacteriochlorin/01_opt/mgbacteriochlorin_opt_b3lypd4_tzvp.xyz
***************************************


XCFun DFT library Copyright 2009-2010 Ulf Ekstrom and contributors.
See http://admol.org/xcfun for more information.
This is free software; see the source code for copying conditions.
There is ABSOLUTELY NO WARRANTY; not even for MERCHANTABILITY or FITNESS FOR A PARTICULAR PURPOSE.
For details see the documentation.
Scientific users of this library should cite U. Ekstrom, L. Visscher, R. Bast, A. J. Thorvaldsen and K. Ruud;
J.Chem.Theor.Comp. 2010, DOI: 10.1021/ct100117s
XCFun Version 0.99 

================================================================================

----- Orbital basis set information -----
Your calculation utilizes the basis: def2-TZVP
   F. Weigend and R. Ahlrichs, Phys. Chem. Chem. Phys. 7, 3297 (2005).

----- AuxJ basis set information -----
Your calculation utilizes the auxiliary basis: def2/J
   H-Rn: F. Weigend, Phys. Chem. Chem. Phys. 8, 1057 (2006).
   Fr-Lr: K. Eichkorn, F. Weigend, O. Treutler, R. Ahlrichs; Theor. Chem. Acc. 97, 119 (1997).

================================================================================
                                        WARNINGS
                       Please study these warnings very carefully!
================================================================================


WARNING: CIS/ROCIS methods need fully converged wavefunctions
  ===> : Setting SCFConvForced true
         You can overwrite this default with %scf ConvForced false 


================================================================================
                                       INPUT FILE
================================================================================
NAME = tddft.inp
|  1> %pal nprocs 4 end
|  2> %maxcore 3000
|  3> ! CAM-B3LYP def2-TZVP def2/J RIJCOSX DefGrid3 TightSCF CPCM(CH2Cl2)
|  4> %tddft
|  5>   nroots 30
|  6>   tda false
|  7>   triplets false
|  8> end
|  9> * xyzfile 0 1 /home/jannes/chlorophyll-ladder/007-mg-core-ladder/mgbacteriochlorin/01_opt/mgbacteriochlorin_opt_b3lypd4_tzvp.xyz
| 10> 
| 11>                          ****END OF INPUT****
================================================================================

                       ****************************
                       * Single Point Calculation *
                       ****************************

---------------------------------
CARTESIAN COORDINATES (ANGSTROEM)
---------------------------------
  N     -2.124578   -0.012303    0.019619
  N      2.120702   -0.008182    0.053311
  N      0.000054   -2.042965    0.036072
  N     -0.003922    2.022643    0.036768
  C     -4.365647   -0.772052   -0.118068
  C      4.363206   -0.763605    0.191137
  C     -4.368868    0.743331    0.123418
  C      4.363545    0.751732   -0.050582
  C     -2.893435   -1.127457   -0.033347
  C      2.891729   -1.121890    0.105994
  C     -2.896171    1.101445    0.061023
  C      2.890180    1.107061    0.012189
  C     -1.099225   -2.861182    0.000405
  C      1.100883   -2.859069    0.071901
  C     -1.105169    2.838701    0.055116
  C      1.095772    2.840793    0.018125
  C     -2.428367   -2.424151   -0.040149
  C      2.429194   -2.419482    0.112495
  C     -2.433870    2.399066    0.075036
  C      2.425350    2.403775   -0.001591
  C     -0.680956   -4.229545    0.012980
  C      0.685237   -4.228237    0.059463
  C     -0.689363    4.207941    0.048969
  C      0.677354    4.209237    0.023929
  H     -4.752237   -1.026638   -1.108895
  H     -4.959962   -1.326894    0.608414
  H      4.749790   -1.017167    1.182234
  H      4.958957   -1.317434   -0.534930
  H     -4.953125    1.297020   -0.612043
  H     -4.770793    0.997360    1.108263
  H      4.946888    1.306572    0.684739
  H      4.764732    1.006428   -1.035547
  H     -3.179766   -3.203559   -0.079566
  H      3.182074   -3.197459    0.151893
  H     -3.187309    3.176996    0.103002
  H      3.177260    3.183189   -0.029363
  H     -1.343528   -5.080762   -0.009530
  H      1.349426   -5.078189    0.082157
  H     -1.354064    5.057708    0.060979
  H      1.340439    5.060262    0.011412
  Mg    -0.001641   -0.010087    0.036418

----------------------------
CARTESIAN COORDINATES (A.U.)
----------------------------
  NO LB      ZA    FRAG     MASS         X           Y           Z
   0 N     7.0000    0    14.007   -4.014871   -0.023249    0.037074
   1 N     7.0000    0    14.007    4.007547   -0.015462    0.100743
   2 N     7.0000    0    14.007    0.000102   -3.860643    0.068165
   3 N     7.0000    0    14.007   -0.007411    3.822241    0.069481
   4 C     6.0000    0    12.011   -8.249878   -1.458967   -0.223116
   5 C     6.0000    0    12.011    8.245265   -1.443005    0.361196
   6 C     6.0000    0    12.011   -8.255964    1.404693    0.233226
   7 C     6.0000    0    12.011    8.245904    1.420568   -0.095586
   8 C     6.0000    0    12.011   -5.467801   -2.130585   -0.063016
   9 C     6.0000    0    12.011    5.464575   -2.120065    0.200300
  10 C     6.0000    0    12.011   -5.472971    2.081430    0.115316
  11 C     6.0000    0    12.011    5.461648    2.092042    0.023034
  12 C     6.0000    0    12.011   -2.077234   -5.406851    0.000765
  13 C     6.0000    0    12.011    2.080367   -5.402857    0.135874
  14 C     6.0000    0    12.011   -2.088466    5.364367    0.104155
  15 C     6.0000    0    12.011    2.070710    5.368321    0.034251
  16 C     6.0000    0    12.011   -4.588949   -4.580981   -0.075870
  17 C     6.0000    0    12.011    4.590511   -4.572158    0.212586
  18 C     6.0000    0    12.011   -4.599348    4.533577    0.141797
  19 C     6.0000    0    12.011    4.583247    4.542477   -0.003006
  20 C     6.0000    0    12.011   -1.286820   -7.992681    0.024528
  21 C     6.0000    0    12.011    1.294910   -7.990210    0.112369
  22 C     6.0000    0    12.011   -1.302708    7.951855    0.092538
  23 C     6.0000    0    12.011    1.280014    7.954306    0.045220
  24 H     1.0000    0     1.008   -8.980427   -1.940064   -2.095508
  25 H     1.0000    0     1.008   -9.372970   -2.507465    1.149735
  26 H     1.0000    0     1.008    8.975803   -1.922168    2.234098
  27 H     1.0000    0     1.008    9.371070   -2.489590   -1.010871
  28 H     1.0000    0     1.008   -9.360049    2.451013   -1.156593
  29 H     1.0000    0     1.008   -9.015493    1.884737    2.094314
  30 H     1.0000    0     1.008    9.348264    2.469063    1.293968
  31 H     1.0000    0     1.008    9.004039    1.901874   -1.956899
  32 H     1.0000    0     1.008   -6.008887   -6.053850   -0.150357
  33 H     1.0000    0     1.008    6.013249   -6.042321    0.287037
  34 H     1.0000    0     1.008   -6.023141    6.003652    0.194646
  35 H     1.0000    0     1.008    6.004152    6.015356   -0.055489
  36 H     1.0000    0     1.008   -2.538900   -9.601249   -0.018009
  37 H     1.0000    0     1.008    2.550046   -9.596387    0.155255
  38 H     1.0000    0     1.008   -2.558811    9.557682    0.115234
  39 H     1.0000    0     1.008    2.533064    9.562509    0.021566
  40 Mg   12.0000    0    24.305   -0.003102   -0.019062    0.068819

--------------------------------
INTERNAL COORDINATES (ANGSTROEM)
--------------------------------
 N      0   0   0     0.000000000000     0.00000000     0.00000000
 N      1   0   0     4.245416085717     0.00000000     0.00000000
 N      2   1   0     2.939011375942    43.75967239     0.00000000
 N      1   2   3     2.939129070827    43.76187171   180.00255177
 C      1   2   3     2.370352009699   161.12036003   351.01820559
 C      2   1   3     2.370334321602   161.11898876   350.98604815
 C      5   1   2     1.534507198399    71.11414070   179.93485080
 C      6   2   1     1.534495241103    71.11492103   179.93600990
 C      1   2   3     1.355550048196   124.63056083   357.60358136
 C      2   1   3     1.355582128298   124.62977820   357.59599889
 C      1   2   3     1.355546123926   124.62160127   177.56972785
 C      2   1   3     1.355563808831   124.62364954   177.56200688
 C      3   2   1     1.370826670960   172.75333140     8.90847460
 C      3   2   1     1.370815363532    80.36235659   181.15564598
 C      4   1   2     1.370777821536    80.36358993   181.14305473
 C      4   1   2     1.370782906164   172.74430185     9.13892315
 C      9   1   2     1.377588111167   125.66613610     2.25390691
 C     10   2   1     1.377579558700   125.66739448     2.25241290
 C     11   1   2     1.377584022390   125.67739340     2.30114869
 C     12   2   1     1.377579356145   125.67503938     2.29624379
 C     13   3  14     1.430916519652   109.64262364   359.95276415
 C     21  13   3     1.366983719650   106.94919461     0.12079397
 C     15   4   1     1.430996176158   109.64179711   181.00446043
 C     23  15   4     1.366947587917   106.94825517     0.12005675
 H      5   1   2     1.093619998274   117.48119229   285.29610054
 H      5   1   2     1.090336727187   129.77292185    74.83365878
 H      6   2   1     1.093624260422   117.45243435   285.29735237
 H      6   2   1     1.090329122694   129.79853465    74.83293182
 H      7   5   1     1.090334418898   113.35711182   126.06534071
 H      7   5   1     1.093615512790   111.83148131   247.14860792
 H      8   6   2     1.090336113225   113.35342562   126.07482105
 H      8   6   2     1.093607292633   111.83547187   247.16406460
 H     17   9   1     1.083342905325   116.30988331   179.63283291
 H     18  10   2     1.083341733356   116.31217148   179.64366974
 H     19  11   1     1.083340715870   116.31275699   179.62575756
 H     20  12   2     1.083340310464   116.31350810   179.62687671
 H     21  13   3     1.078925603982   125.08340360   180.05189031
 H     22  21  13     1.078925857550   127.96702129   179.92425103
 H     23  15   4     1.078923414896   125.06844783   180.04988392
 H     24  23  15     1.078926070118   127.98362874   179.91361688
 Mg     4   1   2     2.032731255388    46.24671301     0.00000000

---------------------------
INTERNAL COORDINATES (A.U.)
---------------------------
 N      0   0   0     0.000000000000     0.00000000     0.00000000
 N      1   0   0     8.022673726548     0.00000000     0.00000000
 N      2   1   0     5.553926605009    43.75967239     0.00000000
 N      1   2   3     5.554149016110    43.76187171   180.00255177
 C      1   2   3     4.479316139321   161.12036003   351.01820559
 C      2   1   3     4.479282713662   161.11898876   350.98604815
 C      5   1   2     2.899798355505    71.11414070   179.93485080
 C      6   2   1     2.899775759491    71.11492103   179.93600990
 C      1   2   3     2.561618351915   124.63056083   357.60358136
 C      2   1   3     2.561678974521   124.62977820   357.59599889
 C      1   2   3     2.561610936119   124.62160127   177.56972785
 C      2   1   3     2.561644355746   124.62364954   177.56200688
 C      3   2   1     2.590486985190   172.75333140     8.90847460
 C      3   2   1     2.590465617247    80.36235659   181.15564598
 C      4   1   2     2.590394673157    80.36358993   181.14305473
 C      4   1   2     2.590404281711   172.74430185     9.13892315
 C      9   1   2     2.603264255451   125.66613610     2.25390691
 C     10   2   1     2.603248093630   125.66739448     2.25241290
 C     11   1   2     2.603256528784   125.67739340     2.30114869
 C     12   2   1     2.603247710858   125.67503938     2.29624379
 C     13   3  14     2.704040342647   109.64262364   359.95276415
 C     21  13   3     2.583224859667   106.94919461     0.12079397
 C     15   4   1     2.704190871627   109.64179711   181.00446043
 C     23  15   4     2.583156580588   106.94825517     0.12005675
 H      5   1   2     2.066642291317   117.48119229   285.29610054
 H      5   1   2     2.060437808139   129.77292185    74.83365878
 H      6   2   1     2.066650345610   117.45243435   285.29735237
 H      6   2   1     2.060423437730   129.79853465    74.83293182
 H      7   5   1     2.060433446106   113.35711182   126.06534071
 H      7   5   1     2.066633814981   111.83148131   247.14860792
 H      8   6   2     2.060436647919   113.35342562   126.07482105
 H      8   6   2     2.066618281135   111.83547187   247.16406460
 H     17   9   1     2.047221400191   116.30988331   179.63283291
 H     18  10   2     2.047219185490   116.31217148   179.64366974
 H     19  11   1     2.047217262721   116.31275699   179.62575756
 H     20  12   2     2.047216496614   116.31350810   179.62687671
 H     21  13   3     2.038873910402   125.08340360   180.05189031
 H     22  21  13     2.038874389575   127.96702129   179.92425103
 H     23  15   4     2.038869773628   125.06844783   180.04988392
 H     24  23  15     2.038874791271   127.98362874   179.91361688
 Mg     4   1   2     3.841305376545    46.24671301     0.00000000

---------------------
BASIS SET INFORMATION
---------------------
There are 4 groups of distinct atoms

 Group   1 Type N   : 11s6p2d1f contracted to 5s3p2d1f pattern {62111/411/11/1}
 Group   2 Type C   : 11s6p2d1f contracted to 5s3p2d1f pattern {62111/411/11/1}
 Group   3 Type H   : 5s1p contracted to 3s1p pattern {311/1}
 Group   4 Type Mg  : 14s8p3d contracted to 5s4p3d pattern {73211/5111/111}

Atom   0N    basis set group =>   1
Atom   1N    basis set group =>   1
Atom   2N    basis set group =>   1
Atom   3N    basis set group =>   1
Atom   4C    basis set group =>   2
Atom   5C    basis set group =>   2
Atom   6C    basis set group =>   2
Atom   7C    basis set group =>   2
Atom   8C    basis set group =>   2
Atom   9C    basis set group =>   2
Atom  10C    basis set group =>   2
Atom  11C    basis set group =>   2
Atom  12C    basis set group =>   2
Atom  13C    basis set group =>   2
Atom  14C    basis set group =>   2
Atom  15C    basis set group =>   2
Atom  16C    basis set group =>   2
Atom  17C    basis set group =>   2
Atom  18C    basis set group =>   2
Atom  19C    basis set group =>   2
Atom  20C    basis set group =>   2
Atom  21C    basis set group =>   2
Atom  22C    basis set group =>   2
Atom  23C    basis set group =>   2
Atom  24H    basis set group =>   3
Atom  25H    basis set group =>   3
Atom  26H    basis set group =>   3
Atom  27H    basis set group =>   3
Atom  28H    basis set group =>   3
Atom  29H    basis set group =>   3
Atom  30H    basis set group =>   3
Atom  31H    basis set group =>   3
Atom  32H    basis set group =>   3
Atom  33H    basis set group =>   3
Atom  34H    basis set group =>   3
Atom  35H    basis set group =>   3
Atom  36H    basis set group =>   3
Atom  37H    basis set group =>   3
Atom  38H    basis set group =>   3
Atom  39H    basis set group =>   3
Atom  40Mg   basis set group =>   4
---------------------------------
AUXILIARY/J BASIS SET INFORMATION
---------------------------------
There are 4 groups of distinct atoms

 Group   1 Type N   : 12s5p4d2f1g contracted to 6s4p3d1f1g pattern {711111/2111/211/2/1}
 Group   2 Type C   : 12s5p4d2f1g contracted to 6s4p3d1f1g pattern {711111/2111/211/2/1}
 Group   3 Type H   : 5s2p1d contracted to 3s1p1d pattern {311/2/1}
 Group   4 Type Mg  : 14s5p5d2f1g contracted to 8s4p4d1f1g pattern {71111111/2111/2111/2/1}

Atom   0N    basis set group =>   1
Atom   1N    basis set group =>   1
Atom   2N    basis set group =>   1
Atom   3N    basis set group =>   1
Atom   4C    basis set group =>   2
Atom   5C    basis set group =>   2
Atom   6C    basis set group =>   2
Atom   7C    basis set group =>   2
Atom   8C    basis set group =>   2
Atom   9C    basis set group =>   2
Atom  10C    basis set group =>   2
Atom  11C    basis set group =>   2
Atom  12C    basis set group =>   2
Atom  13C    basis set group =>   2
Atom  14C    basis set group =>   2
Atom  15C    basis set group =>   2
Atom  16C    basis set group =>   2
Atom  17C    basis set group =>   2
Atom  18C    basis set group =>   2
Atom  19C    basis set group =>   2
Atom  20C    basis set group =>   2
Atom  21C    basis set group =>   2
Atom  22C    basis set group =>   2
Atom  23C    basis set group =>   2
Atom  24H    basis set group =>   3
Atom  25H    basis set group =>   3
Atom  26H    basis set group =>   3
Atom  27H    basis set group =>   3
Atom  28H    basis set group =>   3
Atom  29H    basis set group =>   3
Atom  30H    basis set group =>   3
Atom  31H    basis set group =>   3
Atom  32H    basis set group =>   3
Atom  33H    basis set group =>   3
Atom  34H    basis set group =>   3
Atom  35H    basis set group =>   3
Atom  36H    basis set group =>   3
Atom  37H    basis set group =>   3
Atom  38H    basis set group =>   3
Atom  39H    basis set group =>   3
Atom  40Mg   basis set group =>   4


           ************************************************************
           *        Program running with 4 parallel MPI-processes     *
           *              working on a common directory               *
           ************************************************************
------------------------------------------------------------------------------
                             ORCA STARTUP CALCULATIONS
                           -- RI-GTO INTEGRALS CHOSEN --
------------------------------------------------------------------------------
------------------------------------------------------------------------------
                   ___                                                        
                  /   \      - P O W E R E D   B Y -                         
                 /     \                                                     
                 |  |  |   _    _      __       _____    __    __             
                 |  |  |  | |  | |    /  \     |  _  \  |  |  /  |          
                  \  \/   | |  | |   /    \    | | | |  |  | /  /          
                 / \  \   | |__| |  /  /\  \   | |_| |  |  |/  /          
                |  |  |   |  __  | /  /__\  \  |    /   |      \           
                |  |  |   | |  | | |   __   |  |    \   |  |\   \          
                \     /   | |  | | |  |  |  |  | |\  \  |  | \   \       
                 \___/    |_|  |_| |__|  |__|  |_| \__\ |__|  \__/        
                                                                              
                      - O R C A' S   B I G   F R I E N D -                    
                                      &                                       
                       - I N T E G R A L  F E E D E R -                       
                                                                              
 v1 FN, 2020, v2 2021, v3 2022-2024                                           
------------------------------------------------------------------------------


----------------------
SHARK INTEGRAL PACKAGE
----------------------

Number of atoms                             ...     41
Number of basis functions                   ...    872
Number of shells                            ...    340
Maximum angular momentum                    ...      3
Integral batch strategy                     ... SHARK/LIBINT Hybrid
RI-J (if used) integral strategy            ... SPLIT-RIJ (Revised 2003 algorithm where possible)
Printlevel                                  ...      1
Contraction scheme used                     ... SEGMENTED contraction
Prescreening option                         ... SCHWARTZ
   Thresh                                   ... 2.500e-11
   Tcut                                     ... 2.500e-12
   Tpresel                                  ... 2.500e-12 
Coulomb Range Separation                    ... NOT USED
Exchange Range Separation                   ... Long Range
   Mu parameter                             ... 3.300e-01
   Scaling (regular/separated)              ... 1.900e-01 4.600e-01
Robust (split-)RI terms used:
  metric    (central integrals)             ... YES
  density   (r.h.s.  integrals)             ... YES
  potential (l.h.s.  integrals)             ... YES
Multipole approximations                    ... NOT USED
Finite Nucleus Model                        ... NOT USED
CABS basis                                  ... NOT available
Auxiliary Coulomb fitting basis             ... AVAILABLE
   # of basis functions in Aux-J            ...   1408
   # of shells in Aux-J                     ...    458
   Maximum angular momentum in Aux-J        ...      4
Auxiliary J/K fitting basis                 ... NOT available
Auxiliary Correlation fitting basis         ... NOT available
Auxiliary 'external' fitting basis          ... NOT available

Checking pre-screening integrals            ... done (  0.0 sec) Dimension = 340
   => SHARK Basis and OBASIS are compatible. Storing Pre-screening
Shell pair information
Shell pair cut-off parameter TPreSel        ...   2.5e-12
Total number of shell pairs                 ...     57970
Shell pairs after pre-screening             ...     40545
Total number of primitive shell pairs       ...    181512
Primitive shell pairs kept                  ...     83416
          la=0 lb=0:   9964 shell pairs
          la=1 lb=0:  11660 shell pairs
          la=1 lb=1:   3400 shell pairs
          la=2 lb=0:   5941 shell pairs
          la=2 lb=1:   3556 shell pairs
          la=2 lb=2:    970 shell pairs
          la=3 lb=0:   2548 shell pairs
          la=3 lb=1:   1556 shell pairs
          la=3 lb=2:    780 shell pairs
          la=3 lb=3:    170 shell pairs

Checking whether 4 symmetric matrices of dimension 872 fit in memory
:Max Core in MB      =   3000.00
 MB in use           =     52.70
 MB left             =   2947.30
 MB needed           =     11.62
 Data fit in memory  = YES
Calculating RI/J V-Matrix + Cholesky decomp.... done (  0.2 sec)
Calculating Nuclear repulsion               ... done (  0.0 sec) ENN=   2190.086224452672 Eh

Diagonalization of the overlap matrix:
Smallest eigenvalue                        ... 1.019e-05
Time for diagonalization                   ...    0.243 sec
Threshold for overlap eigenvalues          ... 1.000e-07
Number of eigenvalues below threshold      ... 0
Time for construction of square roots      ...    0.221 sec
Total time needed                          ...    0.474 sec

-------------------
DFT GRID GENERATION
-------------------

General Integration Accuracy     IntAcc      ... 4.959
Radial Grid Type                 RadialGrid  ... OptM3 with GC (2021)
Angular Grid (max. ang.)         AngularGrid ... 6 (Lebedev-590)
Angular grid pruning method      GridPruning ... 4 (adaptive)
Weight generation scheme         WeightScheme... mBecke (2022)
Basis function cutoff            BFCut       ... 1.0000e-11
Integration weight cutoff        WCut        ... 1.0000e-14
Partially contracted basis set               ... off
Rotationally invariant grid construction     ... off
Angular grids for H and He will be reduced by one unit

Total number of grid points                  ...   489901
Total number of batches                      ...     7676
Average number of points per batch           ...       63
Average number of grid points per atom       ...    11949

--------------------
COSX GRID GENERATION
--------------------

GRIDX 1
-------
General Integration Accuracy     IntAcc      ... 4.020
Radial Grid Type                 RadialGrid  ... OptM3 with GC (2021)
Angular Grid (max. ang.)         AngularGrid ... 2 (Lebedev-110)
Angular grid pruning method      GridPruning ... 4 (adaptive)
Weight generation scheme         WeightScheme... mBecke (2022)
Basis function cutoff            BFCut       ... 1.0000e-11
Integration weight cutoff        WCut        ... 1.0000e-14
Partially contracted basis set               ... on
Rotationally invariant grid construction     ... off
Angular grids for H and He will be reduced by one unit

Total number of grid points                  ...    55413
Total number of batches                      ...      455
Average number of points per batch           ...      121
Average number of grid points per atom       ...     1352
UseSFitting                                  ... on

GRIDX 2
-------
General Integration Accuracy     IntAcc      ... 4.338
Radial Grid Type                 RadialGrid  ... OptM3 with GC (2021)
Angular Grid (max. ang.)         AngularGrid ... 3 (Lebedev-194)
Angular grid pruning method      GridPruning ... 4 (adaptive)
Weight generation scheme         WeightScheme... mBecke (2022)
Basis function cutoff            BFCut       ... 1.0000e-11
Integration weight cutoff        WCut        ... 1.0000e-14
Partially contracted basis set               ... on
Rotationally invariant grid construction     ... off
Angular grids for H and He will be reduced by one unit

Total number of grid points                  ...   121895
Total number of batches                      ...      972
Average number of points per batch           ...      125
Average number of grid points per atom       ...     2973
UseSFitting                                  ... on

GRIDX 3
-------
General Integration Accuracy     IntAcc      ... 4.871
Radial Grid Type                 RadialGrid  ... OptM3 with GC (2021)
Angular Grid (max. ang.)         AngularGrid ... 4 (Lebedev-302)
Angular grid pruning method      GridPruning ... 4 (adaptive)
Weight generation scheme         WeightScheme... mBecke (2022)
Basis function cutoff            BFCut       ... 1.0000e-11
Integration weight cutoff        WCut        ... 1.0000e-14
Partially contracted basis set               ... on
Rotationally invariant grid construction     ... off
Angular grids for H and He will be reduced by one unit

Total number of grid points                  ...   225543
Total number of batches                      ...     1784
Average number of points per batch           ...      126
Average number of grid points per atom       ...     5501
UseSFitting                                  ... on
Grids setup in  28.3 sec
Initializing property integral containers    ... done (  0.0 sec)

SHARK setup successfully completed in  29.9 seconds

Maximum memory used throughout the entire STARTUP-calculation: 159.8 MB


           ************************************************************
           *        Program running with 4 parallel MPI-processes     *
           *              working on a common directory               *
           ************************************************************
-------------------------------------------------------------------------------
                                 ORCA GUESS
                   Start orbitals & Density for SCF / CASSCF
-------------------------------------------------------------------------------

------------
SCF SETTINGS
------------
Hamiltonian:
 Density Functional     Method          .... DFT(GTOs)
 Exchange Functional    Exchange        .... WB88
 Correlation Functional Correlation     .... LYP
 LDA part of GGA corr.  LDAOpt          .... VWN-5
 Gradients option       PostSCFGGA      .... off
 Hybrid DFT is turned on
   Fraction HF Exchange ScalHFX         ....  0.190000
   Scaling of DF-GGA-X  ScalDFX         ....  0.350000
   Scaling of DF-GGA-C  ScalDFC         ....  0.810000
   Scaling of DF-LDA-C  ScalLDAC        ....  1.000000
   Perturbative correction              ....  0.000000
 Long-range corrected/Screened/Range-Separated Hybrid DFT is turned on
   Amount of maximum screened exact exchange              ....  0.460000
   Range separation parameter mu (erf(mu*r12)/r12)        ....  0.330000
 RI-approximation to the Coulomb term is turned on
   Number of AuxJ basis functions       .... 1408
   RIJ-COSX (HFX calculated with COS-X)).... on


General Settings:
 Integral files         IntName         .... tddft
 Hartree-Fock type      HFTyp           .... RHF
 Total Charge           Charge          ....    0
 Multiplicity           Mult            ....    1
 Number of Electrons    NEL             ....  176
 Basis Dimension        Dim             ....  872
 Nuclear Repulsion      ENuc            ....   2190.0862244527 Eh

Convergence Acceleration:
 AO-DIIS                CNVDIIS         .... on
   Start iteration      DIISMaxIt       ....    12
   Startup error        DIISStart       ....  0.200000
   # of expansion vecs  DIISMaxEq       ....     5
   Bias factor          DIISBfac        ....   1.050
   Max. coefficient     DIISMaxC        ....  10.000
 MO-DIIS                CNVKDIIS        .... off
 Trust-Rad. Augm. Hess. CNVTRAH         .... auto
   Auto Start mean grad. ratio tolernc. ....  1.125000
   Auto Start start iteration           ....    50
   Auto Start num. interpolation iter.  ....    10
   Max. Number of Micro iterations      ....    24
   Max. Number of Macro iterations      .... Maxiter - #DIIS iter
   Number of Davidson start vectors     ....     2
   Converg. threshold    (grad. norm)   ....   1.000e-05
   Grad. Scal. Fac. for Micro threshold ....   0.100
   Minimum threshold for Micro iter.    ....   1.000e-02
   NR start threshold (gradient norm)   ....   1.000e-04
   Initial trust radius                 ....   0.400
   Minimum AH scaling param. (alpha)    ....   1.000
   Maximum AH scaling param. (alpha)    .... 1000.000
   Quad. conv. algorithm                .... NR
   White noise on init. David. guess    .... on
   Maximum white noise                  ....   0.010
   Pseudo random numbers                .... off
   Inactive MOs                         .... canonical
   Orbital update algorithm             .... Taylor
   Preconditioner                       .... Diag
   Full preconditioner red. dimension   ....   250
 SOSCF                 CNVSOSCF           .... on
   Start iteration     SOSCFMaxIt         ....   150
   Startup grad/error  SOSCFStart         ....  0.003300
   Hessian update      SOSCFHessUp        .... L-BFGS
   Autom. constraints  SOSCFAutoConstrain .... off
 Level Shifting         CNVShift        .... on
   Level shift para.    LevelShift      ....    0.2500
   Turn off err/grad.   ShiftErr        ....    0.0010
 Zerner damping         CNVZerner       .... off
 Static damping         CNVDamp         .... on
   Fraction old density DampFac         ....    0.7000
   Max. Damping (<1)    DampMax         ....    0.9800
   Min. Damping (>=0)   DampMin         ....    0.0000
   Turn off err/grad.   DampErr         ....    0.1000

SCF Procedure:
 Maximum # iterations   MaxIter         ....   125
 SCF integral mode      SCFMode         .... Direct
   Integral package                     .... SHARK and LIBINT hybrid scheme
 Reset frequency        DirectResetFreq ....    20
 Integral Threshold     Thresh          ....  2.500e-11 Eh
 Primitive CutOff       TCut            ....  2.500e-12 Eh

Convergence Tolerance:
 Convergence Check Mode ConvCheckMode   .... Total+1el-Energy
 Convergence forced     ConvForced      .... 1
 Energy Change          TolE            ....  1.000e-08 Eh
 1-El. energy change                    ....  1.000e-05 Eh
 Orbital Gradient       TolG            ....  1.000e-05
 Orbital Rotation angle TolX            ....  1.000e-05
 DIIS Error             TolErr          ....  5.000e-07

------------------------------
INITIAL GUESS: MODEL POTENTIAL
------------------------------
Loading Hartree-Fock densities                     ... done
Calculating cut-offs                               ... done
Initializing the effective Hamiltonian             ... done
Setting up the integral package (SHARK)            ... done
Starting the Coulomb interaction                   ... done (   4.2 sec)
Making the grid                                    ... done (   1.7 sec)
Mapping shells                                     ... done
Starting the XC term evaluation                    ... done (   2.7 sec)
  promolecular density results
     # of electrons  =    176.013752315
     EX              =   -149.316411799
     EC              =     -5.985031575
     EX+EC           =   -155.301443373
Transforming the Hamiltonian                       ... done (   0.3 sec)
Diagonalizing the Hamiltonian                      ... done (   0.5 sec)
Back transforming the eigenvectors                 ... done (   0.1 sec)
Now organizing SCF variables                       ... done
                      ------------------
                      INITIAL GUESS DONE (   9.6 sec)
                      ------------------
             **** ENERGY FILE WAS UPDATED (tddft.en.tmp) ****
Finished Guess after  10.5 sec
Maximum memory used throughout the entire GUESS-calculation: 88.7 MB


           ************************************************************
           *        Program running with 4 parallel MPI-processes     *
           *              working on a common directory               *
           ************************************************************

-------------------------------------------------------------------------------------------
                                      ORCA LEAN-SCF
                              memory conserving SCF solver
-------------------------------------------------------------------------------------------

--------------------
CPCM SOLVATION MODEL
--------------------
CPCM parameters:
  Epsilon                                         ...       8.9990
  Refrac                                          ...       1.4242
  Rsolv                                           ...       1.3000
  Surface type                                    ... GAUSSIAN VDW
  Discretization scheme                           ... Constant charge density
    Threshold for H atoms                         ...       5.0000 (charges/Ang^2)
    Threshold for non-H atoms                     ...       5.0000 (charges/Ang^2)
  Epsilon function type                           ...         CPCM
Solvent:                                          ... DICHLOROMETHANE
Radii:
  Scheme                                          ... Element-dependent radii
  Radius for N  used is    3.5149 Bohr (=   1.8600 Ang.)
  Radius for C  used is    3.8550 Bohr (=   2.0400 Ang.)
  Radius for H  used is    2.4944 Bohr (=   1.3200 Ang.)
  Radius for Mg used is    3.9231 Bohr (=   2.0760 Ang.)
Calculating surface                               ...        done! (  0.0s)
Cavity surface points                             ...         3647
Cavity Volume                                     ...    2544.6779
Cavity Surface-area                               ...    1209.7494
Calculating surface distance matrix               ...        done! (  0.5s)
Performing Cholesky decomposition & store         ...        done! (  1.1s)
Overall time for CPCM initialization              ...                 1.6s

----------------------------------------D-I-I-S--------------------------------------------
Iteration    Energy (Eh)           Delta-E    RMSDP     MaxDP     DIISErr   Damp  Time(sec)
-------------------------------------------------------------------------------------------
               ***  Starting incremental Fock matrix formation  ***
    1    -1190.2942763874721095     0.00e+00  2.15e-03  4.38e-02  2.20e-01  0.700 230.9
    2    -1190.5106192364278286    -2.16e-01  1.64e-03  3.09e-02  1.14e-01  0.700 111.0
                               ***Turning on AO-DIIS***
    3    -1190.6188919441328835    -1.08e-01  9.64e-04  2.31e-02  4.59e-02  0.700 119.0
    4    -1190.6827717904443489    -6.39e-02  2.08e-03  5.32e-02  3.12e-02  0.000 110.1
    5    -1190.8187259149508463    -1.36e-01  1.97e-04  3.90e-03  3.55e-03  0.000 108.0
                              *** Initializing SOSCF ***
---------------------------------------S-O-S-C-F--------------------------------------
Iteration    Energy (Eh)           Delta-E    RMSDP     MaxDP     MaxGrad    Time(sec)
--------------------------------------------------------------------------------------
    6    -1190.8191102162586503    -3.84e-04  8.34e-05  1.86e-03  2.68e-03    79.1
               *** Restarting incremental Fock matrix formation ***
    7    -1190.8191668825979832    -5.67e-05  6.40e-05  9.94e-04  6.18e-04   244.3
    8    -1190.8191823865913648    -1.55e-05  3.63e-05  5.49e-04  2.70e-04   151.4
    9    -1190.8191835212005572    -1.13e-06  1.60e-05  2.51e-04  1.32e-04   163.2
   10    -1190.8191851608034995    -1.64e-06  4.97e-06  1.44e-04  2.08e-05   126.4
   11    -1190.8191851430879069     1.77e-08  4.64e-06  1.54e-04  1.55e-05   136.4
   12    -1190.8191851840924755    -4.10e-08  5.59e-06  1.56e-04  4.64e-06    92.9
   13    -1190.8191852028162430    -1.87e-08  2.65e-06  9.97e-05  2.86e-06    99.8
   14    -1190.8191851982746812     4.54e-09  4.21e-06  1.57e-04  8.24e-07    95.9
                 **** Energy Check signals convergence ****

               *****************************************************
               *                     SUCCESS                       *
               *           SCF CONVERGED AFTER  14 CYCLES          *
               *****************************************************

Recomputing exchange energy using gridx3       ... done (  312.747 sec)
Old exchange energy                            :    -42.674967915 Eh
New exchange energy                            :    -42.674962951 Eh
Exchange energy change after final integration :      0.000004965 Eh
Total energy after final integration           :  -1190.819180173 Eh
             **** ENERGY FILE WAS UPDATED (tddft.en.tmp) ****

----------------
TOTAL SCF ENERGY
----------------

Total Energy       :      -1190.81918017309135 Eh          -32403.83727 eV

Components:
Nuclear Repulsion  :       2190.08622445267247 Eh           59595.27593 eV
Electronic Energy  :      -3380.89070988478397 Eh          -91998.71334 eV
One Electron Energy:      -5978.95553188018766 Eh         -162695.65131 eV
Two Electron Energy:       2598.06482199540369 Eh           70696.93797 eV
CPCM Dielectric    :         -0.01469970581221 Eh              -0.40000 eV

Virial components:
Potential Energy   :      -2376.38092437373052 Eh          -64664.61244 eV
Kinetic Energy     :       1185.56174420063940 Eh           32260.77517 eV
Virial Ratio       :          2.00443455264829

DFT components:
N(Alpha)           :       87.999995350470 electrons
N(Beta)            :       87.999995350470 electrons
N(Total)           :      175.999990700940 electrons
E(XC)              :     -115.955348477980 Eh       

CPCM Solvation Model Properties:
Surface-charge          :         -0.04168329599501
Corrected charge        :          0.00000000000000
Outlying charge corr.   :          0.00008202146758 Eh               0.00223 eV
Free-energy (cav+disp)  :  This term is not implemented in the current solvation scheme

---------------
SCF CONVERGENCE
---------------

  Last Energy change         ...   -4.5416e-09  Tolerance :   1.0000e-08
  Last MAX-Density change    ...    1.5694e-04  Tolerance :   1.0000e-07
  Last RMS-Density change    ...    4.2127e-06  Tolerance :   5.0000e-09
  Last DIIS Error            ...    2.6809e-03  Tolerance :   5.0000e-07
  Last Orbital Gradient      ...    8.2363e-07  Tolerance :   1.0000e-05
  Last Orbital Rotation      ...    3.3248e-06  Tolerance :   1.0000e-05


----------------
ORBITAL ENERGIES
----------------

  NO   OCC          E(Eh)            E(eV) 
   0   2.0000     -46.841711     -1274.6278 
   1   2.0000     -14.396132      -391.7387 
   2   2.0000     -14.396128      -391.7385 
   3   2.0000     -14.369056      -391.0019 
   4   2.0000     -14.369041      -391.0015 
   5   2.0000     -10.283140      -279.8185 
   6   2.0000     -10.283132      -279.8182 
   7   2.0000     -10.283094      -279.8172 
   8   2.0000     -10.283086      -279.8170 
   9   2.0000     -10.272373      -279.5255 
  10   2.0000     -10.272348      -279.5248 
  11   2.0000     -10.272326      -279.5242 
  12   2.0000     -10.272301      -279.5235 
  13   2.0000     -10.244731      -278.7733 
  14   2.0000     -10.244727      -278.7732 
  15   2.0000     -10.244528      -278.7678 
  16   2.0000     -10.244524      -278.7677 
  17   2.0000     -10.239553      -278.6324 
  18   2.0000     -10.239546      -278.6322 
  19   2.0000     -10.239546      -278.6322 
  20   2.0000     -10.239539      -278.6320 
  21   2.0000     -10.237143      -278.5668 
  22   2.0000     -10.237109      -278.5659 
  23   2.0000     -10.236443      -278.5478 
  24   2.0000     -10.236409      -278.5469 
  25   2.0000      -3.128991       -85.1442 
  26   2.0000      -1.876200       -51.0540 
  27   2.0000      -1.871309       -50.9209 
  28   2.0000      -1.870318       -50.8939 
  29   2.0000      -1.044251       -28.4155 
  30   2.0000      -1.038377       -28.2557 
  31   2.0000      -1.030688       -28.0464 
  32   2.0000      -1.023882       -27.8613 
  33   2.0000      -0.894220       -24.3330 
  34   2.0000      -0.870270       -23.6813 
  35   2.0000      -0.862107       -23.4591 
  36   2.0000      -0.850439       -23.1416 
  37   2.0000      -0.848686       -23.0939 
  38   2.0000      -0.837887       -22.8001 
  39   2.0000      -0.837395       -22.7867 
  40   2.0000      -0.811654       -22.0862 
  41   2.0000      -0.795652       -21.6508 
  42   2.0000      -0.734850       -19.9963 
  43   2.0000      -0.726805       -19.7774 
  44   2.0000      -0.690453       -18.7882 
  45   2.0000      -0.669534       -18.2190 
  46   2.0000      -0.641754       -17.4630 
  47   2.0000      -0.641270       -17.4498 
  48   2.0000      -0.638177       -17.3657 
  49   2.0000      -0.627692       -17.0804 
  50   2.0000      -0.603363       -16.4183 
  51   2.0000      -0.590017       -16.0552 
  52   2.0000      -0.577065       -15.7027 
  53   2.0000      -0.572246       -15.5716 
  54   2.0000      -0.565633       -15.3917 
  55   2.0000      -0.554048       -15.0764 
  56   2.0000      -0.544902       -14.8275 
  57   2.0000      -0.542329       -14.7575 
  58   2.0000      -0.505505       -13.7555 
  59   2.0000      -0.503522       -13.7015 
  60   2.0000      -0.483793       -13.1647 
  61   2.0000      -0.483714       -13.1625 
  62   2.0000      -0.483478       -13.1561 
  63   2.0000      -0.469014       -12.7625 
  64   2.0000      -0.468548       -12.7499 
  65   2.0000      -0.466109       -12.6835 
  66   2.0000      -0.451796       -12.2940 
  67   2.0000      -0.442984       -12.0542 
  68   2.0000      -0.442359       -12.0372 
  69   2.0000      -0.439093       -11.9483 
  70   2.0000      -0.436273       -11.8716 
  71   2.0000      -0.429087       -11.6761 
  72   2.0000      -0.426517       -11.6061 
  73   2.0000      -0.425383       -11.5753 
  74   2.0000      -0.421805       -11.4779 
  75   2.0000      -0.421349       -11.4655 
  76   2.0000      -0.419060       -11.4032 
  77   2.0000      -0.413985       -11.2651 
  78   2.0000      -0.376673       -10.2498 
  79   2.0000      -0.372793       -10.1442 
  80   2.0000      -0.367645       -10.0041 
  81   2.0000      -0.345830        -9.4105 
  82   2.0000      -0.330011        -8.9800 
  83   2.0000      -0.316415        -8.6101 
  84   2.0000      -0.308083        -8.3834 
  85   2.0000      -0.298536        -8.1236 
  86   2.0000      -0.239060        -6.5051 
  87   2.0000      -0.200321        -5.4510 
  88   0.0000      -0.070600        -1.9211 
  89   0.0000      -0.004416        -0.1202 
  90   0.0000       0.035484         0.9656 
  91   0.0000       0.061797         1.6816 
  92   0.0000       0.064003         1.7416 
  93   0.0000       0.076438         2.0800 
  94   0.0000       0.076993         2.0951 
  95   0.0000       0.083731         2.2784 
  96   0.0000       0.093573         2.5462 
  97   0.0000       0.096097         2.6149 
  98   0.0000       0.104277         2.8375 
*Only the first 10 virtual orbitals were printed.

                    ********************************
                    * MULLIKEN POPULATION ANALYSIS *
                    ********************************

-----------------------
MULLIKEN ATOMIC CHARGES
-----------------------
   0 N :   -0.333207
   1 N :   -0.333058
   2 N :   -0.387083
   3 N :   -0.387024
   4 C :   -0.198080
   5 C :   -0.198410
   6 C :   -0.198350
   7 C :   -0.198096
   8 C :    0.159083
   9 C :    0.159294
  10 C :    0.159256
  11 C :    0.159171
  12 C :    0.236425
  13 C :    0.236498
  14 C :    0.236487
  15 C :    0.236451
  16 C :   -0.328229
  17 C :   -0.328291
  18 C :   -0.328222
  19 C :   -0.328341
  20 C :   -0.249184
  21 C :   -0.249031
  22 C :   -0.249160
  23 C :   -0.248936
  24 H :    0.124581
  25 H :    0.137181
  26 H :    0.124579
  27 H :    0.137226
  28 H :    0.137204
  29 H :    0.124601
  30 H :    0.137190
  31 H :    0.124599
  32 H :    0.150178
  33 H :    0.150178
  34 H :    0.150194
  35 H :    0.150191
  36 H :    0.153538
  37 H :    0.153562
  38 H :    0.153589
  39 H :    0.153580
  40 Mg:    0.697866
Sum of atomic charges:    0.0000000

--------------------------------
MULLIKEN REDUCED ORBITAL CHARGES
--------------------------------
  0 N s       :     3.686328  s :     3.686328
      pz      :     1.274677  p :     3.586366
      px      :     1.301662
      py      :     1.010028
      dz2     :     0.003752  d :     0.057033
      dxz     :     0.005641
      dyz     :     0.016018
      dx2y2   :     0.015674
      dxy     :     0.015947
      f0      :     0.000635  f :     0.003480
      f+1     :     0.000241
      f-1     :     0.000342
      f+2     :     0.000095
      f-2     :     0.000557
      f+3     :     0.000592
      f-3     :     0.001017

  1 N s       :     3.686289  s :     3.686289
      pz      :     1.274812  p :     3.586262
      px      :     1.301456
      py      :     1.009995
      dz2     :     0.003751  d :     0.057028
      dxz     :     0.005638
      dyz     :     0.016019
      dx2y2   :     0.015676
      dxy     :     0.015944
      f0      :     0.000635  f :     0.003479
      f+1     :     0.000241
      f-1     :     0.000342
      f+2     :     0.000095
      f-2     :     0.000557
      f+3     :     0.000592
      f-3     :     0.001017

  2 N s       :     3.686331  s :     3.686331
      pz      :     1.395655  p :     3.643719
      px      :     1.005584
      py      :     1.242479
      dz2     :     0.003943  d :     0.053523
      dxz     :     0.013844
      dyz     :     0.005154
      dx2y2   :     0.015463
      dxy     :     0.015119
      f0      :     0.000643  f :     0.003511
      f+1     :     0.000382
      f-1     :     0.000310
      f+2     :     0.000068
      f-2     :     0.000613
      f+3     :     0.000921
      f-3     :     0.000574

  3 N s       :     3.686316  s :     3.686316
      pz      :     1.395977  p :     3.643672
      px      :     1.005236
      py      :     1.242459
      dz2     :     0.003921  d :     0.053524
      dxz     :     0.013862
      dyz     :     0.005147
      dx2y2   :     0.015470
      dxy     :     0.015124
      f0      :     0.000645  f :     0.003511
      f+1     :     0.000381
      f-1     :     0.000310
      f+2     :     0.000067
      f-2     :     0.000613
      f+3     :     0.000922
      f-3     :     0.000575

  4 C s       :     3.223017  s :     3.223017
      pz      :     1.056352  p :     2.894912
      px      :     0.906141
      py      :     0.932418
      dz2     :     0.004961  d :     0.074273
      dxz     :     0.014922
      dyz     :     0.015782
      dx2y2   :     0.015513
      dxy     :     0.023095
      f0      :     0.000763  f :     0.005878
      f+1     :     0.000702
      f-1     :     0.000569
      f+2     :     0.000780
      f-2     :     0.000368
      f+3     :     0.001547
      f-3     :     0.001147

  5 C s       :     3.223418  s :     3.223418
      pz      :     1.056332  p :     2.894835
      px      :     0.906281
      py      :     0.932222
      dz2     :     0.004974  d :     0.074278
      dxz     :     0.014912
      dyz     :     0.015781
      dx2y2   :     0.015512
      dxy     :     0.023100
      f0      :     0.000764  f :     0.005878
      f+1     :     0.000703
      f-1     :     0.000567
      f+2     :     0.000779
      f-2     :     0.000369
      f+3     :     0.001548
      f-3     :     0.001146

  6 C s       :     3.223283  s :     3.223283
      pz      :     1.056247  p :     2.894911
      px      :     0.906415
      py      :     0.932249
      dz2     :     0.004822  d :     0.074278
      dxz     :     0.015062
      dyz     :     0.015808
      dx2y2   :     0.015509
      dxy     :     0.023077
      f0      :     0.000737  f :     0.005878
      f+1     :     0.000723
      f-1     :     0.000578
      f+2     :     0.000785
      f-2     :     0.000364
      f+3     :     0.001551
      f-3     :     0.001142

  7 C s       :     3.223013  s :     3.223013
      pz      :     1.056254  p :     2.894923
      px      :     0.906290
      py      :     0.932378
      dz2     :     0.004831  d :     0.074283
      dxz     :     0.015061
      dyz     :     0.015803
      dx2y2   :     0.015508
      dxy     :     0.023079
      f0      :     0.000737  f :     0.005878
      f+1     :     0.000721
      f-1     :     0.000579
      f+2     :     0.000786
      f-2     :     0.000363
      f+3     :     0.001550
      f-3     :     0.001142

  8 C s       :     3.176560  s :     3.176560
      pz      :     0.901236  p :     2.496127
      px      :     0.837681
      py      :     0.757210
      dz2     :     0.003265  d :     0.154103
      dxz     :     0.021710
      dyz     :     0.041227
      dx2y2   :     0.045200
      dxy     :     0.042700
      f0      :     0.001960  f :     0.014128
      f+1     :     0.000889
      f-1     :     0.000900
      f+2     :     0.001243
      f-2     :     0.001560
      f+3     :     0.002820
      f-3     :     0.004756

  9 C s       :     3.176456  s :     3.176456
      pz      :     0.901232  p :     2.496009
      px      :     0.837213
      py      :     0.757564
      dz2     :     0.003267  d :     0.154114
      dxz     :     0.021720
      dyz     :     0.041225
      dx2y2   :     0.045219
      dxy     :     0.042683
      f0      :     0.001960  f :     0.014128
      f+1     :     0.000890
      f-1     :     0.000899
      f+2     :     0.001241
      f-2     :     0.001563
      f+3     :     0.002830
      f-3     :     0.004745

 10 C s       :     3.176408  s :     3.176408
      pz      :     0.901316  p :     2.496104
      px      :     0.837181
      py      :     0.757607
      dz2     :     0.003093  d :     0.154105
      dxz     :     0.021793
      dyz     :     0.041216
      dx2y2   :     0.045317
      dxy     :     0.042686
      f0      :     0.001966  f :     0.014128
      f+1     :     0.000882
      f-1     :     0.000897
      f+2     :     0.001241
      f-2     :     0.001562
      f+3     :     0.002832
      f-3     :     0.004748

 11 C s       :     3.176493  s :     3.176493
      pz      :     0.901304  p :     2.496089
      px      :     0.837548
      py      :     0.757236
      dz2     :     0.003093  d :     0.154119
      dxz     :     0.021784
      dyz     :     0.041231
      dx2y2   :     0.045297
      dxy     :     0.042715
      f0      :     0.001966  f :     0.014128
      f+1     :     0.000881
      f-1     :     0.000897
      f+2     :     0.001243
      f-2     :     0.001560
      f+3     :     0.002822
      f-3     :     0.004759

 12 C s       :     3.156710  s :     3.156710
      pz      :     0.917160  p :     2.437526
      px      :     0.737292
      py      :     0.783074
      dz2     :     0.003980  d :     0.154848
      dxz     :     0.038829
      dyz     :     0.030092
      dx2y2   :     0.042161
      dxy     :     0.039787
      f0      :     0.002120  f :     0.014490
      f+1     :     0.001016
      f-1     :     0.000795
      f+2     :     0.000857
      f-2     :     0.002155
      f+3     :     0.004447
      f-3     :     0.003101

 13 C s       :     3.156640  s :     3.156640
      pz      :     0.917145  p :     2.437520
      px      :     0.737105
      py      :     0.783270
      dz2     :     0.003982  d :     0.154852
      dxz     :     0.038838
      dyz     :     0.030084
      dx2y2   :     0.042128
      dxy     :     0.039820
      f0      :     0.002120  f :     0.014490
      f+1     :     0.001017
      f-1     :     0.000794
      f+2     :     0.000861
      f-2     :     0.002151
      f+3     :     0.004459
      f-3     :     0.003088

 14 C s       :     3.156738  s :     3.156738
      pz      :     0.917261  p :     2.437423
      px      :     0.736928
      py      :     0.783234
      dz2     :     0.003898  d :     0.154861
      dxz     :     0.038950
      dyz     :     0.030070
      dx2y2   :     0.042116
      dxy     :     0.039826
      f0      :     0.002127  f :     0.014491
      f+1     :     0.001010
      f-1     :     0.000792
      f+2     :     0.000858
      f-2     :     0.002151
      f+3     :     0.004465
      f-3     :     0.003090

 15 C s       :     3.156694  s :     3.156694
      pz      :     0.917253  p :     2.437509
      px      :     0.737157
      py      :     0.783099
      dz2     :     0.003898  d :     0.154855
      dxz     :     0.038940
      dyz     :     0.030080
      dx2y2   :     0.042133
      dxy     :     0.039804
      f0      :     0.002127  f :     0.014491
      f+1     :     0.001009
      f-1     :     0.000793
      f+2     :     0.000853
      f-2     :     0.002155
      f+3     :     0.004452
      f-3     :     0.003102

 16 C s       :     3.300823  s :     3.300823
      pz      :     1.066895  p :     2.953878
      px      :     0.930345
      py      :     0.956639
      dz2     :     0.003187  d :     0.066440
      dxz     :     0.014992
      dyz     :     0.015641
      dx2y2   :     0.007655
      dxy     :     0.024965
      f0      :     0.001450  f :     0.007088
      f+1     :     0.000567
      f-1     :     0.000548
      f+2     :     0.000830
      f-2     :     0.000410
      f+3     :     0.001570
      f-3     :     0.001712

 17 C s       :     3.300876  s :     3.300876
      pz      :     1.066926  p :     2.953880
      px      :     0.930617
      py      :     0.956337
      dz2     :     0.003188  d :     0.066446
      dxz     :     0.014944
      dyz     :     0.015687
      dx2y2   :     0.007657
      dxy     :     0.024971
      f0      :     0.001450  f :     0.007087
      f+1     :     0.000568
      f-1     :     0.000548
      f+2     :     0.000830
      f-2     :     0.000410
      f+3     :     0.001574
      f-3     :     0.001708

 18 C s       :     3.300805  s :     3.300805
      pz      :     1.067148  p :     2.953905
      px      :     0.930371
      py      :     0.956386
      dz2     :     0.003173  d :     0.066424
      dxz     :     0.014965
      dyz     :     0.015676
      dx2y2   :     0.007639
      dxy     :     0.024971
      f0      :     0.001453  f :     0.007088
      f+1     :     0.000564
      f-1     :     0.000550
      f+2     :     0.000830
      f-2     :     0.000406
      f+3     :     0.001575
      f-3     :     0.001709

 19 C s       :     3.300842  s :     3.300842
      pz      :     1.067185  p :     2.953996
      px      :     0.930158
      py      :     0.956654
      dz2     :     0.003175  d :     0.066415
      dxz     :     0.015013
      dyz     :     0.015627
      dx2y2   :     0.007628
      dxy     :     0.024972
      f0      :     0.001453  f :     0.007087
      f+1     :     0.000564
      f-1     :     0.000550
      f+2     :     0.000830
      f-2     :     0.000406
      f+3     :     0.001571
      f-3     :     0.001713

 20 C s       :     3.276861  s :     3.276861
      pz      :     1.021203  p :     2.888781
      px      :     0.942726
      py      :     0.924852
      dz2     :     0.004795  d :     0.075851
      dxz     :     0.019631
      dyz     :     0.010583
      dx2y2   :     0.014135
      dxy     :     0.026707
      f0      :     0.001456  f :     0.007691
      f+1     :     0.000500
      f-1     :     0.000675
      f+2     :     0.001172
      f-2     :     0.000224
      f+3     :     0.001387
      f-3     :     0.002278

 21 C s       :     3.276715  s :     3.276715
      pz      :     1.021215  p :     2.888781
      px      :     0.942861
      py      :     0.924705
      dz2     :     0.004794  d :     0.075844
      dxz     :     0.019604
      dyz     :     0.010610
      dx2y2   :     0.014131
      dxy     :     0.026706
      f0      :     0.001456  f :     0.007691
      f+1     :     0.000500
      f-1     :     0.000674
      f+2     :     0.001175
      f-2     :     0.000220
      f+3     :     0.001388
      f-3     :     0.002277

 22 C s       :     3.276856  s :     3.276856
      pz      :     1.021193  p :     2.888766
      px      :     0.942839
      py      :     0.924734
      dz2     :     0.004758  d :     0.075848
      dxz     :     0.019643
      dyz     :     0.010595
      dx2y2   :     0.014131
      dxy     :     0.026721
      f0      :     0.001461  f :     0.007691
      f+1     :     0.000492
      f-1     :     0.000675
      f+2     :     0.001178
      f-2     :     0.000217
      f+3     :     0.001387
      f-3     :     0.002280

 23 C s       :     3.276652  s :     3.276652
      pz      :     1.021197  p :     2.888746
      px      :     0.942676
      py      :     0.924873
      dz2     :     0.004757  d :     0.075847
      dxz     :     0.019670
      dyz     :     0.010569
      dx2y2   :     0.014128
      dxy     :     0.026724
      f0      :     0.001461  f :     0.007691
      f+1     :     0.000491
      f-1     :     0.000676
      f+2     :     0.001175
      f-2     :     0.000220
      f+3     :     0.001386
      f-3     :     0.002281

 24 H s       :     0.854033  s :     0.854033
      pz      :     0.011353  p :     0.021386
      px      :     0.005443
      py      :     0.004590

 25 H s       :     0.841563  s :     0.841563
      pz      :     0.007785  p :     0.021257
      px      :     0.006994
      py      :     0.006477

 26 H s       :     0.854035  s :     0.854035
      pz      :     0.011358  p :     0.021386
      px      :     0.005444
      py      :     0.004585

 27 H s       :     0.841517  s :     0.841517
      pz      :     0.007780  p :     0.021256
      px      :     0.007008
      py      :     0.006468

 28 H s       :     0.841540  s :     0.841540
      pz      :     0.007885  p :     0.021257
      px      :     0.006905
      py      :     0.006467

 29 H s       :     0.854012  s :     0.854012
      pz      :     0.011257  p :     0.021386
      px      :     0.005543
      py      :     0.004587

 30 H s       :     0.841554  s :     0.841554
      pz      :     0.007883  p :     0.021257
      px      :     0.006896
      py      :     0.006477

 31 H s       :     0.854014  s :     0.854014
      pz      :     0.011259  p :     0.021386
      px      :     0.005537
      py      :     0.004590

 32 H s       :     0.827625  s :     0.827625
      pz      :     0.005285  p :     0.022197
      px      :     0.008283
      py      :     0.008628

 33 H s       :     0.827625  s :     0.827625
      pz      :     0.005285  p :     0.022197
      px      :     0.008304
      py      :     0.008608

 34 H s       :     0.827609  s :     0.827609
      pz      :     0.005280  p :     0.022197
      px      :     0.008309
      py      :     0.008608

 35 H s       :     0.827612  s :     0.827612
      pz      :     0.005280  p :     0.022197
      px      :     0.008289
      py      :     0.008628

 36 H s       :     0.824513  s :     0.824513
      pz      :     0.004795  p :     0.021949
      px      :     0.007191
      py      :     0.009963

 37 H s       :     0.824489  s :     0.824489
      pz      :     0.004795  p :     0.021949
      px      :     0.007210
      py      :     0.009944

 38 H s       :     0.824462  s :     0.824462
      pz      :     0.004792  p :     0.021949
      px      :     0.007215
      py      :     0.009941

 39 H s       :     0.824472  s :     0.824472
      pz      :     0.004793  p :     0.021949
      px      :     0.007196
      py      :     0.009960

 40 Mgs       :     4.595410  s :     4.595410
      pz      :     2.077995  p :     6.451026
      px      :     2.169828
      py      :     2.203203
      dz2     :     0.034022  d :     0.255698
      dxz     :     0.011616
      dyz     :     0.029958
      dx2y2   :     0.173987
      dxy     :     0.006114



                     *******************************
                     * LOEWDIN POPULATION ANALYSIS *
                     *******************************

----------------------
LOEWDIN ATOMIC CHARGES
----------------------
   0 N :    0.201089
   1 N :    0.201081
   2 N :    0.156771
   3 N :    0.156805
   4 C :   -0.193493
   5 C :   -0.193493
   6 C :   -0.193482
   7 C :   -0.193475
   8 C :   -0.199053
   9 C :   -0.199024
  10 C :   -0.199011
  11 C :   -0.198983
  12 C :   -0.212540
  13 C :   -0.212536
  14 C :   -0.212509
  15 C :   -0.212497
  16 C :   -0.128612
  17 C :   -0.128622
  18 C :   -0.128626
  19 C :   -0.128637
  20 C :   -0.135118
  21 C :   -0.135121
  22 C :   -0.135050
  23 C :   -0.135054
  24 H :    0.149077
  25 H :    0.145975
  26 H :    0.149090
  27 H :    0.145970
  28 H :    0.145976
  29 H :    0.149077
  30 H :    0.145980
  31 H :    0.149075
  32 H :    0.164472
  33 H :    0.164472
  34 H :    0.164481
  35 H :    0.164481
  36 H :    0.144728
  37 H :    0.144727
  38 H :    0.144734
  39 H :    0.144734
  40 Mg:    0.342141

-------------------------------
LOEWDIN REDUCED ORBITAL CHARGES
-------------------------------
  0 N s       :     2.973960  s :     2.973960
      pz      :     1.118019  p :     3.595399
      px      :     1.354066
      py      :     1.123315
      dz2     :     0.016080  d :     0.210937
      dxz     :     0.009271
      dyz     :     0.048914
      dx2y2   :     0.063577
      dxy     :     0.073095
      f0      :     0.001078  f :     0.018615
      f+1     :     0.000785
      f-1     :     0.001813
      f+2     :     0.000316
      f-2     :     0.003422
      f+3     :     0.003880
      f-3     :     0.007321

  1 N s       :     2.973927  s :     2.973927
      pz      :     1.118108  p :     3.595449
      px      :     1.354031
      py      :     1.123309
      dz2     :     0.016079  d :     0.210929
      dxz     :     0.009269
      dyz     :     0.048911
      dx2y2   :     0.063580
      dxy     :     0.073091
      f0      :     0.001078  f :     0.018614
      f+1     :     0.000785
      f-1     :     0.001813
      f+2     :     0.000316
      f-2     :     0.003422
      f+3     :     0.003880
      f-3     :     0.007320

  2 N s       :     2.971567  s :     2.971567
      pz      :     1.219291  p :     3.654956
      px      :     1.105484
      py      :     1.330180
      dz2     :     0.015829  d :     0.198341
      dxz     :     0.043366
      dyz     :     0.010846
      dx2y2   :     0.060257
      dxy     :     0.068043
      f0      :     0.001072  f :     0.018367
      f+1     :     0.001751
      f-1     :     0.000855
      f+2     :     0.000192
      f-2     :     0.003707
      f+3     :     0.006813
      f-3     :     0.003975

  3 N s       :     2.971513  s :     2.971513
      pz      :     1.219353  p :     3.654953
      px      :     1.105424
      py      :     1.330176
      dz2     :     0.015784  d :     0.198360
      dxz     :     0.043384
      dyz     :     0.010804
      dx2y2   :     0.060298
      dxy     :     0.068091
      f0      :     0.001070  f :     0.018369
      f+1     :     0.001754
      f-1     :     0.000851
      f+2     :     0.000186
      f-2     :     0.003709
      f+3     :     0.006821
      f-3     :     0.003977

  4 C s       :     2.763996  s :     2.763996
      pz      :     1.037692  p :     3.027850
      px      :     0.990796
      py      :     0.999362
      dz2     :     0.048273  d :     0.361237
      dxz     :     0.069571
      dyz     :     0.067474
      dx2y2   :     0.085646
      dxy     :     0.090273
      f0      :     0.004421  f :     0.040410
      f+1     :     0.003634
      f-1     :     0.003582
      f+2     :     0.005434
      f-2     :     0.004687
      f+3     :     0.011206
      f-3     :     0.007446

  5 C s       :     2.763991  s :     2.763991
      pz      :     1.037681  p :     3.027839
      px      :     0.990830
      py      :     0.999329
      dz2     :     0.048326  d :     0.361251
      dxz     :     0.069613
      dyz     :     0.067377
      dx2y2   :     0.085592
      dxy     :     0.090343
      f0      :     0.004425  f :     0.040411
      f+1     :     0.003632
      f-1     :     0.003579
      f+2     :     0.005434
      f-2     :     0.004689
      f+3     :     0.011216
      f-3     :     0.007436

  6 C s       :     2.764001  s :     2.764001
      pz      :     1.037754  p :     3.027842
      px      :     0.990761
      py      :     0.999327
      dz2     :     0.047258  d :     0.361230
      dxz     :     0.070555
      dyz     :     0.067733
      dx2y2   :     0.085684
      dxy     :     0.090000
      f0      :     0.004339  f :     0.040409
      f+1     :     0.003721
      f-1     :     0.003639
      f+2     :     0.005380
      f-2     :     0.004629
      f+3     :     0.011263
      f-3     :     0.007438

  7 C s       :     2.764001  s :     2.764001
      pz      :     1.037749  p :     3.027832
      px      :     0.990722
      py      :     0.999362
      dz2     :     0.047290  d :     0.361234
      dxz     :     0.070461
      dyz     :     0.067800
      dx2y2   :     0.085729
      dxy     :     0.089955
      f0      :     0.004339  f :     0.040408
      f+1     :     0.003718
      f-1     :     0.003640
      f+2     :     0.005383
      f-2     :     0.004627
      f+3     :     0.011253
      f-3     :     0.007447

  8 C s       :     2.710787  s :     2.710787
      pz      :     0.830408  p :     2.787870
      px      :     0.964720
      py      :     0.992742
      dz2     :     0.041637  d :     0.623211
      dxz     :     0.069314
      dyz     :     0.120525
      dx2y2   :     0.200669
      dxy     :     0.191066
      f0      :     0.005242  f :     0.077185
      f+1     :     0.004511
      f-1     :     0.006122
      f+2     :     0.006776
      f-2     :     0.010454
      f+3     :     0.015635
      f-3     :     0.028446

  9 C s       :     2.710781  s :     2.710781
      pz      :     0.830403  p :     2.787852
      px      :     0.964561
      py      :     0.992888
      dz2     :     0.041639  d :     0.623207
      dxz     :     0.069337
      dyz     :     0.120512
      dx2y2   :     0.200636
      dxy     :     0.191083
      f0      :     0.005242  f :     0.077183
      f+1     :     0.004515
      f-1     :     0.006118
[...]
  0-1A  ->  1-1A    1.656906   13363.8   748.3   0.436253338   0.03985   0.00019  -0.19961  -0.00001
  0-1A  ->  2-1A    2.404477   19393.4   515.6   0.099179330   0.01315  -0.11465  -0.00011  -0.00091
  0-1A  ->  3-1A    3.563557   28742.0   347.9   1.237519658   0.24310   0.49303   0.00046   0.00386
  0-1A  ->  4-1A    3.740791   30171.5   331.4   0.000062837   0.00001   0.00014   0.00000  -0.00360
  0-1A  ->  5-1A    4.012519   32363.2   309.0   0.099745487   0.02206  -0.14853  -0.00013  -0.00117
  0-1A  ->  6-1A    4.167090   33609.9   297.5   0.000000259   0.00000   0.00009  -0.00023   0.00000
  0-1A  ->  7-1A    4.171185   33642.9   297.2   1.044620866   0.24019  -0.00046   0.49009   0.00004
  0-1A  ->  8-1A    4.512605   36396.6   274.8   0.000428276   0.00011  -0.00018   0.00003   0.01032
  0-1A  ->  9-1A    4.679860   37745.6   264.9   0.003118952   0.00080   0.00003  -0.02837   0.00001
  0-1A  -> 10-1A    4.775892   38520.2   259.6   0.000642147   0.00017   0.00010  -0.00009  -0.01300
  0-1A  -> 11-1A    4.872667   39300.7   254.4   0.000000016   0.00000  -0.00001  -0.00006   0.00001
  0-1A  -> 12-1A    5.067136   40869.2   244.7   0.000130329   0.00004   0.00008   0.00008  -0.00603
  0-1A  -> 13-1A    5.075393   40935.8   244.3   0.000000016   0.00000  -0.00000  -0.00007  -0.00001
  0-1A  -> 14-1A    5.192641   41881.5   238.8   0.000085203   0.00002  -0.00007  -0.00007  -0.00494
  0-1A  -> 15-1A    5.442381   43895.8   227.8   0.000774258   0.00023   0.00016  -0.00009  -0.01524
  0-1A  -> 16-1A    5.446008   43925.0   227.7   0.000027303   0.00001   0.00286   0.00016   0.00005
  0-1A  -> 17-1A    5.490885   44287.0   225.8   0.000000486   0.00000   0.00006  -0.00038  -0.00000
  0-1A  -> 18-1A    5.498865   44351.3   225.5   0.136707658   0.04144  -0.00020   0.20356   0.00001
  0-1A  -> 19-1A    5.613741   45277.9   220.9   0.000000311   0.00000   0.00001  -0.00031   0.00000
  0-1A  -> 20-1A    5.728480   46203.3   216.4   0.000000525   0.00000  -0.00002   0.00041  -0.00001
  0-1A  -> 21-1A    5.884182   47459.1   210.7   0.002671456   0.00087   0.00003  -0.02944  -0.00003
  0-1A  -> 22-1A    5.940768   47915.5   208.7   0.009545269   0.00313  -0.00006   0.05591  -0.00000
  0-1A  -> 23-1A    5.959639   48067.7   208.0   0.342634069   0.11256   0.00033  -0.33550  -0.00000
  0-1A  -> 24-1A    5.981449   48243.6   207.3   0.000769098   0.00025  -0.00011  -0.00027   0.01592
  0-1A  -> 25-1A    5.993534   48341.1   206.9   0.000001502   0.00000  -0.00003   0.00070  -0.00000
  0-1A  -> 26-1A    6.129720   49439.5   202.3   0.000000743   0.00000  -0.00000   0.00050  -0.00002
  0-1A  -> 27-1A    6.298435   50800.3   196.8   0.000261524   0.00009   0.00953   0.00002   0.00006
  0-1A  -> 28-1A    6.360839   51303.6   194.9   0.001123216   0.00039   0.00013   0.00003  -0.01984
  0-1A  -> 29-1A    6.374900   51417.0   194.5   0.000000073   0.00000  -0.00016   0.00001  -0.00001
  0-1A  -> 30-1A    6.403709   51649.4   193.6   0.000990497   0.00035  -0.00015   0.01870  -0.00001

------------------------------------------------------------------------------------------
                     CD SPECTRUM VIA TRANSITION ELECTRIC DIPOLE MOMENTS    
------------------------------------------------------------------------------------------
     Transition      Energy     Energy  Wavelength    R        MX        MY        MZ   
                      (eV)      (cm-1)    (nm)   (1e40*cgs)   (au)      (au)      (au)  
------------------------------------------------------------------------------------------
  0-1A  ->  1-1A    1.656906   13363.8   748.3  -13.61320   0.00000   0.00883   0.00019
  0-1A  ->  2-1A    2.404477   19393.4   515.6   -6.23959   0.01015   0.00002   0.00073
  0-1A  ->  3-1A    3.563557   28742.0   347.9  -62.83029  -0.03527  -0.00008   0.00002
  0-1A  ->  4-1A    3.740791   30171.5   331.4   -1.26071  -0.00088   0.00005   0.10532
  0-1A  ->  5-1A    4.012519   32363.2   309.0  -10.93137   0.02313   0.00005   0.00019
  0-1A  ->  6-1A    4.167090   33609.9   297.5    0.00002   0.00000  -0.00003   0.00002
  0-1A  ->  7-1A    4.171185   33642.9   297.2    1.81019  -0.00004   0.00120   0.00005
  0-1A  ->  8-1A    4.512605   36396.6   274.8   31.85314  -0.00880   0.00006   1.13232
  0-1A  ->  9-1A    4.679860   37745.6   264.9   24.18612   0.00030  -0.31332   0.00012
  0-1A  -> 10-1A    4.775892   38520.2   259.6   36.39882   0.00783   0.00020  -0.99860
  0-1A  -> 11-1A    4.872667   39300.7   254.4   -0.00002   0.00006   0.00008   0.00004
  0-1A  -> 12-1A    5.067136   40869.2   244.7    0.14939   0.00014  -0.00005  -0.01254
  0-1A  -> 13-1A    5.075393   40935.8   244.3    0.00001  -0.00007  -0.00004  -0.00005
  0-1A  -> 14-1A    5.192641   41881.5   238.8    5.61792   0.00412  -0.00004  -0.54230
  0-1A  -> 15-1A    5.442381   43895.8   227.8   -2.22301  -0.00031  -0.00013   0.07092
  0-1A  -> 16-1A    5.446008   43925.0   227.7    0.27015   0.07052   0.00005  -0.00015
  0-1A  -> 17-1A    5.490885   44287.0   225.8    0.00004   0.00004  -0.00004  -0.00001
  0-1A  -> 18-1A    5.498865   44351.3   225.5    0.15813  -0.00007   0.00033  -0.00013
  0-1A  -> 19-1A    5.613741   45277.9   220.9    0.00005   0.00002  -0.00007   0.00004
  0-1A  -> 20-1A    5.728480   46203.3   216.4   -0.00008   0.00002  -0.00009  -0.00001
  0-1A  -> 21-1A    5.884182   47459.1   210.7   -1.13863  -0.00004   0.01827   0.00011
  0-1A  -> 22-1A    5.940768   47915.5   208.7   19.19979  -0.00014   0.15063   0.00013
  0-1A  -> 23-1A    5.959639   48067.7   208.0  -19.01780  -0.00002   0.02609   0.00030
  0-1A  -> 24-1A    5.981449   48243.6   207.3   -9.88541   0.00229   0.00006  -0.28601
  0-1A  -> 25-1A    5.993534   48341.1   206.9   -0.00035  -0.00006  -0.00023  -0.00003
  0-1A  -> 26-1A    6.129720   49439.5   202.3   -0.00025  -0.00013  -0.00023  -0.00004
  0-1A  -> 27-1A    6.298435   50800.3   196.8   -5.08423  -0.26803  -0.00025  -0.00226
  0-1A  -> 28-1A    6.360839   51303.6   194.9   -2.60259  -0.00058   0.00006   0.06545
  0-1A  -> 29-1A    6.374900   51417.0   194.5    0.00000  -0.00013  -0.00178   0.00007
  0-1A  -> 30-1A    6.403709   51649.4   193.6  -13.59092   0.00027  -0.36259   0.00022

------------------------------------------------------------------------------------------
                     CD SPECTRUM VIA TRANSITION VELOCITY DIPOLE MOMENTS    
------------------------------------------------------------------------------------------
     Transition      Energy     Energy  Wavelength    R        MX        MY        MZ   
                      (eV)      (cm-1)    (nm)   (1e40*cgs)   (au)      (au)      (au)  
------------------------------------------------------------------------------------------
  0-1A  ->  1-1A    1.656906   13363.8   748.3  -13.64041   0.00000   0.00883   0.00019
  0-1A  ->  2-1A    2.404477   19393.4   515.6   -6.21428   0.01015   0.00002   0.00073
  0-1A  ->  3-1A    3.563557   28742.0   347.9  -62.60879  -0.03527  -0.00008   0.00002
  0-1A  ->  4-1A    3.740791   30171.5   331.4   -1.29955  -0.00088   0.00005   0.10532
  0-1A  ->  5-1A    4.012519   32363.2   309.0  -10.98246   0.02313   0.00005   0.00019
  0-1A  ->  6-1A    4.167090   33609.9   297.5    0.00002   0.00000  -0.00003   0.00002
  0-1A  ->  7-1A    4.171185   33642.9   297.2    1.81222  -0.00004   0.00120   0.00005
  0-1A  ->  8-1A    4.512605   36396.6   274.8   33.22503  -0.00880   0.00006   1.13232
  0-1A  ->  9-1A    4.679860   37745.6   264.9   24.36297   0.00030  -0.31332   0.00012
  0-1A  -> 10-1A    4.775892   38520.2   259.6   34.87711   0.00783   0.00020  -0.99860
  0-1A  -> 11-1A    4.872667   39300.7   254.4   -0.00001   0.00006   0.00008   0.00004
  0-1A  -> 12-1A    5.067136   40869.2   244.7    0.19148   0.00014  -0.00005  -0.01254
  0-1A  -> 13-1A    5.075393   40935.8   244.3    0.00001  -0.00007  -0.00004  -0.00005
  0-1A  -> 14-1A    5.192641   41881.5   238.8    6.61442   0.00412  -0.00004  -0.54230
  0-1A  -> 15-1A    5.442381   43895.8   227.8   -2.54763  -0.00031  -0.00013   0.07092
  0-1A  -> 16-1A    5.446008   43925.0   227.7    0.47477   0.07052   0.00005  -0.00015
  0-1A  -> 17-1A    5.490885   44287.0   225.8    0.00004   0.00004  -0.00004  -0.00001
  0-1A  -> 18-1A    5.498865   44351.3   225.5    0.15693  -0.00007   0.00033  -0.00013
  0-1A  -> 19-1A    5.613741   45277.9   220.9    0.00005   0.00002  -0.00007   0.00004
  0-1A  -> 20-1A    5.728480   46203.3   216.4   -0.00008   0.00002  -0.00009  -0.00001
  0-1A  -> 21-1A    5.884182   47459.1   210.7   -1.17246  -0.00004   0.01827   0.00011
  0-1A  -> 22-1A    5.940768   47915.5   208.7   18.18654  -0.00014   0.15063   0.00013
  0-1A  -> 23-1A    5.959639   48067.7   208.0  -18.84496  -0.00002   0.02609   0.00030
  0-1A  -> 24-1A    5.981449   48243.6   207.3   -9.76751   0.00229   0.00006  -0.28601
  0-1A  -> 25-1A    5.993534   48341.1   206.9   -0.00035  -0.00006  -0.00023  -0.00003
  0-1A  -> 26-1A    6.129720   49439.5   202.3   -0.00024  -0.00013  -0.00023  -0.00004
  0-1A  -> 27-1A    6.298435   50800.3   196.8   -5.20233  -0.26803  -0.00025  -0.00226
  0-1A  -> 28-1A    6.360839   51303.6   194.9   -2.61954  -0.00058   0.00006   0.06545
  0-1A  -> 29-1A    6.374900   51417.0   194.5    0.00000  -0.00013  -0.00178   0.00007
  0-1A  -> 30-1A    6.403709   51649.4   193.6  -13.58232   0.00027  -0.36259   0.00022

Total run time:     4757.673 sec

           *** ORCA-CIS/TD-DFT FINISHED WITHOUT ERROR ***
-----------------------
CIS/TD-DFT TOTAL ENERGY
-----------------------

    E(SCF)  =  -1190.819180173 Eh
    DE(CIS) =      0.060890176 Eh (Root  1)
    ----------------------------- ---------
    E(tot)  =  -1190.758289998 Eh


Maximum memory used throughout the entire CIS-calculation: 2721.1 MB
=> NOW LEAVING ORCA_CIS

-------------------------   --------------------
FINAL SINGLE POINT ENERGY     -1190.758289997507
-------------------------   --------------------



           ************************************************************
           *        Program running with 4 parallel MPI-processes     *
           *              working on a common directory               *
           ************************************************************

------------------------------------------------------------------------------
                              ORCA PROPERTY CALCULATIONS
------------------------------------------------------------------------------

GBWName                                 ... tddft.gbw
Number of atoms                         ...     41
Number of basis functions               ...    872
Max core memory                         ...   3000 MB

Electric properties:
Dipole moment                           ... YES
Quadrupole moment                       ...  NO
Static polarizability (Dipole/Dipole)   ...  NO
Static polarizability (Dipole/Quad.)    ...  NO
Static polarizability (Quad./Quad.)     ...  NO
Static polarizability (Velocity)        ...  NO
Static hyperpolarizability              ...  NO

Atomic electric properties:
Dipole moment                           ...  NO
Quadrupole moment                       ...  NO
Static polarizability                   ...  NO

Choice of electric origin               ... Center of mass
Position of electric origin             ...    -0.003613    -0.019229     0.068836

General magnetic properties:
Magnetizability                         ...  NO

EPR properties:
g-Tensor (aka g-matrix)                 ...  NO
Zero-Field splitting spin-orbit         ...  NO
Zero-field splitting spin-spin          ...  NO
Hyperfine couplings                     ...  NO (   0 nuclei)
Quadrupole couplings                    ...  NO (   0 nuclei)
Contact density                         ...  NO (   0 nuclei)

NMR properties:
Chemical shifts                         ...  NO (   0 nuclei)
Spin-rotation constants                 ...  NO (   0 nuclei)
Spin-spin couplings                     ...  NO (   0 nuclei,    0 pairs)

Choice of magnetic origin               ... GIAO
Position of magnetic origin             ...     0.000000     0.000000     0.000000

Properties with geometric perturbations:
SCF Hessian                             ...  NO
IR spectrum                             ...  NO
VCD spectrum                            ...  NO
X-ray spectroscopy properties:
SCF XES/XAS/RIXS spectra                ...  NO

SCF SOC stabilization energy            ...  NO
Diagonal Born-Oppenheimer correction    ...  NO

-------------
DIPOLE MOMENT
-------------

Method             : SCF
Type of density    : Electron Density
Multiplicity       :   1
Irrep              :   0
Energy             : -1190.8191801730913539 Eh
Basis              : AO
                                X                 Y                 Z
Electronic contribution:      0.000925970       0.001908520      -0.000412232
Nuclear contribution   :     -0.000660183       0.000201001       0.000373176
                        -----------------------------------------
Total Dipole Moment    :      0.000265787       0.002109522      -0.000039056
                        -----------------------------------------
Magnitude (a.u.)       :      0.002126558
Magnitude (Debye)      :      0.005405281



--------------------
Rotational spectrum 
--------------------
 
Rotational constants in cm-1:             0.008915             0.008207             0.004290 
Rotational constants in MHz :           267.260438           246.047427           128.597541 

Dipole components along the rotational axes: 
x,y,z [a.u.] :     0.000267    -0.002109    -0.000041 
x,y,z [Debye]:     0.000680    -0.005361    -0.000105 

 

Dipole moment calculation done in   0.1 sec 

Maximum memory used throughout the entire PROP-calculation: 90.9 MB

--------------------------------
SUGGESTED CITATIONS FOR THIS RUN
--------------------------------

Below you find a list of papers that are relevant to this ORCA run
We neither can nor want to force you to cite these papers, but we appreciate if you do
You receive ORCA, which is the product of decades of hard work by many enthusiastic individuals, for free
The only thing we kindly ask in return is that you cite our papers,
We deeply appreciate it, if you show your appreciation for ORCA by not just citing the generic ORCA reference.

Please note that relegating all ORCA citations to the supporting information does *not* help us.
SI sections are not indexed - citations you put there will not count into any citation statistics
But we need these citations in order to attract the funding resources that allow us to do what we are doing

Therefore, if you are a happy ORCA user, please consider citing a few of the papers listed below in the main body of your paper

In addition to the list printed below, the program has created the file tddft.bibtex that contains the list in bibtex format
You can import this file easily into all common literature databanks and citation aid programs

It goes without saying that in many instances, there are alternative algorithms to achieve similar
results as the ones you have gotten from ORCA. It is, of course, also the case that in some instances
ORCA just re-implements algorithms worked out by others. We are fully aware of that and we are also
fully appreciative of our colleagues work. Hence this citation list should not be read as indicating
that the listed papers, which are focused on our own work, are the only ones worth citing. It simply
meant to make it easier for users to cite ORCA specific papers. It is not a substitute for doing your
own literature research and citing the relevant literature in a scientifically appropriate manner.

List of essential papers. We consider these as the minimum necessary citations

  1. Neese, F.
     Software update: the ORCA program system, version 6.0
     WIRES Comput. Molec. Sci. 2025 15(1), e70019
     doi.org/10.1002/wcms.70019

List of papers to cite with high priority. The work reported in these papers was absolutely
necessary for this run to complete.
Our perspective: the developers of density functionals and basis sets usually get cited in chemistry papers
Good! But without the algorithms to do something with them, the functionals or basis sets would not do anything.
Hence, in our opinion, the algorithm design and method developments papers are equally worthy of getting cited

  1. Neese, F.; Olbrich, G.
     Efficient use of the resolution of the identity approximation in time-dependent density functional calculations with hybrid density functionals
     Chem. Phys. Lett. 2002 362 , 170-178
     doi.org/10.1016/s0009-2614(02)01053-9
  2. Neese, F.
     An improvement of the resolution of the identity approximation for the formation of the Coulomb matrix
     J. Comp. Chem. 2003 24(14), 1740-1747
     doi.org/10.1002/jcc.10318
  3. Neese, F.; Wennmohs, F.; Hansen, A.; Becker, U.
     Efficient, approximate and parallel Hartree-Fock and hybrid DFT calculations. A 'chain-of-spheres' algorithm for the Hartree-Fock exchange
     Chem. Phys. 2009 356(1-3), 98-109
     doi.org/10.1016/j.chemphys.2008.10.036
  4. Garcia-Rates, M.; Neese, F.
     Effect of the Solute Cavity on the Solvation Energy and its Derivatives within the Framework of the Gaussian Charge Scheme
     J. Comput. Chem. 2020 41 , 922-939
     doi.org/10.1002/jcc.26139
  5. Helmich-Paris, B.; de Souza, B.; Neese, F.; Izsák, R.
     An improved chain of spheres for exchange algorithm
     J. Chem. Phys. 2021 155(10), 104109
     doi.org/10.1063/5.0058766
  6. Neese, F.
     The SHARK Integral Generation and Digestion System
     J. Comp. Chem. 2022 44(3), 381
     doi.org/10.1002/jcc.26942

List of suggested additional citations. These are papers that are important in the 'surrounding' of 
of this run, or papers that preceded the highly important papers. If you like your results we are grateful for a citation.

  1. Izsak, R.; Neese, F.
     An overlap fitted chain of spheres exchange method
     J. Chem. Phys. 2011 135 , 144105
     doi.org/10.1063/1.3646921
  2. Izsak, R.; Hansen, A.; Neese, F.
     The resolution of identity and chain of spheres approximations for the LPNO-CCSD singles Fock term
     Molec. Phys. 2012 110 , 2413-2417
     doi.org/10.1080/00268976.2012.687466
  3. Neese, F.
     The ORCA program system
     WIRES Comput. Molec. Sci. 2012 2(1), 73-78
     doi.org/10.1002/wcms.81
  4. Izsak, R.; Neese, F.; Klopper, W.
     Robust fitting techniques in the chain of spheres approximation to the Fock exchange: The role of the complementary space
     J. Chem. Phys. 2013 139 , 
     doi.org/10.1063/1.4819264
  5. Neese, F.
     Software update: the ORCA program system, version 4.0
     WIRES Comput. Molec. Sci. 2018 8(1), 1-6
     doi.org/10.1002/wcms.1327
  6. Neese, F.; Wennmohs, F.; Becker, U.; Riplinger, C.
     The ORCA quantum chemistry program package
     J. Chem. Phys. 2020 152(22), 224108
     doi.org/10.1063/5.0004608
  7. Neese, F.
     Software update: The ORCA program system—Version 5.0
     WIRES Comput. Molec. Sci. 2022 12(1), e1606
     doi.org/10.1002/wcms.1606

List of optional additional citations

  1. Neese, F.
     Approximate second-order SCF convergence for spin unrestricted wavefunctions
     Chem. Phys. Lett. 2000 325(1-3), 93-98
     doi.org/10.1016/s0009-2614(00)00662-x

Timings for individual modules:

Sum of individual times          ...     7082.701 sec (= 118.045 min)
Startup calculation              ...       30.206 sec (=   0.503 min)   0.4 %
SCF iterations                   ...     2291.899 sec (=  38.198 min)  32.4 %
Property integrals               ...        1.149 sec (=   0.019 min)   0.0 %
Property calculations            ...        1.170 sec (=   0.019 min)   0.0 %
CIS module                       ...     4758.278 sec (=  79.305 min)  67.2 %
                             ****ORCA TERMINATED NORMALLY****
TOTAL RUN TIME: 0 days 1 hours 58 minutes 3 seconds 329 msec
