
                                 *****************
                                 * O   R   C   A *
                                 *****************

                                            #,                                       
                                            ###                                      
                                            ####                                     
                                            #####                                    
                                            ######                                   
                                           ########,                                 
                                     ,,################,,,,,                         
                               ,,#################################,,                 
                          ,,##########################################,,             
                       ,#########################################, ''#####,          
                    ,#############################################,,   '####,        
                  ,##################################################,,,,####,       
                ,###########''''           ''''###############################       
              ,#####''   ,,,,##########,,,,          '''####'''          '####       
            ,##' ,,,,###########################,,,                        '##       
           ' ,,###''''                  '''############,,,                           
         ,,##''                                '''############,,,,        ,,,,,,###''
      ,#''                                            '''#######################'''  
     '                                                          ''''####''''         
             ,#######,   #######,   ,#######,      ##                                
            ,#'     '#,  ##    ##  ,#'     '#,    #''#        ,####,    ,#,          
            ##       ##  ##   ,#'  ##            #'  '#       #'       ,# #          
            ##       ##  #######   ##           ,######,      #####,      #          
            '#,     ,#'  ##    ##  '#,     ,#' ,#      #,     #,   #      #          
             '#######'   ##     ##  '#######'  #'      '#     '####' #    #          



                #########################################################
                #                        -***-                          #
                #          Department of theory and spectroscopy        #
                #                                                       #
                #                      Frank Neese                      #
                #                                                       #
                #     Directorship, Architecture, Infrastructure        #
                #                    SHARK, DRIVERS                     #
                #        Core code/Algorithms in most modules           #
                #                                                       #
                #        Max Planck Institute fuer Kohlenforschung      #
                #                Kaiser Wilhelm Platz 1                 #
                #                 D-45470 Muelheim/Ruhr                 #
                #                      Germany                          #
                #                                                       #
                #                  All rights reserved                  #
                #                        -***-                          #
                #########################################################


                         Program Version 6.1.1  -  RELEASE   -
                                (GIT: $487d211c$)
                          ($2025-11-21 10:33:24 +0100$)


 With contributions from (in alphabetic order):
[Max-Planck-Institut fuer Kohlenforschung]                               
  Daniel Aravena         : Magnetic Suceptibility                        
  Michael Atanasov       : Ab Initio Ligand Field Theory (pilot matlab implementation)
  Alexander A. Auer      : GIAO ZORA, VPT2 properties, NMR spectrum      
  Ute Becker             : All parallelization in ORCA, NUMFREQ, NUMCALC 
  Giovanni Bistoni       : ED, misc. LED, open-shell LED, HFLD           
  Dmytro Bykov           : pre 5.0 version of the SCF Hessian            
  Marcos Casanova-Páez   : Triplet and SCS-CIS(D). UHF-(DLPNO)-IP/EA/STEOM-CCSD. UHF-CVS-IP/STEOM-CCSD   
  Vijay G. Chilkuri      : MRCI spin determinant printing, contributions to CSF-ICE 
  Pauline Colinet        : FMM embedding                                 
  Dipayan Datta          : RHF DLPNO-CCSD density                        
  Achintya Kumar Dutta   : EOM-CC, STEOM-CC                              
  Nicolas Foglia         : Exact transition moments, OPA infrastructure, MCD improvements    
  Dmitry Ganyushin       : Spin-Orbit,Spin-Spin,Magnetic field MRCI      
  Miquel Garcia-Rates    : C-PCM and meta-GGA Hessian, CCSD/C-PCM, Gaussian charge scheme 
  Tiago L. C. Gouveia    : GS-ROHF, GS-ROCIS                             
  Yang Guo               : DLPNO-NEVPT2, F12-NEVPT2, CIM, IAO-localization        
  Andreas Hansen         : Spin unrestricted coupled pair/coupled cluster methods 
  Ingolf Harden          : AUTO-CI MPn and infrastructure                
  Benjamin Helmich-Paris : MC-RPA, TRAH-(SCF,CASSCF), AVAS, COSX integrals, SCF dyn. polar., MC-PDFT, srDFT 
  Lee Huntington         : MR-EOM, pCC                                   
  Robert Izsak           : Overlap fitted RIJCOSX, COSX-SCS-MP3, EOM     
  Riya Kayal             : Wick's Theorem for AUTO-CI, AUTO-CI UHF-CCSDT 
  Emily Kempfer          : AUTO-CI RHF CISDT and CCSDT, approximate NEVPT4
  Christian Kollmar      : KDIIS, OOCD, Brueckner-CCSD(T), CCSD density, CASPT2, CASPT2-K, improved NEVPT2 
  Axel Koslowski         : Symmetry handling                             
  Simone Kossmann        : meta-GGA functionals, TD-DFT gradient, OOMP2, (MP2 Hessian; deprecated post 5.0) 
  Lucas Lang             : DCDCAS, Hyperfine gauge corrections, ICE-SOC+SSC
  Marvin Lechner         : AUTO-CI (C++ implementation), FIC-MRCC        
  Spencer Leger          : CASSCF response                               
  Dagmar Lenk            : GEPOL surface, SMD, ORCA-2-JSON               
  Dimitrios Liakos       : Extrapolation schemes; Compound Job, Property file
  Dimitrios Manganas     : Further ROCIS development; embedding schemes. LFT, Crystal Embedding 
  Dimitrios Pantazis     : SARC Basis sets                               
  Anastasios Papadopoulos: AUTO-CI, single reference methods and gradients 
  Taras Petrenko         : pre 6.0 DFT Hessian and TD-DFT gradient,  ECA, NRVS 
  Petra Pikulova         : Analytic Raman intensities                    
  Peter Pinski           : DLPNO-MP2, DLPNO-MP2 Gradient                 
  Shashank Vittal Rao    : ES-AILFT, MagRelax                            
  Christoph Reimann      : Effective Core Potentials                     
  Marius Retegan         : Local ZFS, SOC                                
  Christoph Riplinger    : Optimizer, TS searches, QM/MM, DLPNO-CCSD(T), (RO)-DLPNO pert. Triples 
  Michael Roemelt        : Original ROCIS implementation, recursive CI coupling coefficients
  Masaaki Saitow         : Open-shell DLPNO-CCSD energy and density      
  Barbara Sandhoefer     : DKH picture change effects                    
  Yorick L. A. Schmerwitz: GMF and freeze-and-release deltaSCF, NEB S-IDPP initial path                    
  Kantharuban Sivalingam : CASSCF convergence/infrastructure, NEVPT2, NEVPT3, NEVPT4(SD), FIC-MRCI and CEPA variants
  Bernardo de Souza      : ESD, SOC TD-DFT                               
  Georgi L. Stoychev     : AutoAux, RI-MP2 NMR, DLPNO-MP2 response, X2C  
  Van Anh Tran           : RI-MP2 g-tensors                              
  Willem Van den Heuvel  : Paramagnetic NMR                              
  Zikuan Wang            : NOTCH, Electric field optimization            
  Frank Wennmohs         : Technical directorship and infrastructure     
  Hang Xu                : AUTO-CI-Response properties                   
                                                                         
[FACCTs GmbH]                                                            
  Markus Bursch, Nicolas Foglia, Miquel Garcia-Rates, Ingolf Harden, Hagen Neugebauer, Anastasios Papadopoulos, 
  Christoph Riplinger, Bernardo de Souza, Georgi L. Stoychev                                                    
                                                                 
  APM, various basis sets, CI-OPT, improved COSX, DLPNO-Multilevel,           
  DOCKER, DRACO, updates on ESD, Fragmentator, GOAT, IRC, LR-CPCM, L-BFGS, MBIS, meta-GGA TD-DFT gradient, ML-optimized integration grids, 
  MM, NACMEs, nearIR, NEB, NEB-TS, NL-DFT gradient (VV10), 2- and 3-layer-ONIOM, interface openCOSMO-RS, QMMM,   
  Crystal-QMMM, RESP, rigid body optimization, SF, symmetry and pop. for TD-DFT, various functionals, SOLVATOR                                   
                                                                         
[Other institutions]                                                     
  V. Asgeirsson          : NEB                                           
  Christoph Bannwarth    : sTDA-DFT, sTD-DFT, PBEh-3c, B97-3c, D3        
  Giovanni Bistoni       : ETS/NOCV, ADLD/ADEX, COVALED                  
  Martin Brehm           : Molecular dynamics                            
  Ronald Cardenas        : ETS/NOCV                                      
  Martina Colucci        : COVALED                                       
  Sebastian Ehlert       : rSCAN, r2SCAN, r2SCAN-3c, D4, dhf basis sets  
  Marvin Friede          : D4 for Fr, Ra, Ac-Lr                          
  Lars Goerigk           : TD-DFT with DH, B97 family of functionals     
  Stefan Grimme          : VdW corrections, initial TS optimization, DFT functionals, gCP, sTDA/sTD-DF 
  Waldemar Hujo          : DFT-NL                                        
  H. Jonsson             : NEB                                           
  Holger Kruse           : gCP                                           
  Marcel Mueller         : wB97X-3c, vDZP basis set                      
  Hagen Neugebauer       : wr2SCAN, Native XTB                           
  Gianluca Regni         : ADLD/ADEX                                     
  Tobias Risthaus        : pre 6.0 range-separated hybrid DFT and stability analysis
  Lukas Wittmann         : regularized MP2, r2SCAN double-hybrids, wr2SCAN        
                                                                         
We gratefully acknowledge several colleagues who have allowed us to      
interface, adapt or use parts of their codes:                            
  Ed Valeev, F. Pavosevic, A. Kumar             : LibInt (2-el integral package), F12 methods 
  Garnet Chan, S. Sharma, J. Yang, R. Olivares  : DMRG                   
  Ulf Ekstrom                                   : XCFun DFT Library      
  Mihaly Kallay                                 : mrcc  (arbitrary order and MRCC methods)
  Frank Weinhold                                : gennbo (NPA and NBO analysis)           
  Simon Mueller                                 : openCOSMO-RS                            
  Christopher J. Cramer and Donald G. Truhlar   : smd solvation model                     
  S Lehtola, MJT Oliveira, MAL Marques          : LibXC Library                           
  Liviu Ungur et al                             : ANISO software                          


 Your calculation uses the libint2 library for the computation of 2-el integrals
 For citations please refer to: http://libint.valeyev.net

 Your ORCA version has been built with support for libXC version: 7.0.0
 For citations please refer to: https://libxc.gitlab.io

 This ORCA versions uses:
   CBLAS   interface :  Fast vector & matrix operations
   LAPACKE interface :  Fast linear algebra routines
   SCALAPACK package :  Parallel linear algebra routines
   Shared memory     :  Shared parallel matrices
   BLAS/LAPACK       :  OpenBLAS 0.3.29  USE64BITINT DYNAMIC_ARCH NO_AFFINITY Haswell SINGLE_THREADED
        Core in use  :  Haswell
   Copyright (c) 2011-2014, The OpenBLAS Project


  ***********************************
  * Starting time: Sun Jul  5 19:06:57 2026
  * Host name:     steezy
  * Process ID:    1286907
  * Working dir.:  /home/jannes/chlorophyll-ladder/007-mg-core-ladder/mgbacteriochlorin/02_tddft/wb97xd
  ***********************************

NOTE: MaxCore=3000 MB was set to SCF,MP2,MDCI,CIPSI,MRCI,RASCI and CIS
      => If you want to overwrite this, your respective input block should be placed after the MaxCore statement


***************************************
The coordinates will be read from file: /home/jannes/chlorophyll-ladder/007-mg-core-ladder/mgbacteriochlorin/01_opt/mgbacteriochlorin_opt_b3lypd4_tzvp.xyz
***************************************


Your calculation utilizes the atom-pairwise dispersion correction
with the zero-damping scheme (D30)


XCFun DFT library Copyright 2009-2010 Ulf Ekstrom and contributors.
See http://admol.org/xcfun for more information.
This is free software; see the source code for copying conditions.
There is ABSOLUTELY NO WARRANTY; not even for MERCHANTABILITY or FITNESS FOR A PARTICULAR PURPOSE.
For details see the documentation.
Scientific users of this library should cite U. Ekstrom, L. Visscher, R. Bast, A. J. Thorvaldsen and K. Ruud;
J.Chem.Theor.Comp. 2010, DOI: 10.1021/ct100117s
XCFun Version 0.99 

================================================================================

----- Orbital basis set information -----
Your calculation utilizes the basis: def2-TZVP
   F. Weigend and R. Ahlrichs, Phys. Chem. Chem. Phys. 7, 3297 (2005).

----- AuxJ basis set information -----
Your calculation utilizes the auxiliary basis: def2/J
   H-Rn: F. Weigend, Phys. Chem. Chem. Phys. 8, 1057 (2006).
   Fr-Lr: K. Eichkorn, F. Weigend, O. Treutler, R. Ahlrichs; Theor. Chem. Acc. 97, 119 (1997).

================================================================================
                                        WARNINGS
                       Please study these warnings very carefully!
================================================================================


WARNING: CIS/ROCIS methods need fully converged wavefunctions
  ===> : Setting SCFConvForced true
         You can overwrite this default with %scf ConvForced false 


================================================================================
                                       INPUT FILE
================================================================================
NAME = tddft.inp
|  1> %pal nprocs 4 end
|  2> %maxcore 3000
|  3> ! wB97X-D3 def2-TZVP def2/J RIJCOSX DefGrid3 TightSCF
|  4> %tddft
|  5>   nroots 30
|  6>   triplets false
|  7> end
|  8> * xyzfile 0 1 /home/jannes/chlorophyll-ladder/007-mg-core-ladder/mgbacteriochlorin/01_opt/mgbacteriochlorin_opt_b3lypd4_tzvp.xyz
|  9> 
| 10>                          ****END OF INPUT****
================================================================================

                       ****************************
                       * Single Point Calculation *
                       ****************************

---------------------------------
CARTESIAN COORDINATES (ANGSTROEM)
---------------------------------
  N     -2.124578   -0.012303    0.019619
  N      2.120702   -0.008182    0.053311
  N      0.000054   -2.042965    0.036072
  N     -0.003922    2.022643    0.036768
  C     -4.365647   -0.772052   -0.118068
  C      4.363206   -0.763605    0.191137
  C     -4.368868    0.743331    0.123418
  C      4.363545    0.751732   -0.050582
  C     -2.893435   -1.127457   -0.033347
  C      2.891729   -1.121890    0.105994
  C     -2.896171    1.101445    0.061023
  C      2.890180    1.107061    0.012189
  C     -1.099225   -2.861182    0.000405
  C      1.100883   -2.859069    0.071901
  C     -1.105169    2.838701    0.055116
  C      1.095772    2.840793    0.018125
  C     -2.428367   -2.424151   -0.040149
  C      2.429194   -2.419482    0.112495
  C     -2.433870    2.399066    0.075036
  C      2.425350    2.403775   -0.001591
  C     -0.680956   -4.229545    0.012980
  C      0.685237   -4.228237    0.059463
  C     -0.689363    4.207941    0.048969
  C      0.677354    4.209237    0.023929
  H     -4.752237   -1.026638   -1.108895
  H     -4.959962   -1.326894    0.608414
  H      4.749790   -1.017167    1.182234
  H      4.958957   -1.317434   -0.534930
  H     -4.953125    1.297020   -0.612043
  H     -4.770793    0.997360    1.108263
  H      4.946888    1.306572    0.684739
  H      4.764732    1.006428   -1.035547
  H     -3.179766   -3.203559   -0.079566
  H      3.182074   -3.197459    0.151893
  H     -3.187309    3.176996    0.103002
  H      3.177260    3.183189   -0.029363
  H     -1.343528   -5.080762   -0.009530
  H      1.349426   -5.078189    0.082157
  H     -1.354064    5.057708    0.060979
  H      1.340439    5.060262    0.011412
  Mg    -0.001641   -0.010087    0.036418

----------------------------
CARTESIAN COORDINATES (A.U.)
----------------------------
  NO LB      ZA    FRAG     MASS         X           Y           Z
   0 N     7.0000    0    14.007   -4.014871   -0.023249    0.037074
   1 N     7.0000    0    14.007    4.007547   -0.015462    0.100743
   2 N     7.0000    0    14.007    0.000102   -3.860643    0.068165
   3 N     7.0000    0    14.007   -0.007411    3.822241    0.069481
   4 C     6.0000    0    12.011   -8.249878   -1.458967   -0.223116
   5 C     6.0000    0    12.011    8.245265   -1.443005    0.361196
   6 C     6.0000    0    12.011   -8.255964    1.404693    0.233226
   7 C     6.0000    0    12.011    8.245904    1.420568   -0.095586
   8 C     6.0000    0    12.011   -5.467801   -2.130585   -0.063016
   9 C     6.0000    0    12.011    5.464575   -2.120065    0.200300
  10 C     6.0000    0    12.011   -5.472971    2.081430    0.115316
  11 C     6.0000    0    12.011    5.461648    2.092042    0.023034
  12 C     6.0000    0    12.011   -2.077234   -5.406851    0.000765
  13 C     6.0000    0    12.011    2.080367   -5.402857    0.135874
  14 C     6.0000    0    12.011   -2.088466    5.364367    0.104155
  15 C     6.0000    0    12.011    2.070710    5.368321    0.034251
  16 C     6.0000    0    12.011   -4.588949   -4.580981   -0.075870
  17 C     6.0000    0    12.011    4.590511   -4.572158    0.212586
  18 C     6.0000    0    12.011   -4.599348    4.533577    0.141797
  19 C     6.0000    0    12.011    4.583247    4.542477   -0.003006
  20 C     6.0000    0    12.011   -1.286820   -7.992681    0.024528
  21 C     6.0000    0    12.011    1.294910   -7.990210    0.112369
  22 C     6.0000    0    12.011   -1.302708    7.951855    0.092538
  23 C     6.0000    0    12.011    1.280014    7.954306    0.045220
  24 H     1.0000    0     1.008   -8.980427   -1.940064   -2.095508
  25 H     1.0000    0     1.008   -9.372970   -2.507465    1.149735
  26 H     1.0000    0     1.008    8.975803   -1.922168    2.234098
  27 H     1.0000    0     1.008    9.371070   -2.489590   -1.010871
  28 H     1.0000    0     1.008   -9.360049    2.451013   -1.156593
  29 H     1.0000    0     1.008   -9.015493    1.884737    2.094314
  30 H     1.0000    0     1.008    9.348264    2.469063    1.293968
  31 H     1.0000    0     1.008    9.004039    1.901874   -1.956899
  32 H     1.0000    0     1.008   -6.008887   -6.053850   -0.150357
  33 H     1.0000    0     1.008    6.013249   -6.042321    0.287037
  34 H     1.0000    0     1.008   -6.023141    6.003652    0.194646
  35 H     1.0000    0     1.008    6.004152    6.015356   -0.055489
  36 H     1.0000    0     1.008   -2.538900   -9.601249   -0.018009
  37 H     1.0000    0     1.008    2.550046   -9.596387    0.155255
  38 H     1.0000    0     1.008   -2.558811    9.557682    0.115234
  39 H     1.0000    0     1.008    2.533064    9.562509    0.021566
  40 Mg   12.0000    0    24.305   -0.003102   -0.019062    0.068819

--------------------------------
INTERNAL COORDINATES (ANGSTROEM)
--------------------------------
 N      0   0   0     0.000000000000     0.00000000     0.00000000
 N      1   0   0     4.245416085717     0.00000000     0.00000000
 N      2   1   0     2.939011375942    43.75967239     0.00000000
 N      1   2   3     2.939129070827    43.76187171   180.00255177
 C      1   2   3     2.370352009699   161.12036003   351.01820559
 C      2   1   3     2.370334321602   161.11898876   350.98604815
 C      5   1   2     1.534507198399    71.11414070   179.93485080
 C      6   2   1     1.534495241103    71.11492103   179.93600990
 C      1   2   3     1.355550048196   124.63056083   357.60358136
 C      2   1   3     1.355582128298   124.62977820   357.59599889
 C      1   2   3     1.355546123926   124.62160127   177.56972785
 C      2   1   3     1.355563808831   124.62364954   177.56200688
 C      3   2   1     1.370826670960   172.75333140     8.90847460
 C      3   2   1     1.370815363532    80.36235659   181.15564598
 C      4   1   2     1.370777821536    80.36358993   181.14305473
 C      4   1   2     1.370782906164   172.74430185     9.13892315
 C      9   1   2     1.377588111167   125.66613610     2.25390691
 C     10   2   1     1.377579558700   125.66739448     2.25241290
 C     11   1   2     1.377584022390   125.67739340     2.30114869
 C     12   2   1     1.377579356145   125.67503938     2.29624379
 C     13   3  14     1.430916519652   109.64262364   359.95276415
 C     21  13   3     1.366983719650   106.94919461     0.12079397
 C     15   4   1     1.430996176158   109.64179711   181.00446043
 C     23  15   4     1.366947587917   106.94825517     0.12005675
 H      5   1   2     1.093619998274   117.48119229   285.29610054
 H      5   1   2     1.090336727187   129.77292185    74.83365878
 H      6   2   1     1.093624260422   117.45243435   285.29735237
 H      6   2   1     1.090329122694   129.79853465    74.83293182
 H      7   5   1     1.090334418898   113.35711182   126.06534071
 H      7   5   1     1.093615512790   111.83148131   247.14860792
 H      8   6   2     1.090336113225   113.35342562   126.07482105
 H      8   6   2     1.093607292633   111.83547187   247.16406460
 H     17   9   1     1.083342905325   116.30988331   179.63283291
 H     18  10   2     1.083341733356   116.31217148   179.64366974
 H     19  11   1     1.083340715870   116.31275699   179.62575756
 H     20  12   2     1.083340310464   116.31350810   179.62687671
 H     21  13   3     1.078925603982   125.08340360   180.05189031
 H     22  21  13     1.078925857550   127.96702129   179.92425103
 H     23  15   4     1.078923414896   125.06844783   180.04988392
 H     24  23  15     1.078926070118   127.98362874   179.91361688
 Mg     4   1   2     2.032731255388    46.24671301     0.00000000

---------------------------
INTERNAL COORDINATES (A.U.)
---------------------------
 N      0   0   0     0.000000000000     0.00000000     0.00000000
 N      1   0   0     8.022673726548     0.00000000     0.00000000
 N      2   1   0     5.553926605009    43.75967239     0.00000000
 N      1   2   3     5.554149016110    43.76187171   180.00255177
 C      1   2   3     4.479316139321   161.12036003   351.01820559
 C      2   1   3     4.479282713662   161.11898876   350.98604815
 C      5   1   2     2.899798355505    71.11414070   179.93485080
 C      6   2   1     2.899775759491    71.11492103   179.93600990
 C      1   2   3     2.561618351915   124.63056083   357.60358136
 C      2   1   3     2.561678974521   124.62977820   357.59599889
 C      1   2   3     2.561610936119   124.62160127   177.56972785
 C      2   1   3     2.561644355746   124.62364954   177.56200688
 C      3   2   1     2.590486985190   172.75333140     8.90847460
 C      3   2   1     2.590465617247    80.36235659   181.15564598
 C      4   1   2     2.590394673157    80.36358993   181.14305473
 C      4   1   2     2.590404281711   172.74430185     9.13892315
 C      9   1   2     2.603264255451   125.66613610     2.25390691
 C     10   2   1     2.603248093630   125.66739448     2.25241290
 C     11   1   2     2.603256528784   125.67739340     2.30114869
 C     12   2   1     2.603247710858   125.67503938     2.29624379
 C     13   3  14     2.704040342647   109.64262364   359.95276415
 C     21  13   3     2.583224859667   106.94919461     0.12079397
 C     15   4   1     2.704190871627   109.64179711   181.00446043
 C     23  15   4     2.583156580588   106.94825517     0.12005675
 H      5   1   2     2.066642291317   117.48119229   285.29610054
 H      5   1   2     2.060437808139   129.77292185    74.83365878
 H      6   2   1     2.066650345610   117.45243435   285.29735237
 H      6   2   1     2.060423437730   129.79853465    74.83293182
 H      7   5   1     2.060433446106   113.35711182   126.06534071
 H      7   5   1     2.066633814981   111.83148131   247.14860792
 H      8   6   2     2.060436647919   113.35342562   126.07482105
 H      8   6   2     2.066618281135   111.83547187   247.16406460
 H     17   9   1     2.047221400191   116.30988331   179.63283291
 H     18  10   2     2.047219185490   116.31217148   179.64366974
 H     19  11   1     2.047217262721   116.31275699   179.62575756
 H     20  12   2     2.047216496614   116.31350810   179.62687671
 H     21  13   3     2.038873910402   125.08340360   180.05189031
 H     22  21  13     2.038874389575   127.96702129   179.92425103
 H     23  15   4     2.038869773628   125.06844783   180.04988392
 H     24  23  15     2.038874791271   127.98362874   179.91361688
 Mg     4   1   2     3.841305376545    46.24671301     0.00000000

---------------------
BASIS SET INFORMATION
---------------------
There are 4 groups of distinct atoms

 Group   1 Type N   : 11s6p2d1f contracted to 5s3p2d1f pattern {62111/411/11/1}
 Group   2 Type C   : 11s6p2d1f contracted to 5s3p2d1f pattern {62111/411/11/1}
 Group   3 Type H   : 5s1p contracted to 3s1p pattern {311/1}
 Group   4 Type Mg  : 14s8p3d contracted to 5s4p3d pattern {73211/5111/111}

Atom   0N    basis set group =>   1
Atom   1N    basis set group =>   1
Atom   2N    basis set group =>   1
Atom   3N    basis set group =>   1
Atom   4C    basis set group =>   2
Atom   5C    basis set group =>   2
Atom   6C    basis set group =>   2
Atom   7C    basis set group =>   2
Atom   8C    basis set group =>   2
Atom   9C    basis set group =>   2
Atom  10C    basis set group =>   2
Atom  11C    basis set group =>   2
Atom  12C    basis set group =>   2
Atom  13C    basis set group =>   2
Atom  14C    basis set group =>   2
Atom  15C    basis set group =>   2
Atom  16C    basis set group =>   2
Atom  17C    basis set group =>   2
Atom  18C    basis set group =>   2
Atom  19C    basis set group =>   2
Atom  20C    basis set group =>   2
Atom  21C    basis set group =>   2
Atom  22C    basis set group =>   2
Atom  23C    basis set group =>   2
Atom  24H    basis set group =>   3
Atom  25H    basis set group =>   3
Atom  26H    basis set group =>   3
Atom  27H    basis set group =>   3
Atom  28H    basis set group =>   3
Atom  29H    basis set group =>   3
Atom  30H    basis set group =>   3
Atom  31H    basis set group =>   3
Atom  32H    basis set group =>   3
Atom  33H    basis set group =>   3
Atom  34H    basis set group =>   3
Atom  35H    basis set group =>   3
Atom  36H    basis set group =>   3
Atom  37H    basis set group =>   3
Atom  38H    basis set group =>   3
Atom  39H    basis set group =>   3
Atom  40Mg   basis set group =>   4
---------------------------------
AUXILIARY/J BASIS SET INFORMATION
---------------------------------
There are 4 groups of distinct atoms

 Group   1 Type N   : 12s5p4d2f1g contracted to 6s4p3d1f1g pattern {711111/2111/211/2/1}
 Group   2 Type C   : 12s5p4d2f1g contracted to 6s4p3d1f1g pattern {711111/2111/211/2/1}
 Group   3 Type H   : 5s2p1d contracted to 3s1p1d pattern {311/2/1}
 Group   4 Type Mg  : 14s5p5d2f1g contracted to 8s4p4d1f1g pattern {71111111/2111/2111/2/1}

Atom   0N    basis set group =>   1
Atom   1N    basis set group =>   1
Atom   2N    basis set group =>   1
Atom   3N    basis set group =>   1
Atom   4C    basis set group =>   2
Atom   5C    basis set group =>   2
Atom   6C    basis set group =>   2
Atom   7C    basis set group =>   2
Atom   8C    basis set group =>   2
Atom   9C    basis set group =>   2
Atom  10C    basis set group =>   2
Atom  11C    basis set group =>   2
Atom  12C    basis set group =>   2
Atom  13C    basis set group =>   2
Atom  14C    basis set group =>   2
Atom  15C    basis set group =>   2
Atom  16C    basis set group =>   2
Atom  17C    basis set group =>   2
Atom  18C    basis set group =>   2
Atom  19C    basis set group =>   2
Atom  20C    basis set group =>   2
Atom  21C    basis set group =>   2
Atom  22C    basis set group =>   2
Atom  23C    basis set group =>   2
Atom  24H    basis set group =>   3
Atom  25H    basis set group =>   3
Atom  26H    basis set group =>   3
Atom  27H    basis set group =>   3
Atom  28H    basis set group =>   3
Atom  29H    basis set group =>   3
Atom  30H    basis set group =>   3
Atom  31H    basis set group =>   3
Atom  32H    basis set group =>   3
Atom  33H    basis set group =>   3
Atom  34H    basis set group =>   3
Atom  35H    basis set group =>   3
Atom  36H    basis set group =>   3
Atom  37H    basis set group =>   3
Atom  38H    basis set group =>   3
Atom  39H    basis set group =>   3
Atom  40Mg   basis set group =>   4


           ************************************************************
           *        Program running with 4 parallel MPI-processes     *
           *              working on a common directory               *
           ************************************************************
------------------------------------------------------------------------------
                             ORCA STARTUP CALCULATIONS
                           -- RI-GTO INTEGRALS CHOSEN --
------------------------------------------------------------------------------
------------------------------------------------------------------------------
                   ___                                                        
                  /   \      - P O W E R E D   B Y -                         
                 /     \                                                     
                 |  |  |   _    _      __       _____    __    __             
                 |  |  |  | |  | |    /  \     |  _  \  |  |  /  |          
                  \  \/   | |  | |   /    \    | | | |  |  | /  /          
                 / \  \   | |__| |  /  /\  \   | |_| |  |  |/  /          
                |  |  |   |  __  | /  /__\  \  |    /   |      \           
                |  |  |   | |  | | |   __   |  |    \   |  |\   \          
                \     /   | |  | | |  |  |  |  | |\  \  |  | \   \       
                 \___/    |_|  |_| |__|  |__|  |_| \__\ |__|  \__/        
                                                                              
                      - O R C A' S   B I G   F R I E N D -                    
                                      &                                       
                       - I N T E G R A L  F E E D E R -                       
                                                                              
 v1 FN, 2020, v2 2021, v3 2022-2024                                           
------------------------------------------------------------------------------


----------------------
SHARK INTEGRAL PACKAGE
----------------------

Number of atoms                             ...     41
Number of basis functions                   ...    872
Number of shells                            ...    340
Maximum angular momentum                    ...      3
Integral batch strategy                     ... SHARK/LIBINT Hybrid
RI-J (if used) integral strategy            ... SPLIT-RIJ (Revised 2003 algorithm where possible)
Printlevel                                  ...      1
Contraction scheme used                     ... SEGMENTED contraction
Prescreening option                         ... SCHWARTZ
   Thresh                                   ... 2.500e-11
   Tcut                                     ... 2.500e-12
   Tpresel                                  ... 2.500e-12 
Coulomb Range Separation                    ... NOT USED
Exchange Range Separation                   ... Long Range
   Mu parameter                             ... 2.500e-01
   Scaling (regular/separated)              ... 1.957e-01 8.043e-01
Robust (split-)RI terms used:
  metric    (central integrals)             ... YES
  density   (r.h.s.  integrals)             ... YES
  potential (l.h.s.  integrals)             ... YES
Multipole approximations                    ... NOT USED
Finite Nucleus Model                        ... NOT USED
CABS basis                                  ... NOT available
Auxiliary Coulomb fitting basis             ... AVAILABLE
   # of basis functions in Aux-J            ...   1408
   # of shells in Aux-J                     ...    458
   Maximum angular momentum in Aux-J        ...      4
Auxiliary J/K fitting basis                 ... NOT available
Auxiliary Correlation fitting basis         ... NOT available
Auxiliary 'external' fitting basis          ... NOT available

Checking pre-screening integrals            ... done (  0.0 sec) Dimension = 340
   => SHARK Basis and OBASIS are compatible. Storing Pre-screening
Shell pair information
Shell pair cut-off parameter TPreSel        ...   2.5e-12
Total number of shell pairs                 ...     57970
Shell pairs after pre-screening             ...     40545
Total number of primitive shell pairs       ...    181512
Primitive shell pairs kept                  ...     83416
          la=0 lb=0:   9964 shell pairs
          la=1 lb=0:  11660 shell pairs
          la=1 lb=1:   3400 shell pairs
          la=2 lb=0:   5941 shell pairs
          la=2 lb=1:   3556 shell pairs
          la=2 lb=2:    970 shell pairs
          la=3 lb=0:   2548 shell pairs
          la=3 lb=1:   1556 shell pairs
          la=3 lb=2:    780 shell pairs
          la=3 lb=3:    170 shell pairs

Checking whether 4 symmetric matrices of dimension 872 fit in memory
:Max Core in MB      =   3000.00
 MB in use           =     52.70
 MB left             =   2947.30
 MB needed           =     11.62
 Data fit in memory  = YES
Calculating RI/J V-Matrix + Cholesky decomp.... done (  0.2 sec)
Calculating Nuclear repulsion               ... done (  0.0 sec) ENN=   2190.086224452672 Eh

Diagonalization of the overlap matrix:
Smallest eigenvalue                        ... 1.019e-05
Time for diagonalization                   ...    0.296 sec
Threshold for overlap eigenvalues          ... 1.000e-07
Number of eigenvalues below threshold      ... 0
Time for construction of square roots      ...    0.143 sec
Total time needed                          ...    0.450 sec

-------------------
DFT GRID GENERATION
-------------------

General Integration Accuracy     IntAcc      ... 4.959
Radial Grid Type                 RadialGrid  ... OptM3 with GC (2021)
Angular Grid (max. ang.)         AngularGrid ... 6 (Lebedev-590)
Angular grid pruning method      GridPruning ... 4 (adaptive)
Weight generation scheme         WeightScheme... mBecke (2022)
Basis function cutoff            BFCut       ... 1.0000e-11
Integration weight cutoff        WCut        ... 1.0000e-14
Partially contracted basis set               ... off
Rotationally invariant grid construction     ... off
Angular grids for H and He will be reduced by one unit

Total number of grid points                  ...   489901
Total number of batches                      ...     7676
Average number of points per batch           ...       63
Average number of grid points per atom       ...    11949

--------------------
COSX GRID GENERATION
--------------------

GRIDX 1
-------
General Integration Accuracy     IntAcc      ... 4.020
Radial Grid Type                 RadialGrid  ... OptM3 with GC (2021)
Angular Grid (max. ang.)         AngularGrid ... 2 (Lebedev-110)
Angular grid pruning method      GridPruning ... 4 (adaptive)
Weight generation scheme         WeightScheme... mBecke (2022)
Basis function cutoff            BFCut       ... 1.0000e-11
Integration weight cutoff        WCut        ... 1.0000e-14
Partially contracted basis set               ... on
Rotationally invariant grid construction     ... off
Angular grids for H and He will be reduced by one unit

Total number of grid points                  ...    55413
Total number of batches                      ...      455
Average number of points per batch           ...      121
Average number of grid points per atom       ...     1352
UseSFitting                                  ... on

GRIDX 2
-------
General Integration Accuracy     IntAcc      ... 4.338
Radial Grid Type                 RadialGrid  ... OptM3 with GC (2021)
Angular Grid (max. ang.)         AngularGrid ... 3 (Lebedev-194)
Angular grid pruning method      GridPruning ... 4 (adaptive)
Weight generation scheme         WeightScheme... mBecke (2022)
Basis function cutoff            BFCut       ... 1.0000e-11
Integration weight cutoff        WCut        ... 1.0000e-14
Partially contracted basis set               ... on
Rotationally invariant grid construction     ... off
Angular grids for H and He will be reduced by one unit

Total number of grid points                  ...   121895
Total number of batches                      ...      972
Average number of points per batch           ...      125
Average number of grid points per atom       ...     2973
UseSFitting                                  ... on

GRIDX 3
-------
General Integration Accuracy     IntAcc      ... 4.871
Radial Grid Type                 RadialGrid  ... OptM3 with GC (2021)
Angular Grid (max. ang.)         AngularGrid ... 4 (Lebedev-302)
Angular grid pruning method      GridPruning ... 4 (adaptive)
Weight generation scheme         WeightScheme... mBecke (2022)
Basis function cutoff            BFCut       ... 1.0000e-11
Integration weight cutoff        WCut        ... 1.0000e-14
Partially contracted basis set               ... on
Rotationally invariant grid construction     ... off
Angular grids for H and He will be reduced by one unit

Total number of grid points                  ...   225543
Total number of batches                      ...     1784
Average number of points per batch           ...      126
Average number of grid points per atom       ...     5501
UseSFitting                                  ... on
Grids setup in  30.9 sec
Initializing property integral containers    ... done (  0.0 sec)

SHARK setup successfully completed in  32.8 seconds

Maximum memory used throughout the entire STARTUP-calculation: 159.8 MB


           ************************************************************
           *        Program running with 4 parallel MPI-processes     *
           *              working on a common directory               *
           ************************************************************
-------------------------------------------------------------------------------
                                 ORCA GUESS
                   Start orbitals & Density for SCF / CASSCF
-------------------------------------------------------------------------------

------------
SCF SETTINGS
------------
Hamiltonian:
 Density Functional     Method          .... DFT(GTOs)
 Exchange Functional    Exchange        .... WB97X-D3
 Correlation Functional Correlation     .... WB97X-D3
 Gradients option       PostSCFGGA      .... off
 Hybrid DFT is turned on
   Fraction HF Exchange ScalHFX         ....  0.195728
   Scaling of DF-GGA-X  ScalDFX         ....  0.000000
   Scaling of DF-GGA-C  ScalDFC         ....  1.000000
   Scaling of DF-LDA-C  ScalLDAC        ....  1.000000
   Perturbative correction              ....  0.000000
 Long-range corrected/Screened/Range-Separated Hybrid DFT is turned on
   Amount of maximum screened exact exchange              ....  0.804272
   Range separation parameter mu (erf(mu*r12)/r12)        ....  0.250000
 RI-approximation to the Coulomb term is turned on
   Number of AuxJ basis functions       .... 1408
   RIJ-COSX (HFX calculated with COS-X)).... on


General Settings:
 Integral files         IntName         .... tddft
 Hartree-Fock type      HFTyp           .... RHF
 Total Charge           Charge          ....    0
 Multiplicity           Mult            ....    1
 Number of Electrons    NEL             ....  176
 Basis Dimension        Dim             ....  872
 Nuclear Repulsion      ENuc            ....   2190.0862244527 Eh

Convergence Acceleration:
 AO-DIIS                CNVDIIS         .... on
   Start iteration      DIISMaxIt       ....    12
   Startup error        DIISStart       ....  0.200000
   # of expansion vecs  DIISMaxEq       ....     5
   Bias factor          DIISBfac        ....   1.050
   Max. coefficient     DIISMaxC        ....  10.000
 MO-DIIS                CNVKDIIS        .... off
 Trust-Rad. Augm. Hess. CNVTRAH         .... auto
   Auto Start mean grad. ratio tolernc. ....  1.125000
   Auto Start start iteration           ....    50
   Auto Start num. interpolation iter.  ....    10
   Max. Number of Micro iterations      ....    24
   Max. Number of Macro iterations      .... Maxiter - #DIIS iter
   Number of Davidson start vectors     ....     2
   Converg. threshold    (grad. norm)   ....   1.000e-05
   Grad. Scal. Fac. for Micro threshold ....   0.100
   Minimum threshold for Micro iter.    ....   1.000e-02
   NR start threshold (gradient norm)   ....   1.000e-04
   Initial trust radius                 ....   0.400
   Minimum AH scaling param. (alpha)    ....   1.000
   Maximum AH scaling param. (alpha)    .... 1000.000
   Quad. conv. algorithm                .... NR
   White noise on init. David. guess    .... on
   Maximum white noise                  ....   0.010
   Pseudo random numbers                .... off
   Inactive MOs                         .... canonical
   Orbital update algorithm             .... Taylor
   Preconditioner                       .... Diag
   Full preconditioner red. dimension   ....   250
 SOSCF                 CNVSOSCF           .... on
   Start iteration     SOSCFMaxIt         ....   150
   Startup grad/error  SOSCFStart         ....  0.003300
   Hessian update      SOSCFHessUp        .... L-BFGS
   Autom. constraints  SOSCFAutoConstrain .... off
 Level Shifting         CNVShift        .... on
   Level shift para.    LevelShift      ....    0.2500
   Turn off err/grad.   ShiftErr        ....    0.0010
 Zerner damping         CNVZerner       .... off
 Static damping         CNVDamp         .... on
   Fraction old density DampFac         ....    0.7000
   Max. Damping (<1)    DampMax         ....    0.9800
   Min. Damping (>=0)   DampMin         ....    0.0000
   Turn off err/grad.   DampErr         ....    0.1000

SCF Procedure:
 Maximum # iterations   MaxIter         ....   125
 SCF integral mode      SCFMode         .... Direct
   Integral package                     .... SHARK and LIBINT hybrid scheme
 Reset frequency        DirectResetFreq ....    20
 Integral Threshold     Thresh          ....  2.500e-11 Eh
 Primitive CutOff       TCut            ....  2.500e-12 Eh

Convergence Tolerance:
 Convergence Check Mode ConvCheckMode   .... Total+1el-Energy
 Convergence forced     ConvForced      .... 1
 Energy Change          TolE            ....  1.000e-08 Eh
 1-El. energy change                    ....  1.000e-05 Eh
 Orbital Gradient       TolG            ....  1.000e-05
 Orbital Rotation angle TolX            ....  1.000e-05
 DIIS Error             TolErr          ....  5.000e-07

------------------------------
INITIAL GUESS: MODEL POTENTIAL
------------------------------
Loading Hartree-Fock densities                     ... done
Calculating cut-offs                               ... done
Initializing the effective Hamiltonian             ... done
Setting up the integral package (SHARK)            ... done
Starting the Coulomb interaction                   ... done (   2.8 sec)
Making the grid                                    ... done (   0.8 sec)
Mapping shells                                     ... done
Starting the XC term evaluation                    ... done (   1.4 sec)
  promolecular density results
     # of electrons  =    176.013752315
     EX              =   -149.316411799
     EC              =     -5.985031575
     EX+EC           =   -155.301443373
Transforming the Hamiltonian                       ... done (   0.2 sec)
Diagonalizing the Hamiltonian                      ... done (   0.3 sec)
Back transforming the eigenvectors                 ... done (   0.1 sec)
Now organizing SCF variables                       ... done
                      ------------------
                      INITIAL GUESS DONE (   5.7 sec)
                      ------------------
             **** ENERGY FILE WAS UPDATED (tddft.en.tmp) ****
Finished Guess after   8.0 sec
Maximum memory used throughout the entire GUESS-calculation: 88.7 MB


           ************************************************************
           *        Program running with 4 parallel MPI-processes     *
           *              working on a common directory               *
           ************************************************************

-------------------------------------------------------------------------------------------
                                      ORCA LEAN-SCF
                              memory conserving SCF solver
-------------------------------------------------------------------------------------------

----------------------------------------D-I-I-S--------------------------------------------
Iteration    Energy (Eh)           Delta-E    RMSDP     MaxDP     DIISErr   Damp  Time(sec)
-------------------------------------------------------------------------------------------
               ***  Starting incremental Fock matrix formation  ***
    1    -1190.4582415083727938     0.00e+00  1.57e-03  3.64e-02  2.22e-01  0.700 226.4
    2    -1190.6814935040965793    -2.23e-01  1.26e-03  2.53e-02  1.21e-01  0.700  89.1
                               ***Turning on AO-DIIS***
    3    -1190.7987859327745355    -1.17e-01  8.08e-04  1.96e-02  5.41e-02  0.700  80.7
    4    -1190.8693040608686715    -7.05e-02  1.87e-03  4.51e-02  3.83e-02  0.000  82.0
    5    -1191.0204395040268537    -1.51e-01  1.99e-04  5.07e-03  4.02e-03  0.000  89.9
                              *** Initializing SOSCF ***
---------------------------------------S-O-S-C-F--------------------------------------
Iteration    Energy (Eh)           Delta-E    RMSDP     MaxDP     MaxGrad    Time(sec)
--------------------------------------------------------------------------------------
    6    -1191.0208708748345998    -4.31e-04  8.43e-05  1.85e-03  2.74e-03    82.9
               *** Restarting incremental Fock matrix formation ***
    7    -1191.0209589691444307    -8.81e-05  7.16e-05  1.23e-03  1.11e-03   194.6
    8    -1191.0209956453036284    -3.67e-05  4.76e-05  6.70e-04  5.18e-04   121.6
    9    -1191.0210027583598276    -7.11e-06  1.21e-05  2.42e-04  1.45e-04   125.5
   10    -1191.0210041006175743    -1.34e-06  6.62e-06  1.19e-04  9.97e-05   110.7
   11    -1191.0210045520093445    -4.51e-07  3.75e-06  1.00e-04  1.53e-05    97.5
   12    -1191.0210045797962266    -2.78e-08  3.61e-06  9.55e-05  1.51e-05    84.5
   13    -1191.0210045426470060     3.71e-08  4.92e-06  1.44e-04  2.18e-06    82.0
                  *** Gradient check signals convergence ***

               *****************************************************
               *                     SUCCESS                       *
               *           SCF CONVERGED AFTER  13 CYCLES          *
               *****************************************************

Recomputing exchange energy using gridx3       ... done (  303.885 sec)
Old exchange energy                            :    -48.624839086 Eh
New exchange energy                            :    -48.624830886 Eh
Exchange energy change after final integration :      0.000008200 Eh
Total energy after final integration           :  -1191.020996334 Eh
             **** ENERGY FILE WAS UPDATED (tddft.en.tmp) ****

----------------
TOTAL SCF ENERGY
----------------

Total Energy       :      -1191.02099633419766 Eh          -32409.32897 eV

Components:
Nuclear Repulsion  :       2190.08622445267247 Eh           59595.27593 eV
Electronic Energy  :      -3381.10722898687573 Eh          -92004.60512 eV
One Electron Energy:      -5978.31593259988585 Eh         -162678.24693 eV
Two Electron Energy:       2597.20870361301013 Eh           70673.64180 eV

Virial components:
Potential Energy   :      -2376.75947714693393 Eh          -64674.91338 eV
Kinetic Energy     :       1185.73848081273650 Eh           32265.58441 eV
Virial Ratio       :          2.00445504266492

DFT components:
N(Alpha)           :       87.999996226164 electrons
N(Beta)            :       87.999996226164 electrons
N(Total)           :      175.999992452328 electrons
E(XC)              :     -110.231070982995 Eh       

---------------
SCF CONVERGENCE
---------------

  Last Energy change         ...   -3.7149e-08  Tolerance :   1.0000e-08
  Last MAX-Density change    ...    1.4384e-04  Tolerance :   1.0000e-07
  Last RMS-Density change    ...    4.9235e-06  Tolerance :   5.0000e-09
  Last DIIS Error            ...    2.7362e-03  Tolerance :   5.0000e-07
  Last Orbital Gradient      ...    2.1831e-06  Tolerance :   1.0000e-05
  Last Orbital Rotation      ...    5.5212e-06  Tolerance :   1.0000e-05


----------------
ORBITAL ENERGIES
----------------

  NO   OCC          E(Eh)            E(eV) 
   0   2.0000     -46.859987     -1275.1251 
   1   2.0000     -14.430249      -392.6670 
   2   2.0000     -14.430245      -392.6669 
   3   2.0000     -14.400361      -391.8538 
   4   2.0000     -14.400341      -391.8532 
   5   2.0000     -10.315065      -280.6872 
   6   2.0000     -10.315054      -280.6869 
   7   2.0000     -10.315025      -280.6861 
   8   2.0000     -10.315016      -280.6858 
   9   2.0000     -10.301697      -280.3234 
  10   2.0000     -10.301667      -280.3226 
  11   2.0000     -10.301659      -280.3224 
  12   2.0000     -10.301629      -280.3216 
  13   2.0000     -10.284377      -279.8521 
  14   2.0000     -10.284372      -279.8520 
  15   2.0000     -10.284184      -279.8469 
  16   2.0000     -10.284179      -279.8467 
  17   2.0000     -10.271473      -279.5010 
  18   2.0000     -10.271468      -279.5008 
  19   2.0000     -10.271465      -279.5008 
  20   2.0000     -10.271460      -279.5006 
  21   2.0000     -10.267193      -279.3845 
  22   2.0000     -10.267150      -279.3833 
  23   2.0000     -10.266500      -279.3657 
  24   2.0000     -10.266457      -279.3645 
  25   2.0000      -3.169505       -86.2466 
  26   2.0000      -1.907843       -51.9150 
  27   2.0000      -1.902222       -51.7621 
  28   2.0000      -1.901056       -51.7304 
  29   2.0000      -1.078296       -29.3419 
  30   2.0000      -1.073593       -29.2140 
  31   2.0000      -1.061832       -28.8939 
  32   2.0000      -1.056191       -28.7404 
  33   2.0000      -0.927734       -25.2449 
  34   2.0000      -0.904615       -24.6158 
  35   2.0000      -0.894636       -24.3443 
  36   2.0000      -0.889481       -24.2040 
  37   2.0000      -0.888348       -24.1732 
  38   2.0000      -0.869025       -23.6474 
  39   2.0000      -0.868983       -23.6462 
  40   2.0000      -0.845001       -22.9936 
  41   2.0000      -0.829511       -22.5721 
  42   2.0000      -0.770407       -20.9638 
  43   2.0000      -0.759158       -20.6577 
  44   2.0000      -0.727277       -19.7902 
  45   2.0000      -0.704528       -19.1712 
  46   2.0000      -0.673447       -18.3254 
  47   2.0000      -0.673343       -18.3226 
  48   2.0000      -0.669533       -18.2189 
  49   2.0000      -0.659094       -17.9349 
  50   2.0000      -0.636217       -17.3123 
  51   2.0000      -0.620336       -16.8802 
  52   2.0000      -0.612849       -16.6765 
  53   2.0000      -0.603830       -16.4311 
  54   2.0000      -0.598934       -16.2978 
  55   2.0000      -0.584880       -15.9154 
  56   2.0000      -0.581976       -15.8364 
  57   2.0000      -0.579415       -15.7667 
  58   2.0000      -0.535283       -14.5658 
  59   2.0000      -0.534148       -14.5349 
  60   2.0000      -0.513043       -13.9606 
  61   2.0000      -0.512704       -13.9514 
  62   2.0000      -0.512022       -13.9328 
  63   2.0000      -0.499769       -13.5994 
  64   2.0000      -0.498976       -13.5778 
  65   2.0000      -0.495413       -13.4809 
  66   2.0000      -0.481168       -13.0933 
  67   2.0000      -0.479091       -13.0367 
  68   2.0000      -0.473127       -12.8744 
  69   2.0000      -0.471303       -12.8248 
  70   2.0000      -0.470141       -12.7932 
  71   2.0000      -0.457547       -12.4505 
  72   2.0000      -0.456506       -12.4222 
  73   2.0000      -0.456071       -12.4103 
  74   2.0000      -0.453210       -12.3325 
  75   2.0000      -0.452437       -12.3114 
  76   2.0000      -0.450980       -12.2718 
  77   2.0000      -0.443791       -12.0762 
  78   2.0000      -0.403139       -10.9700 
  79   2.0000      -0.403008       -10.9664 
  80   2.0000      -0.397971       -10.8294 
  81   2.0000      -0.374186       -10.1821 
  82   2.0000      -0.356740        -9.7074 
  83   2.0000      -0.343492        -9.3469 
  84   2.0000      -0.333207        -9.0670 
  85   2.0000      -0.325556        -8.8588 
  86   2.0000      -0.259805        -7.0696 
  87   2.0000      -0.216994        -5.9047 
  88   0.0000      -0.047112        -1.2820 
  89   0.0000       0.022517         0.6127 
  90   0.0000       0.070792         1.9263 
  91   0.0000       0.092059         2.5050 
  92   0.0000       0.097931         2.6648 
  93   0.0000       0.109844         2.9890 
  94   0.0000       0.111875         3.0443 
  95   0.0000       0.116801         3.1783 
  96   0.0000       0.127051         3.4572 
  97   0.0000       0.132947         3.6177 
  98   0.0000       0.139284         3.7901 
*Only the first 10 virtual orbitals were printed.

                    ********************************
                    * MULLIKEN POPULATION ANALYSIS *
                    ********************************

-----------------------
MULLIKEN ATOMIC CHARGES
-----------------------
   0 N :   -0.403002
   1 N :   -0.402815
   2 N :   -0.434425
   3 N :   -0.434388
   4 C :   -0.162469
   5 C :   -0.162849
   6 C :   -0.162759
   7 C :   -0.162490
   8 C :    0.197695
   9 C :    0.198077
  10 C :    0.198064
  11 C :    0.197705
  12 C :    0.304148
  13 C :    0.304213
  14 C :    0.304256
  15 C :    0.304151
  16 C :   -0.368921
  17 C :   -0.369107
  18 C :   -0.369148
  19 C :   -0.369044
  20 C :   -0.215898
  21 C :   -0.215703
  22 C :   -0.215861
  23 C :   -0.215661
  24 H :    0.107284
  25 H :    0.120120
  26 H :    0.107285
  27 H :    0.120169
  28 H :    0.120138
  29 H :    0.107310
  30 H :    0.120122
  31 H :    0.107310
  32 H :    0.119366
  33 H :    0.119358
  34 H :    0.119368
  35 H :    0.119371
  36 H :    0.119933
  37 H :    0.119970
  38 H :    0.119992
  39 H :    0.119971
  40 Mg:    0.789164
Sum of atomic charges:    0.0000000

--------------------------------
MULLIKEN REDUCED ORBITAL CHARGES
--------------------------------
  0 N s       :     3.663950  s :     3.663950
      pz      :     1.279722  p :     3.671438
      px      :     1.334017
      py      :     1.057699
      dz2     :     0.004575  d :     0.063972
      dxz     :     0.005823
      dyz     :     0.016451
      dx2y2   :     0.017242
      dxy     :     0.019881
      f0      :     0.000673  f :     0.003642
      f+1     :     0.000261
      f-1     :     0.000395
      f+2     :     0.000099
      f-2     :     0.000580
      f+3     :     0.000592
      f-3     :     0.001043

  1 N s       :     3.663881  s :     3.663881
      pz      :     1.279875  p :     3.671325
      px      :     1.333807
      py      :     1.057643
      dz2     :     0.004574  d :     0.063967
      dxz     :     0.005819
      dyz     :     0.016452
      dx2y2   :     0.017244
      dxy     :     0.019878
      f0      :     0.000673  f :     0.003642
      f+1     :     0.000261
      f-1     :     0.000395
      f+2     :     0.000099
      f-2     :     0.000580
      f+3     :     0.000592
      f-3     :     0.001042

  2 N s       :     3.651769  s :     3.651769
      pz      :     1.401057  p :     3.719716
      px      :     1.050447
      py      :     1.268212
      dz2     :     0.004652  d :     0.059282
      dxz     :     0.013977
      dyz     :     0.005160
      dx2y2   :     0.016996
      dxy     :     0.018497
      f0      :     0.000690  f :     0.003658
      f+1     :     0.000435
      f-1     :     0.000333
      f+2     :     0.000072
      f-2     :     0.000620
      f+3     :     0.000937
      f-3     :     0.000571

  3 N s       :     3.651792  s :     3.651792
      pz      :     1.401349  p :     3.719653
      px      :     1.050127
      py      :     1.268177
      dz2     :     0.004632  d :     0.059285
      dxz     :     0.013993
      dyz     :     0.005149
      dx2y2   :     0.017006
      dxy     :     0.018505
      f0      :     0.000692  f :     0.003658
      f+1     :     0.000434
      f-1     :     0.000332
      f+2     :     0.000070
      f-2     :     0.000620
      f+3     :     0.000938
      f-3     :     0.000571

  4 C s       :     3.161026  s :     3.161026
      pz      :     1.046927  p :     2.917738
      px      :     0.920003
      py      :     0.950808
      dz2     :     0.005945  d :     0.078243
      dxz     :     0.015217
      dyz     :     0.015593
      dx2y2   :     0.016835
      dxy     :     0.024654
      f0      :     0.000695  f :     0.005462
      f+1     :     0.000579
      f-1     :     0.000502
      f+2     :     0.000792
      f-2     :     0.000299
      f+3     :     0.001520
      f-3     :     0.001074

  5 C s       :     3.161505  s :     3.161505
      pz      :     1.046910  p :     2.917632
      px      :     0.920118
      py      :     0.950605
      dz2     :     0.005958  d :     0.078251
      dxz     :     0.015204
      dyz     :     0.015594
      dx2y2   :     0.016832
      dxy     :     0.024662
      f0      :     0.000696  f :     0.005462
      f+1     :     0.000580
      f-1     :     0.000501
      f+2     :     0.000790
      f-2     :     0.000301
      f+3     :     0.001522
      f-3     :     0.001073

  6 C s       :     3.161318  s :     3.161318
      pz      :     1.046691  p :     2.917727
      px      :     0.920378
      py      :     0.950658
      dz2     :     0.005817  d :     0.078253
      dxz     :     0.015350
      dyz     :     0.015619
      dx2y2   :     0.016824
      dxy     :     0.024642
      f0      :     0.000676  f :     0.005462
      f+1     :     0.000592
      f-1     :     0.000509
      f+2     :     0.000795
      f-2     :     0.000296
      f+3     :     0.001524
      f-3     :     0.001069

  7 C s       :     3.161025  s :     3.161025
      pz      :     1.046703  p :     2.917746
      px      :     0.920278
      py      :     0.950766
      dz2     :     0.005826  d :     0.078257
      dxz     :     0.015352
      dyz     :     0.015613
      dx2y2   :     0.016826
      dxy     :     0.024640
      f0      :     0.000676  f :     0.005462
      f+1     :     0.000591
      f-1     :     0.000510
      f+2     :     0.000796
      f-2     :     0.000295
      f+3     :     0.001522
      f-3     :     0.001071

  8 C s       :     3.120208  s :     3.120208
      pz      :     0.906579  p :     2.514648
      px      :     0.837162
      py      :     0.770907
      dz2     :     0.001979  d :     0.153428
      dxz     :     0.021040
      dyz     :     0.041319
      dx2y2   :     0.047254
      dxy     :     0.041836
      f0      :     0.002089  f :     0.014021
      f+1     :     0.000957
      f-1     :     0.000960
      f+2     :     0.001251
      f-2     :     0.001562
      f+3     :     0.002419
      f-3     :     0.004782

  9 C s       :     3.120096  s :     3.120096
      pz      :     0.906566  p :     2.514366
      px      :     0.836559
      py      :     0.771240
      dz2     :     0.001984  d :     0.153440
      dxz     :     0.021049
      dyz     :     0.041318
      dx2y2   :     0.047250
      dxy     :     0.041839
      f0      :     0.002089  f :     0.014021
      f+1     :     0.000958
      f-1     :     0.000959
      f+2     :     0.001248
      f-2     :     0.001565
      f+3     :     0.002432
      f-3     :     0.004770

 10 C s       :     3.120073  s :     3.120073
      pz      :     0.906806  p :     2.514417
      px      :     0.836362
      py      :     0.771249
      dz2     :     0.001819  d :     0.153425
      dxz     :     0.021112
      dyz     :     0.041311
      dx2y2   :     0.047349
      dxy     :     0.041834
      f0      :     0.002096  f :     0.014021
      f+1     :     0.000950
      f-1     :     0.000957
      f+2     :     0.001248
      f-2     :     0.001565
      f+3     :     0.002433
      f-3     :     0.004772

 11 C s       :     3.120166  s :     3.120166
      pz      :     0.906798  p :     2.514663
      px      :     0.836933
      py      :     0.770932
      dz2     :     0.001815  d :     0.153445
      dxz     :     0.021103
      dyz     :     0.041325
      dx2y2   :     0.047351
      dxy     :     0.041850
      f0      :     0.002096  f :     0.014021
      f+1     :     0.000950
      f-1     :     0.000957
      f+2     :     0.001250
      f-2     :     0.001563
      f+3     :     0.002420
      f-3     :     0.004785

 12 C s       :     3.104568  s :     3.104568
      pz      :     0.903730  p :     2.421656
      px      :     0.735953
      py      :     0.781973
      dz2     :     0.002960  d :     0.155088
      dxz     :     0.038292
      dyz     :     0.030599
      dx2y2   :     0.043053
      dxy     :     0.040183
      f0      :     0.002298  f :     0.014540
      f+1     :     0.001075
      f-1     :     0.000893
      f+2     :     0.000877
      f-2     :     0.002181
      f+3     :     0.004448
      f-3     :     0.002768

 13 C s       :     3.104448  s :     3.104448
      pz      :     0.903716  p :     2.421709
      px      :     0.735816
      py      :     0.782176
      dz2     :     0.002958  d :     0.155090
      dxz     :     0.038302
      dyz     :     0.030592
      dx2y2   :     0.043050
      dxy     :     0.040188
      f0      :     0.002298  f :     0.014540
      f+1     :     0.001076
      f-1     :     0.000892
      f+2     :     0.000882
      f-2     :     0.002176
      f+3     :     0.004462
      f-3     :     0.002753

 14 C s       :     3.104536  s :     3.104536
      pz      :     0.903824  p :     2.421560
      px      :     0.735661
      py      :     0.782075
      dz2     :     0.002870  d :     0.155107
      dxz     :     0.038421
      dyz     :     0.030577
      dx2y2   :     0.043038
      dxy     :     0.040201
      f0      :     0.002305  f :     0.014541
      f+1     :     0.001068
      f-1     :     0.000891
      f+2     :     0.000878
      f-2     :     0.002177
      f+3     :     0.004468
      f-3     :     0.002755

 15 C s       :     3.104530  s :     3.104530
      pz      :     0.903814  p :     2.421680
      px      :     0.735826
      py      :     0.782041
      dz2     :     0.002877  d :     0.155098
      dxz     :     0.038412
      dyz     :     0.030587
      dx2y2   :     0.043021
      dxy     :     0.040201
      f0      :     0.002305  f :     0.014540
      f+1     :     0.001067
      f-1     :     0.000891
      f+2     :     0.000874
      f-2     :     0.002181
      f+3     :     0.004453
      f-3     :     0.002770

 16 C s       :     3.279034  s :     3.279034
      pz      :     1.066486  p :     3.010639
      px      :     0.963681
      py      :     0.980472
      dz2     :     0.002922  d :     0.071901
      dxz     :     0.015021
      dyz     :     0.015866
      dx2y2   :     0.007742
      dxy     :     0.030350
      f0      :     0.001559  f :     0.007346
      f+1     :     0.000681
      f-1     :     0.000669
      f+2     :     0.000831
      f-2     :     0.000424
      f+3     :     0.001504
      f-3     :     0.001679

 17 C s       :     3.279165  s :     3.279165
      pz      :     1.066523  p :     3.010687
      px      :     0.963850
      py      :     0.980314
      dz2     :     0.002923  d :     0.071908
      dxz     :     0.014970
      dyz     :     0.015914
      dx2y2   :     0.007752
      dxy     :     0.030349
      f0      :     0.001559  f :     0.007346
      f+1     :     0.000681
      f-1     :     0.000669
      f+2     :     0.000831
      f-2     :     0.000423
      f+3     :     0.001511
      f-3     :     0.001672

 18 C s       :     3.279159  s :     3.279159
      pz      :     1.066798  p :     3.010761
      px      :     0.963590
      py      :     0.980374
      dz2     :     0.002904  d :     0.071882
      dxz     :     0.014996
      dyz     :     0.015899
      dx2y2   :     0.007733
      dxy     :     0.030350
      f0      :     0.001562  f :     0.007346
      f+1     :     0.000677
      f-1     :     0.000671
      f+2     :     0.000831
      f-2     :     0.000420
      f+3     :     0.001512
      f-3     :     0.001673

 19 C s       :     3.279019  s :     3.279019
      pz      :     1.066840  p :     3.010805
      px      :     0.963493
      py      :     0.980472
      dz2     :     0.002907  d :     0.071874
      dxz     :     0.015045
      dyz     :     0.015848
      dx2y2   :     0.007714
      dxy     :     0.030359
      f0      :     0.001562  f :     0.007346
      f+1     :     0.000677
      f-1     :     0.000671
      f+2     :     0.000831
      f-2     :     0.000420
      f+3     :     0.001505
      f-3     :     0.001680

 20 C s       :     3.244997  s :     3.244997
      pz      :     1.014491  p :     2.881959
      px      :     0.957666
      py      :     0.909803
      dz2     :     0.004924  d :     0.081050
      dxz     :     0.020145
      dyz     :     0.010792
      dx2y2   :     0.017895
      dxy     :     0.027294
      f0      :     0.001593  f :     0.007892
      f+1     :     0.000623
      f-1     :     0.000752
      f+2     :     0.001213
      f-2     :     0.000232
      f+3     :     0.001219
      f-3     :     0.002260

 21 C s       :     3.244785  s :     3.244785
      pz      :     1.014507  p :     2.881982
      px      :     0.957716
      py      :     0.909760
      dz2     :     0.004924  d :     0.081043
      dxz     :     0.020115
      dyz     :     0.010821
      dx2y2   :     0.017911
      dxy     :     0.027273
      f0      :     0.001593  f :     0.007892
      f+1     :     0.000624
      f-1     :     0.000751
      f+2     :     0.001217
      f-2     :     0.000228
      f+3     :     0.001222
      f-3     :     0.002257

 22 C s       :     3.244945  s :     3.244945
      pz      :     1.014486  p :     2.881976
      px      :     0.957710
      py      :     0.909780
      dz2     :     0.004888  d :     0.081047
      dxz     :     0.020151
      dyz     :     0.010805
      dx2y2   :     0.017917
      dxy     :     0.027286
      f0      :     0.001599  f :     0.007892
      f+1     :     0.000616
      f-1     :     0.000752
      f+2     :     0.001220
      f-2     :     0.000224
      f+3     :     0.001221
      f-3     :     0.002260

 23 C s       :     3.244752  s :     3.244752
      pz      :     1.014494  p :     2.881972
      px      :     0.957632
      py      :     0.909846
      dz2     :     0.004887  d :     0.081045
      dxz     :     0.020179
      dyz     :     0.010778
      dx2y2   :     0.017892
      dxy     :     0.027309
      f0      :     0.001599  f :     0.007892
      f+1     :     0.000615
      f-1     :     0.000753
      f+2     :     0.001216
      f-2     :     0.000228
      f+3     :     0.001218
      f-3     :     0.002263

 24 H s       :     0.870691  s :     0.870691
      pz      :     0.011570  p :     0.022025
      px      :     0.005668
      py      :     0.004787

 25 H s       :     0.858039  s :     0.858039
      pz      :     0.007887  p :     0.021841
      px      :     0.007222
      py      :     0.006732

 26 H s       :     0.870690  s :     0.870690
      pz      :     0.011574  p :     0.022025
      px      :     0.005669
      py      :     0.004782

 27 H s       :     0.857990  s :     0.857990
      pz      :     0.007882  p :     0.021841
      px      :     0.007236
      py      :     0.006723

 28 H s       :     0.858021  s :     0.858021
      pz      :     0.007987  p :     0.021841
      px      :     0.007133
      py      :     0.006721

 29 H s       :     0.870665  s :     0.870665
      pz      :     0.011470  p :     0.022025
      px      :     0.005770
      py      :     0.004784

 30 H s       :     0.858036  s :     0.858036
      pz      :     0.007985  p :     0.021841
      px      :     0.007124
      py      :     0.006732

 31 H s       :     0.870665  s :     0.870665
      pz      :     0.011473  p :     0.022025
      px      :     0.005764
      py      :     0.004788

 32 H s       :     0.857783  s :     0.857783
      pz      :     0.005373  p :     0.022851
      px      :     0.008535
      py      :     0.008944

 33 H s       :     0.857791  s :     0.857791
      pz      :     0.005373  p :     0.022852
      px      :     0.008555
      py      :     0.008923

 34 H s       :     0.857780  s :     0.857780
      pz      :     0.005368  p :     0.022852
      px      :     0.008561
      py      :     0.008923

 35 H s       :     0.857777  s :     0.857777
      pz      :     0.005368  p :     0.022852
      px      :     0.008540
      py      :     0.008944

 36 H s       :     0.857804  s :     0.857804
      pz      :     0.004803  p :     0.022263
      px      :     0.007321
      py      :     0.010138

 37 H s       :     0.857768  s :     0.857768
      pz      :     0.004803  p :     0.022262
      px      :     0.007340
      py      :     0.010119

 38 H s       :     0.857746  s :     0.857746
      pz      :     0.004801  p :     0.022262
      px      :     0.007345
      py      :     0.010116

 39 H s       :     0.857767  s :     0.857767
      pz      :     0.004801  p :     0.022262
      px      :     0.007326
      py      :     0.010135

 40 Mgs       :     4.510231  s :     4.510231
      pz      :     2.082213  p :     6.437966
      px      :     2.160852
      py      :     2.194901
      dz2     :     0.031306  d :     0.262639
      dxz     :     0.013904
      dyz     :     0.034971
      dx2y2   :     0.170845
      dxy     :     0.011613



                     *******************************
                     * LOEWDIN POPULATION ANALYSIS *
                     *******************************

----------------------
LOEWDIN ATOMIC CHARGES
----------------------
   0 N :    0.195800
   1 N :    0.195784
   2 N :    0.154754
   3 N :    0.154783
   4 C :   -0.196433
   5 C :   -0.196433
   6 C :   -0.196427
   7 C :   -0.196421
   8 C :   -0.201435
   9 C :   -0.201409
  10 C :   -0.201398
  11 C :   -0.201376
  12 C :   -0.203321
  13 C :   -0.203318
  14 C :   -0.203306
  15 C :   -0.203295
  16 C :   -0.122744
  17 C :   -0.122759
  18 C :   -0.122776
  19 C :   -0.122792
  20 C :   -0.123311
  21 C :   -0.123315
  22 C :   -0.123268
  23 C :   -0.123274
  24 H :    0.145010
  25 H :    0.141421
  26 H :    0.145024
  27 H :    0.141415
  28 H :    0.141420
  29 H :    0.145009
  30 H :    0.141423
  31 H :    0.145009
  32 H :    0.158180
  33 H :    0.158179
  34 H :    0.158185
  35 H :    0.158185
  36 H :    0.138547
  37 H :    0.138546
  38 H :    0.138550
  39 H :    0.138550
  40 Mg:    0.355038

-------------------------------
LOEWDIN REDUCED ORBITAL CHARGES
-------------------------------
  0 N s       :     2.975469  s :     2.975469
      pz      :     1.119116  p :     3.597202
      px      :     1.353787
      py      :     1.124299
      dz2     :     0.016201  d :     0.212909
      dxz     :     0.009533
      dyz     :     0.050462
      dx2y2   :     0.063496
      dxy     :     0.073218
      f0      :     0.001122  f :     0.018621
      f+1     :     0.000769
      f-1     :     0.001755
      f+2     :     0.000326
      f-2     :     0.003568
      f+3     :     0.003741
      f-3     :     0.007340

  1 N s       :     2.975436  s :     2.975436
      pz      :     1.119216  p :     3.597260
      px      :     1.353751
      py      :     1.124292
      dz2     :     0.016200  d :     0.212901
      dxz     :     0.009531
      dyz     :     0.050458
      dx2y2   :     0.063498
      dxy     :     0.073214
      f0      :     0.001122  f :     0.018619
      f+1     :     0.000769
      f-1     :     0.001755
      f+2     :     0.000325
      f-2     :     0.003568
      f+3     :     0.003741
      f-3     :     0.007339

  2 N s       :     2.972718  s :     2.972718
      pz      :     1.219097  p :     3.654905
      px      :     1.106698
      py      :     1.329110
      dz2     :     0.015946  d :     0.199327
      dxz     :     0.043843
      dyz     :     0.010775
      dx2y2   :     0.060578
      dxy     :     0.068185
      f0      :     0.001104  f :     0.018297
      f+1     :     0.001708
      f-1     :     0.000846
      f+2     :     0.000194
      f-2     :     0.003770
      f+3     :     0.006822
      f-3     :     0.003854

  3 N s       :     2.972665  s :     2.972665
      pz      :     1.219160  p :     3.654905
      px      :     1.106639
      py      :     1.329107
      dz2     :     0.015900  d :     0.199348
      dxz     :     0.043863
      dyz     :     0.010733
      dx2y2   :     0.060618
      dxy     :     0.068233
      f0      :     0.001102  f :     0.018300
      f+1     :     0.001710
      f-1     :     0.000842
      f+2     :     0.000187
      f-2     :     0.003772
      f+3     :     0.006829
      f-3     :     0.003856

  4 C s       :     2.763197  s :     2.763197
      pz      :     1.033612  p :     3.027376
      px      :     0.994170
      py      :     0.999594
      dz2     :     0.048417  d :     0.365529
      dxz     :     0.072028
      dyz     :     0.067845
      dx2y2   :     0.085618
      dxy     :     0.091620
      f0      :     0.004480  f :     0.040331
      f+1     :     0.003526
      f-1     :     0.003506
      f+2     :     0.005505
      f-2     :     0.004719
      f+3     :     0.011261
      f-3     :     0.007332

  5 C s       :     2.763193  s :     2.763193
      pz      :     1.033603  p :     3.027366
      px      :     0.994193
      py      :     0.999570
      dz2     :     0.048472  d :     0.365543
      dxz     :     0.072070
      dyz     :     0.067746
      dx2y2   :     0.085569
      dxy     :     0.091685
      f0      :     0.004484  f :     0.040332
      f+1     :     0.003524
      f-1     :     0.003504
      f+2     :     0.005505
      f-2     :     0.004722
      f+3     :     0.011272
      f-3     :     0.007321

  6 C s       :     2.763202  s :     2.763202
      pz      :     1.033649  p :     3.027372
      px      :     0.994151
      py      :     0.999572
      dz2     :     0.047368  d :     0.365523
      dxz     :     0.073050
      dyz     :     0.068111
      dx2y2   :     0.085658
      dxy     :     0.091336
      f0      :     0.004401  f :     0.040330
      f+1     :     0.003609
      f-1     :     0.003563
      f+2     :     0.005453
      f-2     :     0.004663
      f+3     :     0.011318
      f-3     :     0.007323

  7 C s       :     2.763202  s :     2.763202
      pz      :     1.033644  p :     3.027363
      px      :     0.994121
      py      :     0.999598
      dz2     :     0.047400  d :     0.365527
      dxz     :     0.072954
      dyz     :     0.068180
      dx2y2   :     0.085699
      dxy     :     0.091294
      f0      :     0.004402  f :     0.040329
      f+1     :     0.003606
      f-1     :     0.003564
      f+2     :     0.005456
      f-2     :     0.004661
      f+3     :     0.011307
      f-3     :     0.007334

  8 C s       :     2.709660  s :     2.709660
      pz      :     0.836407  p :     2.787363
      px      :     0.959767
      py      :     0.991189
      dz2     :     0.041832  d :     0.626836
      dxz     :     0.068755
      dyz     :     0.122071
      dx2y2   :     0.202585
      dxy     :     0.191594
      f0      :     0.005405  f :     0.077576
      f+1     :     0.004496
      f-1     :     0.006071
      f+2     :     0.006830
      f-2     :     0.010610
      f+3     :     0.015449
      f-3     :     0.028714

  9 C s       :     2.709654  s :     2.709654
      pz      :     0.836399  p :     2.787344
      px      :     0.959611
      py      :     0.991334
      dz2     :     0.041835  d :     0.626836
      dxz     :     0.068779
      dyz     :     0.122058
      dx2y2   :     0.202551
      dxy     :     0.191613
      f0      :     0.005404  f :     0.077574
      f+1     :     0.004500
      f-1     :     0.006068
      f+2     :     0.006817
      f-2     :     0.010623
      f+3     :     0.015521
      f-3     :     0.028640

 10 C s       :     2.709658  s :     2.709658
      pz      :     0.836177  p :     2.787323
      px      :     0.959796
      py      :     0.991349
      dz2     :     0.041562  d :     0.626844
      dxz     :     0.068875
      dyz     :     0.121998
      dx2y2   :     0.202747
      dxy     :     0.191662
      f0      :     0.005414  f :     0.077574
      f+1     :     0.004469
      f-1     :     0.006051
      f+2     :     0.006824
      f-2     :     0.010616
      f+3     :     0.015536
      f-3     :     0.028664

 11 C s       :     2.709656  s :     2.709656
      pz      :     0.836170  p :     2.787306
      px      :     0.959940
      py      :     0.991196
      dz2     :     0.041563  d :     0.626841
      dxz     :     0.068846
      dyz     :     0.122036
      dx2y2   :     0.202752
      dxy     :     0.191644
      f0      :     0.005414  f :     0.077573
      f+1     :     0.004466
      f-1     :     0.006054
      f+2     :     0.006834
      f-2     :     0.010607
      f+3     :     0.015465
      f-3     :     0.028734

 12 C s       :     2.694635  s :     2.694635
      pz      :     0.839189  p :     2.785848
      px      :     0.969714
      py      :     0.976944
      dz2     :     0.042461  d :     0.642360
      dxz     :     0.112808
      dyz     :     0.094047
      dx2y2   :     0.198616
      dxy     :     0.194428
      f0      :     0.005175  f :     0.080479
      f+1     :     0.006013
      f-1     :     0.004708
      f+2     :     0.006252
      f-2     :     0.013724
      f+3     :     0.026597
      f-3     :     0.018010

 13 C s       :     2.694634  s :     2.694634
      pz      :     0.839174  p :     2.785836
      px      :     0.969565
      py      :     0.977098
      dz2     :     0.042462  d :     0.642367
      dxz     :     0.112868
      dyz     :     0.093993
[...]
  0-1A  -> 13-1A    5.406778   43608.6   229.3   0.000000003   0.00000  -0.00001   0.00003   0.00000
  0-1A  -> 14-1A    5.428165   43781.1   228.4   0.000006431   0.00000  -0.00008  -0.00004   0.00138
  0-1A  -> 15-1A    5.545814   44730.0   223.6   0.000000004   0.00000   0.00002   0.00002  -0.00002
  0-1A  -> 16-1A    5.647132   45547.2   219.6   0.008397425   0.00261   0.00040   0.00003  -0.05113
  0-1A  -> 17-1A    5.759366   46452.4   215.3   0.000000768   0.00000  -0.00003  -0.00049  -0.00000
  0-1A  -> 18-1A    5.781053   46627.3   214.5   0.000927026   0.00030  -0.01377  -0.01029  -0.00010
  0-1A  -> 19-1A    5.781564   46631.5   214.4   0.058511778   0.01865  -0.00116   0.13655   0.00001
  0-1A  -> 20-1A    6.058492   48865.0   204.6   0.000000081   0.00000  -0.00001   0.00016  -0.00001
  0-1A  -> 21-1A    6.251224   50419.5   198.3   0.000057769   0.00002  -0.00001  -0.00446   0.00000
  0-1A  -> 22-1A    6.285626   50697.0   197.3   0.000000016   0.00000  -0.00004  -0.00006  -0.00000
  0-1A  -> 23-1A    6.350233   51218.1   195.2   0.032107100   0.01124   0.00010  -0.10601  -0.00004
  0-1A  -> 24-1A    6.370816   51384.1   194.6   0.004075811   0.00143  -0.00003   0.03783   0.00001
  0-1A  -> 25-1A    6.461446   52115.1   191.9   0.000007862   0.00000  -0.00004   0.00004  -0.00167
  0-1A  -> 26-1A    6.469104   52176.8   191.7   0.000048730   0.00002   0.00417   0.00001   0.00008
  0-1A  -> 27-1A    6.578241   53057.1   188.5   0.000000054   0.00000  -0.00005   0.00013  -0.00000
  0-1A  -> 28-1A    6.710455   54123.5   184.8   0.026576674   0.00983  -0.09915  -0.00011  -0.00078
  0-1A  -> 29-1A    6.756278   54493.1   183.5   0.001453541   0.00054  -0.00028  -0.00002   0.02327
  0-1A  -> 30-1A    6.774105   54636.8   183.0   0.000072366   0.00003   0.00004   0.00520   0.00000

------------------------------------------------------------------------------------------
                     CD SPECTRUM VIA TRANSITION ELECTRIC DIPOLE MOMENTS    
------------------------------------------------------------------------------------------
     Transition      Energy     Energy  Wavelength    R        MX        MY        MZ   
                      (eV)      (cm-1)    (nm)   (1e40*cgs)   (au)      (au)      (au)  
------------------------------------------------------------------------------------------
  0-1A  ->  1-1A    2.046653   16507.4   605.8  -53.31045   0.00005  -0.03765  -0.00031
  0-1A  ->  2-1A    2.571367   20739.5   482.2   -2.00964  -0.00531  -0.00000  -0.00074
  0-1A  ->  3-1A    3.920945   31624.6   316.2   -0.39884  -0.00039   0.00009   0.04476
  0-1A  ->  4-1A    4.121217   33239.9   300.8    2.44034  -0.00465  -0.00001  -0.00016
  0-1A  ->  5-1A    4.414374   35604.3   280.9   -0.00002  -0.00002   0.00002  -0.00007
  0-1A  ->  6-1A    4.526618   36509.6   273.9  -38.19567   0.01854   0.00002  -0.00025
  0-1A  ->  7-1A    4.803720   38744.6   258.1  -153.80758  -0.00033   0.35549   0.00045
  0-1A  ->  8-1A    4.829448   38952.1   256.7    0.68040  -0.00088  -0.00000   0.10456
  0-1A  ->  9-1A    4.894913   39480.1   253.3  127.34809  -0.00007   0.07048  -0.00263
  0-1A  -> 10-1A    4.915764   39648.3   252.2   62.29353   0.01176   0.00012  -1.51207
  0-1A  -> 11-1A    5.242542   42284.0   236.5   -0.00007   0.00003  -0.00015  -0.00012
  0-1A  -> 12-1A    5.333913   43020.9   232.4    1.60103  -0.00029   0.00004   0.03174
  0-1A  -> 13-1A    5.406778   43608.6   229.3   -0.00000   0.00001   0.00006   0.00026
  0-1A  -> 14-1A    5.428165   43781.1   228.4   11.78864   0.00582   0.00003  -0.75417
  0-1A  -> 15-1A    5.545814   44730.0   223.6    0.00000   0.00008  -0.00005  -0.00008
  0-1A  -> 16-1A    5.647132   45547.2   219.6   -3.40401   0.00075   0.00010  -0.10607
  0-1A  -> 17-1A    5.759366   46452.4   215.3    0.00003  -0.00011  -0.00002  -0.00007
  0-1A  -> 18-1A    5.781053   46627.3   214.5   -1.14821  -0.04445  -0.00215   0.00020
  0-1A  -> 19-1A    5.781564   46631.5   214.4   13.29433  -0.00340   0.02812  -0.00015
  0-1A  -> 20-1A    6.058492   48865.0   204.6   -0.00008  -0.00007  -0.00005  -0.00014
  0-1A  -> 21-1A    6.251224   50419.5   198.3  -20.60227   0.00006  -0.03677  -0.00010
  0-1A  -> 22-1A    6.285626   50697.0   197.3   -0.00004  -0.00004  -0.00015   0.00006
  0-1A  -> 23-1A    6.350233   51218.1   195.2   62.22902   0.00004  -0.07772   0.00004
  0-1A  -> 24-1A    6.370816   51384.1   194.6  -34.97741   0.00014  -0.14627  -0.00017
  0-1A  -> 25-1A    6.461446   52115.1   191.9   -9.92813  -0.00478   0.00003   0.25571
  0-1A  -> 26-1A    6.469104   52176.8   191.7   -8.84583  -0.37369  -0.00036  -0.00499
  0-1A  -> 27-1A    6.578241   53057.1   188.5   -0.00034   0.00001  -0.00034  -0.00014
  0-1A  -> 28-1A    6.710455   54123.5   184.8    0.58305  -0.00466  -0.00009  -0.00027
  0-1A  -> 29-1A    6.756278   54493.1   183.5   -1.66071   0.00068  -0.00002  -0.06872
  0-1A  -> 30-1A    6.774105   54636.8   183.0  -10.24952   0.00025  -0.28838   0.00024

------------------------------------------------------------------------------------------
                     CD SPECTRUM VIA TRANSITION VELOCITY DIPOLE MOMENTS    
------------------------------------------------------------------------------------------
     Transition      Energy     Energy  Wavelength    R        MX        MY        MZ   
                      (eV)      (cm-1)    (nm)   (1e40*cgs)   (au)      (au)      (au)  
------------------------------------------------------------------------------------------
  0-1A  ->  1-1A    2.046653   16507.4   605.8   60.22470   0.00005  -0.03765  -0.00031
  0-1A  ->  2-1A    2.571367   20739.5   482.2    0.72362  -0.00531  -0.00000  -0.00074
  0-1A  ->  3-1A    3.920945   31624.6   316.2    0.39476  -0.00039   0.00009   0.04476
  0-1A  ->  4-1A    4.121217   33239.9   300.8    0.50734  -0.00465  -0.00001  -0.00016
  0-1A  ->  5-1A    4.414374   35604.3   280.9   -0.00000  -0.00002   0.00002  -0.00007
  0-1A  ->  6-1A    4.526618   36509.6   273.9   -1.53010   0.01854   0.00002  -0.00025
  0-1A  ->  7-1A    4.803720   38744.6   258.1    4.56145  -0.00033   0.35549   0.00045
  0-1A  ->  8-1A    4.829448   38952.1   256.7    1.52127  -0.00088  -0.00000   0.10456
  0-1A  ->  9-1A    4.894913   39480.1   253.3    0.79052  -0.00007   0.07048  -0.00263
  0-1A  -> 10-1A    4.915764   39648.3   252.2  -13.48336   0.01176   0.00012  -1.51207
  0-1A  -> 11-1A    5.242542   42284.0   236.5   -0.00001   0.00003  -0.00015  -0.00012
  0-1A  -> 12-1A    5.333913   43020.9   232.4    0.47864  -0.00029   0.00004   0.03174
  0-1A  -> 13-1A    5.406778   43608.6   229.3    0.00000   0.00001   0.00006   0.00026
  0-1A  -> 14-1A    5.428165   43781.1   228.4   -2.46888   0.00582   0.00003  -0.75417
  0-1A  -> 15-1A    5.545814   44730.0   223.6    0.00000   0.00008  -0.00005  -0.00008
  0-1A  -> 16-1A    5.647132   45547.2   219.6   12.31984   0.00075   0.00010  -0.10607
  0-1A  -> 17-1A    5.759366   46452.4   215.3    0.00003  -0.00011  -0.00002  -0.00007
  0-1A  -> 18-1A    5.781053   46627.3   214.5    1.40730  -0.04445  -0.00215   0.00020
  0-1A  -> 19-1A    5.781564   46631.5   214.4    8.52896  -0.00340   0.02812  -0.00015
  0-1A  -> 20-1A    6.058492   48865.0   204.6   -0.00001  -0.00007  -0.00005  -0.00014
  0-1A  -> 21-1A    6.251224   50419.5   198.3    0.33670   0.00006  -0.03677  -0.00010
  0-1A  -> 22-1A    6.285626   50697.0   197.3    0.00002  -0.00004  -0.00015   0.00006
  0-1A  -> 23-1A    6.350233   51218.1   195.2   16.64455   0.00004  -0.07772   0.00004
  0-1A  -> 24-1A    6.370816   51384.1   194.6  -11.14359   0.00014  -0.14627  -0.00017
  0-1A  -> 25-1A    6.461446   52115.1   191.9   -0.84875  -0.00478   0.00003   0.25571
  0-1A  -> 26-1A    6.469104   52176.8   191.7   -3.08940  -0.37369  -0.00036  -0.00499
  0-1A  -> 27-1A    6.578241   53057.1   188.5   -0.00009   0.00001  -0.00034  -0.00014
  0-1A  -> 28-1A    6.710455   54123.5   184.8    0.88320  -0.00466  -0.00009  -0.00027
  0-1A  -> 29-1A    6.756278   54493.1   183.5   -3.03599   0.00068  -0.00002  -0.06872
  0-1A  -> 30-1A    6.774105   54636.8   183.0   -2.83884   0.00025  -0.28838   0.00024

Total run time:     2855.472 sec

           *** ORCA-CIS/TD-DFT FINISHED WITHOUT ERROR ***
-----------------------
CIS/TD-DFT TOTAL ENERGY
-----------------------

    E(SCF)  =  -1191.020996334 Eh
    DE(CIS) =      0.075213122 Eh (Root  1)
    ----------------------------- ---------
    E(tot)  =  -1190.945783212 Eh


Maximum memory used throughout the entire CIS-calculation: 2695.0 MB
=> NOW LEAVING ORCA_CIS


-------------------------------------------------------------------------------
                          DFT DISPERSION CORRECTION                            
                                                                               
                              DFTD3 V3.1  Rev 1                                
                              USING zero damping                               
-------------------------------------------------------------------------------
The omegaB97X-D3 functional is recognized. Fit by Chai et al.
Active option DFTDOPT                   ...         3   

molecular C6(AA) [au] = 22840.081038 


            DFT-D V3
 parameters
 s6 scaling factor         :     1.0000 
 rs6 scaling factor        :     1.2810 
 s8 scaling factor         :     1.0000 
 rs8 scaling factor        :     1.0940 
 Damping factor alpha6     :    14.0000 
 Damping factor alpha8     :    16.0000 
 ad hoc parameters k1-k3   :    16.0000     1.3333    -4.0000 

 Edisp/kcal,au: -12.220377612375  -0.019474409254 
 E6   /kcal   :  -5.348412553 
 E8   /kcal   :  -6.871965059 
 % E8         :  56.233655598 

-------------------------   ----------------
Dispersion correction           -0.019474409
-------------------------   ----------------


-------------------------   --------------------
FINAL SINGLE POINT ENERGY     -1190.965257621702
-------------------------   --------------------



           ************************************************************
           *        Program running with 4 parallel MPI-processes     *
           *              working on a common directory               *
           ************************************************************

------------------------------------------------------------------------------
                              ORCA PROPERTY CALCULATIONS
------------------------------------------------------------------------------

GBWName                                 ... tddft.gbw
Number of atoms                         ...     41
Number of basis functions               ...    872
Max core memory                         ...   3000 MB

Electric properties:
Dipole moment                           ... YES
Quadrupole moment                       ...  NO
Static polarizability (Dipole/Dipole)   ...  NO
Static polarizability (Dipole/Quad.)    ...  NO
Static polarizability (Quad./Quad.)     ...  NO
Static polarizability (Velocity)        ...  NO
Static hyperpolarizability              ...  NO

Atomic electric properties:
Dipole moment                           ...  NO
Quadrupole moment                       ...  NO
Static polarizability                   ...  NO

Choice of electric origin               ... Center of mass
Position of electric origin             ...    -0.003613    -0.019229     0.068836

General magnetic properties:
Magnetizability                         ...  NO

EPR properties:
g-Tensor (aka g-matrix)                 ...  NO
Zero-Field splitting spin-orbit         ...  NO
Zero-field splitting spin-spin          ...  NO
Hyperfine couplings                     ...  NO (   0 nuclei)
Quadrupole couplings                    ...  NO (   0 nuclei)
Contact density                         ...  NO (   0 nuclei)

NMR properties:
Chemical shifts                         ...  NO (   0 nuclei)
Spin-rotation constants                 ...  NO (   0 nuclei)
Spin-spin couplings                     ...  NO (   0 nuclei,    0 pairs)

Choice of magnetic origin               ... GIAO
Position of magnetic origin             ...     0.000000     0.000000     0.000000

Properties with geometric perturbations:
SCF Hessian                             ...  NO
IR spectrum                             ...  NO
VCD spectrum                            ...  NO
X-ray spectroscopy properties:
SCF XES/XAS/RIXS spectra                ...  NO

SCF SOC stabilization energy            ...  NO
Diagonal Born-Oppenheimer correction    ...  NO

-------------
DIPOLE MOMENT
-------------

Method             : SCF
Type of density    : Electron Density
Multiplicity       :   1
Irrep              :   0
Energy             : -1191.0209963341976618 Eh
Basis              : AO
                                X                 Y                 Z
Electronic contribution:      0.000791339       0.000888431      -0.000408514
Nuclear contribution   :     -0.000660183       0.000201001       0.000373176
                        -----------------------------------------
Total Dipole Moment    :      0.000131156       0.001089432      -0.000035337
                        -----------------------------------------
Magnitude (a.u.)       :      0.001097868
Magnitude (Debye)      :      0.002790558



--------------------
Rotational spectrum 
--------------------
 
Rotational constants in cm-1:             0.008915             0.008207             0.004290 
Rotational constants in MHz :           267.260438           246.047427           128.597541 

Dipole components along the rotational axes: 
x,y,z [a.u.] :     0.000132    -0.001089    -0.000036 
x,y,z [Debye]:     0.000335    -0.002769    -0.000093 

 

Dipole moment calculation done in   0.1 sec 

Maximum memory used throughout the entire PROP-calculation: 90.9 MB

--------------------------------
SUGGESTED CITATIONS FOR THIS RUN
--------------------------------

Below you find a list of papers that are relevant to this ORCA run
We neither can nor want to force you to cite these papers, but we appreciate if you do
You receive ORCA, which is the product of decades of hard work by many enthusiastic individuals, for free
The only thing we kindly ask in return is that you cite our papers,
We deeply appreciate it, if you show your appreciation for ORCA by not just citing the generic ORCA reference.

Please note that relegating all ORCA citations to the supporting information does *not* help us.
SI sections are not indexed - citations you put there will not count into any citation statistics
But we need these citations in order to attract the funding resources that allow us to do what we are doing

Therefore, if you are a happy ORCA user, please consider citing a few of the papers listed below in the main body of your paper

In addition to the list printed below, the program has created the file tddft.bibtex that contains the list in bibtex format
You can import this file easily into all common literature databanks and citation aid programs

It goes without saying that in many instances, there are alternative algorithms to achieve similar
results as the ones you have gotten from ORCA. It is, of course, also the case that in some instances
ORCA just re-implements algorithms worked out by others. We are fully aware of that and we are also
fully appreciative of our colleagues work. Hence this citation list should not be read as indicating
that the listed papers, which are focused on our own work, are the only ones worth citing. It simply
meant to make it easier for users to cite ORCA specific papers. It is not a substitute for doing your
own literature research and citing the relevant literature in a scientifically appropriate manner.

List of essential papers. We consider these as the minimum necessary citations

  1. Neese, F.
     Software update: the ORCA program system, version 6.0
     WIRES Comput. Molec. Sci. 2025 15(1), e70019
     doi.org/10.1002/wcms.70019

List of papers to cite with high priority. The work reported in these papers was absolutely
necessary for this run to complete.
Our perspective: the developers of density functionals and basis sets usually get cited in chemistry papers
Good! But without the algorithms to do something with them, the functionals or basis sets would not do anything.
Hence, in our opinion, the algorithm design and method developments papers are equally worthy of getting cited

  1. Neese, F.; Olbrich, G.
     Efficient use of the resolution of the identity approximation in time-dependent density functional calculations with hybrid density functionals
     Chem. Phys. Lett. 2002 362 , 170-178
     doi.org/10.1016/s0009-2614(02)01053-9
  2. Neese, F.
     An improvement of the resolution of the identity approximation for the formation of the Coulomb matrix
     J. Comp. Chem. 2003 24(14), 1740-1747
     doi.org/10.1002/jcc.10318
  3. Neese, F.; Wennmohs, F.; Hansen, A.; Becker, U.
     Efficient, approximate and parallel Hartree-Fock and hybrid DFT calculations. A 'chain-of-spheres' algorithm for the Hartree-Fock exchange
     Chem. Phys. 2009 356(1-3), 98-109
     doi.org/10.1016/j.chemphys.2008.10.036
  4. Grimme, S.; Antony, J.; Ehrlich, S.; Krieg, H.
     A consistent and accurate ab initio parametrization of density functional dispersion correction (DFT-D) for the 94 elements H-Pu
     J. Chem. Phys. 2010 132 , 154104
     doi.org/10.1063/1.3382344
  5. Helmich-Paris, B.; de Souza, B.; Neese, F.; Izsák, R.
     An improved chain of spheres for exchange algorithm
     J. Chem. Phys. 2021 155(10), 104109
     doi.org/10.1063/5.0058766
  6. Neese, F.
     The SHARK Integral Generation and Digestion System
     J. Comp. Chem. 2022 44(3), 381
     doi.org/10.1002/jcc.26942

List of suggested additional citations. These are papers that are important in the 'surrounding' of 
of this run, or papers that preceded the highly important papers. If you like your results we are grateful for a citation.

  1. Izsak, R.; Neese, F.
     An overlap fitted chain of spheres exchange method
     J. Chem. Phys. 2011 135 , 144105
     doi.org/10.1063/1.3646921
  2. Izsak, R.; Hansen, A.; Neese, F.
     The resolution of identity and chain of spheres approximations for the LPNO-CCSD singles Fock term
     Molec. Phys. 2012 110 , 2413-2417
     doi.org/10.1080/00268976.2012.687466
  3. Neese, F.
     The ORCA program system
     WIRES Comput. Molec. Sci. 2012 2(1), 73-78
     doi.org/10.1002/wcms.81
  4. Izsak, R.; Neese, F.; Klopper, W.
     Robust fitting techniques in the chain of spheres approximation to the Fock exchange: The role of the complementary space
     J. Chem. Phys. 2013 139 , 
     doi.org/10.1063/1.4819264
  5. Neese, F.
     Software update: the ORCA program system, version 4.0
     WIRES Comput. Molec. Sci. 2018 8(1), 1-6
     doi.org/10.1002/wcms.1327
  6. Neese, F.; Wennmohs, F.; Becker, U.; Riplinger, C.
     The ORCA quantum chemistry program package
     J. Chem. Phys. 2020 152(22), 224108
     doi.org/10.1063/5.0004608
  7. Neese, F.
     Software update: The ORCA program system—Version 5.0
     WIRES Comput. Molec. Sci. 2022 12(1), e1606
     doi.org/10.1002/wcms.1606

List of optional additional citations

  1. Neese, F.
     Approximate second-order SCF convergence for spin unrestricted wavefunctions
     Chem. Phys. Lett. 2000 325(1-3), 93-98
     doi.org/10.1016/s0009-2614(00)00662-x

Timings for individual modules:

Sum of individual times          ...     4750.800 sec (=  79.180 min)
Startup calculation              ...       33.818 sec (=   0.564 min)   0.7 %
SCF iterations                   ...     1859.231 sec (=  30.987 min)  39.1 %
Property integrals               ...        1.102 sec (=   0.018 min)   0.0 %
Property calculations            ...        0.847 sec (=   0.014 min)   0.0 %
CIS module                       ...     2855.802 sec (=  47.597 min)  60.1 %
                             ****ORCA TERMINATED NORMALLY****
TOTAL RUN TIME: 0 days 1 hours 19 minutes 11 seconds 404 msec
