
                                 *****************
                                 * O   R   C   A *
                                 *****************

                                            #,                                       
                                            ###                                      
                                            ####                                     
                                            #####                                    
                                            ######                                   
                                           ########,                                 
                                     ,,################,,,,,                         
                               ,,#################################,,                 
                          ,,##########################################,,             
                       ,#########################################, ''#####,          
                    ,#############################################,,   '####,        
                  ,##################################################,,,,####,       
                ,###########''''           ''''###############################       
              ,#####''   ,,,,##########,,,,          '''####'''          '####       
            ,##' ,,,,###########################,,,                        '##       
           ' ,,###''''                  '''############,,,                           
         ,,##''                                '''############,,,,        ,,,,,,###''
      ,#''                                            '''#######################'''  
     '                                                          ''''####''''         
             ,#######,   #######,   ,#######,      ##                                
            ,#'     '#,  ##    ##  ,#'     '#,    #''#        ,####,    ,#,          
            ##       ##  ##   ,#'  ##            #'  '#       #'       ,# #          
            ##       ##  #######   ##           ,######,      #####,      #          
            '#,     ,#'  ##    ##  '#,     ,#' ,#      #,     #,   #      #          
             '#######'   ##     ##  '#######'  #'      '#     '####' #    #          



                #########################################################
                #                        -***-                          #
                #          Department of theory and spectroscopy        #
                #                                                       #
                #                      Frank Neese                      #
                #                                                       #
                #     Directorship, Architecture, Infrastructure        #
                #                    SHARK, DRIVERS                     #
                #        Core code/Algorithms in most modules           #
                #                                                       #
                #        Max Planck Institute fuer Kohlenforschung      #
                #                Kaiser Wilhelm Platz 1                 #
                #                 D-45470 Muelheim/Ruhr                 #
                #                      Germany                          #
                #                                                       #
                #                  All rights reserved                  #
                #                        -***-                          #
                #########################################################


                         Program Version 6.1.1  -  RELEASE   -
                                (GIT: $487d211c$)
                          ($2025-11-21 10:33:24 +0100$)


 With contributions from (in alphabetic order):
[Max-Planck-Institut fuer Kohlenforschung]                               
  Daniel Aravena         : Magnetic Suceptibility                        
  Michael Atanasov       : Ab Initio Ligand Field Theory (pilot matlab implementation)
  Alexander A. Auer      : GIAO ZORA, VPT2 properties, NMR spectrum      
  Ute Becker             : All parallelization in ORCA, NUMFREQ, NUMCALC 
  Giovanni Bistoni       : ED, misc. LED, open-shell LED, HFLD           
  Dmytro Bykov           : pre 5.0 version of the SCF Hessian            
  Marcos Casanova-Páez   : Triplet and SCS-CIS(D). UHF-(DLPNO)-IP/EA/STEOM-CCSD. UHF-CVS-IP/STEOM-CCSD   
  Vijay G. Chilkuri      : MRCI spin determinant printing, contributions to CSF-ICE 
  Pauline Colinet        : FMM embedding                                 
  Dipayan Datta          : RHF DLPNO-CCSD density                        
  Achintya Kumar Dutta   : EOM-CC, STEOM-CC                              
  Nicolas Foglia         : Exact transition moments, OPA infrastructure, MCD improvements    
  Dmitry Ganyushin       : Spin-Orbit,Spin-Spin,Magnetic field MRCI      
  Miquel Garcia-Rates    : C-PCM and meta-GGA Hessian, CCSD/C-PCM, Gaussian charge scheme 
  Tiago L. C. Gouveia    : GS-ROHF, GS-ROCIS                             
  Yang Guo               : DLPNO-NEVPT2, F12-NEVPT2, CIM, IAO-localization        
  Andreas Hansen         : Spin unrestricted coupled pair/coupled cluster methods 
  Ingolf Harden          : AUTO-CI MPn and infrastructure                
  Benjamin Helmich-Paris : MC-RPA, TRAH-(SCF,CASSCF), AVAS, COSX integrals, SCF dyn. polar., MC-PDFT, srDFT 
  Lee Huntington         : MR-EOM, pCC                                   
  Robert Izsak           : Overlap fitted RIJCOSX, COSX-SCS-MP3, EOM     
  Riya Kayal             : Wick's Theorem for AUTO-CI, AUTO-CI UHF-CCSDT 
  Emily Kempfer          : AUTO-CI RHF CISDT and CCSDT, approximate NEVPT4
  Christian Kollmar      : KDIIS, OOCD, Brueckner-CCSD(T), CCSD density, CASPT2, CASPT2-K, improved NEVPT2 
  Axel Koslowski         : Symmetry handling                             
  Simone Kossmann        : meta-GGA functionals, TD-DFT gradient, OOMP2, (MP2 Hessian; deprecated post 5.0) 
  Lucas Lang             : DCDCAS, Hyperfine gauge corrections, ICE-SOC+SSC
  Marvin Lechner         : AUTO-CI (C++ implementation), FIC-MRCC        
  Spencer Leger          : CASSCF response                               
  Dagmar Lenk            : GEPOL surface, SMD, ORCA-2-JSON               
  Dimitrios Liakos       : Extrapolation schemes; Compound Job, Property file
  Dimitrios Manganas     : Further ROCIS development; embedding schemes. LFT, Crystal Embedding 
  Dimitrios Pantazis     : SARC Basis sets                               
  Anastasios Papadopoulos: AUTO-CI, single reference methods and gradients 
  Taras Petrenko         : pre 6.0 DFT Hessian and TD-DFT gradient,  ECA, NRVS 
  Petra Pikulova         : Analytic Raman intensities                    
  Peter Pinski           : DLPNO-MP2, DLPNO-MP2 Gradient                 
  Shashank Vittal Rao    : ES-AILFT, MagRelax                            
  Christoph Reimann      : Effective Core Potentials                     
  Marius Retegan         : Local ZFS, SOC                                
  Christoph Riplinger    : Optimizer, TS searches, QM/MM, DLPNO-CCSD(T), (RO)-DLPNO pert. Triples 
  Michael Roemelt        : Original ROCIS implementation, recursive CI coupling coefficients
  Masaaki Saitow         : Open-shell DLPNO-CCSD energy and density      
  Barbara Sandhoefer     : DKH picture change effects                    
  Yorick L. A. Schmerwitz: GMF and freeze-and-release deltaSCF, NEB S-IDPP initial path                    
  Kantharuban Sivalingam : CASSCF convergence/infrastructure, NEVPT2, NEVPT3, NEVPT4(SD), FIC-MRCI and CEPA variants
  Bernardo de Souza      : ESD, SOC TD-DFT                               
  Georgi L. Stoychev     : AutoAux, RI-MP2 NMR, DLPNO-MP2 response, X2C  
  Van Anh Tran           : RI-MP2 g-tensors                              
  Willem Van den Heuvel  : Paramagnetic NMR                              
  Zikuan Wang            : NOTCH, Electric field optimization            
  Frank Wennmohs         : Technical directorship and infrastructure     
  Hang Xu                : AUTO-CI-Response properties                   
                                                                         
[FACCTs GmbH]                                                            
  Markus Bursch, Nicolas Foglia, Miquel Garcia-Rates, Ingolf Harden, Hagen Neugebauer, Anastasios Papadopoulos, 
  Christoph Riplinger, Bernardo de Souza, Georgi L. Stoychev                                                    
                                                                 
  APM, various basis sets, CI-OPT, improved COSX, DLPNO-Multilevel,           
  DOCKER, DRACO, updates on ESD, Fragmentator, GOAT, IRC, LR-CPCM, L-BFGS, MBIS, meta-GGA TD-DFT gradient, ML-optimized integration grids, 
  MM, NACMEs, nearIR, NEB, NEB-TS, NL-DFT gradient (VV10), 2- and 3-layer-ONIOM, interface openCOSMO-RS, QMMM,   
  Crystal-QMMM, RESP, rigid body optimization, SF, symmetry and pop. for TD-DFT, various functionals, SOLVATOR                                   
                                                                         
[Other institutions]                                                     
  V. Asgeirsson          : NEB                                           
  Christoph Bannwarth    : sTDA-DFT, sTD-DFT, PBEh-3c, B97-3c, D3        
  Giovanni Bistoni       : ETS/NOCV, ADLD/ADEX, COVALED                  
  Martin Brehm           : Molecular dynamics                            
  Ronald Cardenas        : ETS/NOCV                                      
  Martina Colucci        : COVALED                                       
  Sebastian Ehlert       : rSCAN, r2SCAN, r2SCAN-3c, D4, dhf basis sets  
  Marvin Friede          : D4 for Fr, Ra, Ac-Lr                          
  Lars Goerigk           : TD-DFT with DH, B97 family of functionals     
  Stefan Grimme          : VdW corrections, initial TS optimization, DFT functionals, gCP, sTDA/sTD-DF 
  Waldemar Hujo          : DFT-NL                                        
  H. Jonsson             : NEB                                           
  Holger Kruse           : gCP                                           
  Marcel Mueller         : wB97X-3c, vDZP basis set                      
  Hagen Neugebauer       : wr2SCAN, Native XTB                           
  Gianluca Regni         : ADLD/ADEX                                     
  Tobias Risthaus        : pre 6.0 range-separated hybrid DFT and stability analysis
  Lukas Wittmann         : regularized MP2, r2SCAN double-hybrids, wr2SCAN        
                                                                         
We gratefully acknowledge several colleagues who have allowed us to      
interface, adapt or use parts of their codes:                            
  Ed Valeev, F. Pavosevic, A. Kumar             : LibInt (2-el integral package), F12 methods 
  Garnet Chan, S. Sharma, J. Yang, R. Olivares  : DMRG                   
  Ulf Ekstrom                                   : XCFun DFT Library      
  Mihaly Kallay                                 : mrcc  (arbitrary order and MRCC methods)
  Frank Weinhold                                : gennbo (NPA and NBO analysis)           
  Simon Mueller                                 : openCOSMO-RS                            
  Christopher J. Cramer and Donald G. Truhlar   : smd solvation model                     
  S Lehtola, MJT Oliveira, MAL Marques          : LibXC Library                           
  Liviu Ungur et al                             : ANISO software                          


 Your calculation uses the libint2 library for the computation of 2-el integrals
 For citations please refer to: http://libint.valeyev.net

 Your ORCA version has been built with support for libXC version: 7.0.0
 For citations please refer to: https://libxc.gitlab.io

 This ORCA versions uses:
   CBLAS   interface :  Fast vector & matrix operations
   LAPACKE interface :  Fast linear algebra routines
   SCALAPACK package :  Parallel linear algebra routines
   Shared memory     :  Shared parallel matrices
   BLAS/LAPACK       :  OpenBLAS 0.3.29  USE64BITINT DYNAMIC_ARCH NO_AFFINITY Haswell SINGLE_THREADED
        Core in use  :  Haswell
   Copyright (c) 2011-2014, The OpenBLAS Project


  ***********************************
  * Starting time: Sun Jul  5 18:21:18 2026
  * Host name:     steezy
  * Process ID:    1282856
  * Working dir.:  /home/jannes/chlorophyll-ladder/007-mg-core-ladder/mgbacteriochlorin/02_tddft/tpss
  ***********************************

NOTE: MaxCore=3000 MB was set to SCF,MP2,MDCI,CIPSI,MRCI,RASCI and CIS
      => If you want to overwrite this, your respective input block should be placed after the MaxCore statement


***************************************
The coordinates will be read from file: /home/jannes/chlorophyll-ladder/007-mg-core-ladder/mgbacteriochlorin/01_opt/mgbacteriochlorin_opt_b3lypd4_tzvp.xyz
***************************************


================================================================================

----- Orbital basis set information -----
Your calculation utilizes the basis: def2-TZVP
   F. Weigend and R. Ahlrichs, Phys. Chem. Chem. Phys. 7, 3297 (2005).

----- AuxJ basis set information -----
Your calculation utilizes the auxiliary basis: def2/J
   H-Rn: F. Weigend, Phys. Chem. Chem. Phys. 8, 1057 (2006).
   Fr-Lr: K. Eichkorn, F. Weigend, O. Treutler, R. Ahlrichs; Theor. Chem. Acc. 97, 119 (1997).

================================================================================
                                        WARNINGS
                       Please study these warnings very carefully!
================================================================================



WARNING: Found flag for RIJCOSX approximation but no HF exchange needed!
  ===> : RIJCOSX  will be disabled and Split-RI-J is turned on

WARNING: CIS/ROCIS methods need fully converged wavefunctions
  ===> : Setting SCFConvForced true
         You can overwrite this default with %scf ConvForced false 


================================================================================
                                       INPUT FILE
================================================================================
NAME = tddft.inp
|  1> %pal nprocs 4 end
|  2> %maxcore 3000
|  3> ! TPSS def2-TZVP def2/J RIJCOSX DefGrid3 TightSCF
|  4> %tddft
|  5>   nroots 30
|  6>   triplets false
|  7> end
|  8> * xyzfile 0 1 /home/jannes/chlorophyll-ladder/007-mg-core-ladder/mgbacteriochlorin/01_opt/mgbacteriochlorin_opt_b3lypd4_tzvp.xyz
|  9> 
| 10>                          ****END OF INPUT****
================================================================================

                       ****************************
                       * Single Point Calculation *
                       ****************************

---------------------------------
CARTESIAN COORDINATES (ANGSTROEM)
---------------------------------
  N     -2.124578   -0.012303    0.019619
  N      2.120702   -0.008182    0.053311
  N      0.000054   -2.042965    0.036072
  N     -0.003922    2.022643    0.036768
  C     -4.365647   -0.772052   -0.118068
  C      4.363206   -0.763605    0.191137
  C     -4.368868    0.743331    0.123418
  C      4.363545    0.751732   -0.050582
  C     -2.893435   -1.127457   -0.033347
  C      2.891729   -1.121890    0.105994
  C     -2.896171    1.101445    0.061023
  C      2.890180    1.107061    0.012189
  C     -1.099225   -2.861182    0.000405
  C      1.100883   -2.859069    0.071901
  C     -1.105169    2.838701    0.055116
  C      1.095772    2.840793    0.018125
  C     -2.428367   -2.424151   -0.040149
  C      2.429194   -2.419482    0.112495
  C     -2.433870    2.399066    0.075036
  C      2.425350    2.403775   -0.001591
  C     -0.680956   -4.229545    0.012980
  C      0.685237   -4.228237    0.059463
  C     -0.689363    4.207941    0.048969
  C      0.677354    4.209237    0.023929
  H     -4.752237   -1.026638   -1.108895
  H     -4.959962   -1.326894    0.608414
  H      4.749790   -1.017167    1.182234
  H      4.958957   -1.317434   -0.534930
  H     -4.953125    1.297020   -0.612043
  H     -4.770793    0.997360    1.108263
  H      4.946888    1.306572    0.684739
  H      4.764732    1.006428   -1.035547
  H     -3.179766   -3.203559   -0.079566
  H      3.182074   -3.197459    0.151893
  H     -3.187309    3.176996    0.103002
  H      3.177260    3.183189   -0.029363
  H     -1.343528   -5.080762   -0.009530
  H      1.349426   -5.078189    0.082157
  H     -1.354064    5.057708    0.060979
  H      1.340439    5.060262    0.011412
  Mg    -0.001641   -0.010087    0.036418

----------------------------
CARTESIAN COORDINATES (A.U.)
----------------------------
  NO LB      ZA    FRAG     MASS         X           Y           Z
   0 N     7.0000    0    14.007   -4.014871   -0.023249    0.037074
   1 N     7.0000    0    14.007    4.007547   -0.015462    0.100743
   2 N     7.0000    0    14.007    0.000102   -3.860643    0.068165
   3 N     7.0000    0    14.007   -0.007411    3.822241    0.069481
   4 C     6.0000    0    12.011   -8.249878   -1.458967   -0.223116
   5 C     6.0000    0    12.011    8.245265   -1.443005    0.361196
   6 C     6.0000    0    12.011   -8.255964    1.404693    0.233226
   7 C     6.0000    0    12.011    8.245904    1.420568   -0.095586
   8 C     6.0000    0    12.011   -5.467801   -2.130585   -0.063016
   9 C     6.0000    0    12.011    5.464575   -2.120065    0.200300
  10 C     6.0000    0    12.011   -5.472971    2.081430    0.115316
  11 C     6.0000    0    12.011    5.461648    2.092042    0.023034
  12 C     6.0000    0    12.011   -2.077234   -5.406851    0.000765
  13 C     6.0000    0    12.011    2.080367   -5.402857    0.135874
  14 C     6.0000    0    12.011   -2.088466    5.364367    0.104155
  15 C     6.0000    0    12.011    2.070710    5.368321    0.034251
  16 C     6.0000    0    12.011   -4.588949   -4.580981   -0.075870
  17 C     6.0000    0    12.011    4.590511   -4.572158    0.212586
  18 C     6.0000    0    12.011   -4.599348    4.533577    0.141797
  19 C     6.0000    0    12.011    4.583247    4.542477   -0.003006
  20 C     6.0000    0    12.011   -1.286820   -7.992681    0.024528
  21 C     6.0000    0    12.011    1.294910   -7.990210    0.112369
  22 C     6.0000    0    12.011   -1.302708    7.951855    0.092538
  23 C     6.0000    0    12.011    1.280014    7.954306    0.045220
  24 H     1.0000    0     1.008   -8.980427   -1.940064   -2.095508
  25 H     1.0000    0     1.008   -9.372970   -2.507465    1.149735
  26 H     1.0000    0     1.008    8.975803   -1.922168    2.234098
  27 H     1.0000    0     1.008    9.371070   -2.489590   -1.010871
  28 H     1.0000    0     1.008   -9.360049    2.451013   -1.156593
  29 H     1.0000    0     1.008   -9.015493    1.884737    2.094314
  30 H     1.0000    0     1.008    9.348264    2.469063    1.293968
  31 H     1.0000    0     1.008    9.004039    1.901874   -1.956899
  32 H     1.0000    0     1.008   -6.008887   -6.053850   -0.150357
  33 H     1.0000    0     1.008    6.013249   -6.042321    0.287037
  34 H     1.0000    0     1.008   -6.023141    6.003652    0.194646
  35 H     1.0000    0     1.008    6.004152    6.015356   -0.055489
  36 H     1.0000    0     1.008   -2.538900   -9.601249   -0.018009
  37 H     1.0000    0     1.008    2.550046   -9.596387    0.155255
  38 H     1.0000    0     1.008   -2.558811    9.557682    0.115234
  39 H     1.0000    0     1.008    2.533064    9.562509    0.021566
  40 Mg   12.0000    0    24.305   -0.003102   -0.019062    0.068819

--------------------------------
INTERNAL COORDINATES (ANGSTROEM)
--------------------------------
 N      0   0   0     0.000000000000     0.00000000     0.00000000
 N      1   0   0     4.245416085717     0.00000000     0.00000000
 N      2   1   0     2.939011375942    43.75967239     0.00000000
 N      1   2   3     2.939129070827    43.76187171   180.00255177
 C      1   2   3     2.370352009699   161.12036003   351.01820559
 C      2   1   3     2.370334321602   161.11898876   350.98604815
 C      5   1   2     1.534507198399    71.11414070   179.93485080
 C      6   2   1     1.534495241103    71.11492103   179.93600990
 C      1   2   3     1.355550048196   124.63056083   357.60358136
 C      2   1   3     1.355582128298   124.62977820   357.59599889
 C      1   2   3     1.355546123926   124.62160127   177.56972785
 C      2   1   3     1.355563808831   124.62364954   177.56200688
 C      3   2   1     1.370826670960   172.75333140     8.90847460
 C      3   2   1     1.370815363532    80.36235659   181.15564598
 C      4   1   2     1.370777821536    80.36358993   181.14305473
 C      4   1   2     1.370782906164   172.74430185     9.13892315
 C      9   1   2     1.377588111167   125.66613610     2.25390691
 C     10   2   1     1.377579558700   125.66739448     2.25241290
 C     11   1   2     1.377584022390   125.67739340     2.30114869
 C     12   2   1     1.377579356145   125.67503938     2.29624379
 C     13   3  14     1.430916519652   109.64262364   359.95276415
 C     21  13   3     1.366983719650   106.94919461     0.12079397
 C     15   4   1     1.430996176158   109.64179711   181.00446043
 C     23  15   4     1.366947587917   106.94825517     0.12005675
 H      5   1   2     1.093619998274   117.48119229   285.29610054
 H      5   1   2     1.090336727187   129.77292185    74.83365878
 H      6   2   1     1.093624260422   117.45243435   285.29735237
 H      6   2   1     1.090329122694   129.79853465    74.83293182
 H      7   5   1     1.090334418898   113.35711182   126.06534071
 H      7   5   1     1.093615512790   111.83148131   247.14860792
 H      8   6   2     1.090336113225   113.35342562   126.07482105
 H      8   6   2     1.093607292633   111.83547187   247.16406460
 H     17   9   1     1.083342905325   116.30988331   179.63283291
 H     18  10   2     1.083341733356   116.31217148   179.64366974
 H     19  11   1     1.083340715870   116.31275699   179.62575756
 H     20  12   2     1.083340310464   116.31350810   179.62687671
 H     21  13   3     1.078925603982   125.08340360   180.05189031
 H     22  21  13     1.078925857550   127.96702129   179.92425103
 H     23  15   4     1.078923414896   125.06844783   180.04988392
 H     24  23  15     1.078926070118   127.98362874   179.91361688
 Mg     4   1   2     2.032731255388    46.24671301     0.00000000

---------------------------
INTERNAL COORDINATES (A.U.)
---------------------------
 N      0   0   0     0.000000000000     0.00000000     0.00000000
 N      1   0   0     8.022673726548     0.00000000     0.00000000
 N      2   1   0     5.553926605009    43.75967239     0.00000000
 N      1   2   3     5.554149016110    43.76187171   180.00255177
 C      1   2   3     4.479316139321   161.12036003   351.01820559
 C      2   1   3     4.479282713662   161.11898876   350.98604815
 C      5   1   2     2.899798355505    71.11414070   179.93485080
 C      6   2   1     2.899775759491    71.11492103   179.93600990
 C      1   2   3     2.561618351915   124.63056083   357.60358136
 C      2   1   3     2.561678974521   124.62977820   357.59599889
 C      1   2   3     2.561610936119   124.62160127   177.56972785
 C      2   1   3     2.561644355746   124.62364954   177.56200688
 C      3   2   1     2.590486985190   172.75333140     8.90847460
 C      3   2   1     2.590465617247    80.36235659   181.15564598
 C      4   1   2     2.590394673157    80.36358993   181.14305473
 C      4   1   2     2.590404281711   172.74430185     9.13892315
 C      9   1   2     2.603264255451   125.66613610     2.25390691
 C     10   2   1     2.603248093630   125.66739448     2.25241290
 C     11   1   2     2.603256528784   125.67739340     2.30114869
 C     12   2   1     2.603247710858   125.67503938     2.29624379
 C     13   3  14     2.704040342647   109.64262364   359.95276415
 C     21  13   3     2.583224859667   106.94919461     0.12079397
 C     15   4   1     2.704190871627   109.64179711   181.00446043
 C     23  15   4     2.583156580588   106.94825517     0.12005675
 H      5   1   2     2.066642291317   117.48119229   285.29610054
 H      5   1   2     2.060437808139   129.77292185    74.83365878
 H      6   2   1     2.066650345610   117.45243435   285.29735237
 H      6   2   1     2.060423437730   129.79853465    74.83293182
 H      7   5   1     2.060433446106   113.35711182   126.06534071
 H      7   5   1     2.066633814981   111.83148131   247.14860792
 H      8   6   2     2.060436647919   113.35342562   126.07482105
 H      8   6   2     2.066618281135   111.83547187   247.16406460
 H     17   9   1     2.047221400191   116.30988331   179.63283291
 H     18  10   2     2.047219185490   116.31217148   179.64366974
 H     19  11   1     2.047217262721   116.31275699   179.62575756
 H     20  12   2     2.047216496614   116.31350810   179.62687671
 H     21  13   3     2.038873910402   125.08340360   180.05189031
 H     22  21  13     2.038874389575   127.96702129   179.92425103
 H     23  15   4     2.038869773628   125.06844783   180.04988392
 H     24  23  15     2.038874791271   127.98362874   179.91361688
 Mg     4   1   2     3.841305376545    46.24671301     0.00000000

---------------------
BASIS SET INFORMATION
---------------------
There are 4 groups of distinct atoms

 Group   1 Type N   : 11s6p2d1f contracted to 5s3p2d1f pattern {62111/411/11/1}
 Group   2 Type C   : 11s6p2d1f contracted to 5s3p2d1f pattern {62111/411/11/1}
 Group   3 Type H   : 5s1p contracted to 3s1p pattern {311/1}
 Group   4 Type Mg  : 14s8p3d contracted to 5s4p3d pattern {73211/5111/111}

Atom   0N    basis set group =>   1
Atom   1N    basis set group =>   1
Atom   2N    basis set group =>   1
Atom   3N    basis set group =>   1
Atom   4C    basis set group =>   2
Atom   5C    basis set group =>   2
Atom   6C    basis set group =>   2
Atom   7C    basis set group =>   2
Atom   8C    basis set group =>   2
Atom   9C    basis set group =>   2
Atom  10C    basis set group =>   2
Atom  11C    basis set group =>   2
Atom  12C    basis set group =>   2
Atom  13C    basis set group =>   2
Atom  14C    basis set group =>   2
Atom  15C    basis set group =>   2
Atom  16C    basis set group =>   2
Atom  17C    basis set group =>   2
Atom  18C    basis set group =>   2
Atom  19C    basis set group =>   2
Atom  20C    basis set group =>   2
Atom  21C    basis set group =>   2
Atom  22C    basis set group =>   2
Atom  23C    basis set group =>   2
Atom  24H    basis set group =>   3
Atom  25H    basis set group =>   3
Atom  26H    basis set group =>   3
Atom  27H    basis set group =>   3
Atom  28H    basis set group =>   3
Atom  29H    basis set group =>   3
Atom  30H    basis set group =>   3
Atom  31H    basis set group =>   3
Atom  32H    basis set group =>   3
Atom  33H    basis set group =>   3
Atom  34H    basis set group =>   3
Atom  35H    basis set group =>   3
Atom  36H    basis set group =>   3
Atom  37H    basis set group =>   3
Atom  38H    basis set group =>   3
Atom  39H    basis set group =>   3
Atom  40Mg   basis set group =>   4
---------------------------------
AUXILIARY/J BASIS SET INFORMATION
---------------------------------
There are 4 groups of distinct atoms

 Group   1 Type N   : 12s5p4d2f1g contracted to 6s4p3d1f1g pattern {711111/2111/211/2/1}
 Group   2 Type C   : 12s5p4d2f1g contracted to 6s4p3d1f1g pattern {711111/2111/211/2/1}
 Group   3 Type H   : 5s2p1d contracted to 3s1p1d pattern {311/2/1}
 Group   4 Type Mg  : 14s5p5d2f1g contracted to 8s4p4d1f1g pattern {71111111/2111/2111/2/1}

Atom   0N    basis set group =>   1
Atom   1N    basis set group =>   1
Atom   2N    basis set group =>   1
Atom   3N    basis set group =>   1
Atom   4C    basis set group =>   2
Atom   5C    basis set group =>   2
Atom   6C    basis set group =>   2
Atom   7C    basis set group =>   2
Atom   8C    basis set group =>   2
Atom   9C    basis set group =>   2
Atom  10C    basis set group =>   2
Atom  11C    basis set group =>   2
Atom  12C    basis set group =>   2
Atom  13C    basis set group =>   2
Atom  14C    basis set group =>   2
Atom  15C    basis set group =>   2
Atom  16C    basis set group =>   2
Atom  17C    basis set group =>   2
Atom  18C    basis set group =>   2
Atom  19C    basis set group =>   2
Atom  20C    basis set group =>   2
Atom  21C    basis set group =>   2
Atom  22C    basis set group =>   2
Atom  23C    basis set group =>   2
Atom  24H    basis set group =>   3
Atom  25H    basis set group =>   3
Atom  26H    basis set group =>   3
Atom  27H    basis set group =>   3
Atom  28H    basis set group =>   3
Atom  29H    basis set group =>   3
Atom  30H    basis set group =>   3
Atom  31H    basis set group =>   3
Atom  32H    basis set group =>   3
Atom  33H    basis set group =>   3
Atom  34H    basis set group =>   3
Atom  35H    basis set group =>   3
Atom  36H    basis set group =>   3
Atom  37H    basis set group =>   3
Atom  38H    basis set group =>   3
Atom  39H    basis set group =>   3
Atom  40Mg   basis set group =>   4


           ************************************************************
           *        Program running with 4 parallel MPI-processes     *
           *              working on a common directory               *
           ************************************************************
------------------------------------------------------------------------------
                             ORCA STARTUP CALCULATIONS
                           -- RI-GTO INTEGRALS CHOSEN --
------------------------------------------------------------------------------
------------------------------------------------------------------------------
                   ___                                                        
                  /   \      - P O W E R E D   B Y -                         
                 /     \                                                     
                 |  |  |   _    _      __       _____    __    __             
                 |  |  |  | |  | |    /  \     |  _  \  |  |  /  |          
                  \  \/   | |  | |   /    \    | | | |  |  | /  /          
                 / \  \   | |__| |  /  /\  \   | |_| |  |  |/  /          
                |  |  |   |  __  | /  /__\  \  |    /   |      \           
                |  |  |   | |  | | |   __   |  |    \   |  |\   \          
                \     /   | |  | | |  |  |  |  | |\  \  |  | \   \       
                 \___/    |_|  |_| |__|  |__|  |_| \__\ |__|  \__/        
                                                                              
                      - O R C A' S   B I G   F R I E N D -                    
                                      &                                       
                       - I N T E G R A L  F E E D E R -                       
                                                                              
 v1 FN, 2020, v2 2021, v3 2022-2024                                           
------------------------------------------------------------------------------


----------------------
SHARK INTEGRAL PACKAGE
----------------------

Number of atoms                             ...     41
Number of basis functions                   ...    872
Number of shells                            ...    340
Maximum angular momentum                    ...      3
Integral batch strategy                     ... SHARK/LIBINT Hybrid
RI-J (if used) integral strategy            ... SPLIT-RIJ (Revised 2003 algorithm where possible)
Printlevel                                  ...      1
Contraction scheme used                     ... SEGMENTED contraction
Prescreening option                         ... SCHWARTZ
   Thresh                                   ... 2.500e-11
   Tcut                                     ... 2.500e-12
   Tpresel                                  ... 2.500e-12 
Coulomb Range Separation                    ... NOT USED
Exchange Range Separation                   ... NOT USED
Multipole approximations                    ... NOT USED
Finite Nucleus Model                        ... NOT USED
CABS basis                                  ... NOT available
Auxiliary Coulomb fitting basis             ... AVAILABLE
   # of basis functions in Aux-J            ...   1408
   # of shells in Aux-J                     ...    458
   Maximum angular momentum in Aux-J        ...      4
Auxiliary J/K fitting basis                 ... NOT available
Auxiliary Correlation fitting basis         ... NOT available
Auxiliary 'external' fitting basis          ... NOT available

Checking pre-screening integrals            ... done (  0.0 sec) Dimension = 340
   => SHARK Basis and OBASIS are compatible. Storing Pre-screening
Shell pair information
Shell pair cut-off parameter TPreSel        ...   2.5e-12
Total number of shell pairs                 ...     57970
Shell pairs after pre-screening             ...     40545
Total number of primitive shell pairs       ...    181512
Primitive shell pairs kept                  ...     83416
          la=0 lb=0:   9964 shell pairs
          la=1 lb=0:  11660 shell pairs
          la=1 lb=1:   3400 shell pairs
          la=2 lb=0:   5941 shell pairs
          la=2 lb=1:   3556 shell pairs
          la=2 lb=2:    970 shell pairs
          la=3 lb=0:   2548 shell pairs
          la=3 lb=1:   1556 shell pairs
          la=3 lb=2:    780 shell pairs
          la=3 lb=3:    170 shell pairs

Checking whether 4 symmetric matrices of dimension 872 fit in memory
:Max Core in MB      =   3000.00
 MB in use           =     52.70
 MB left             =   2947.30
 MB needed           =     11.62
 Data fit in memory  = YES
Calculating RI/J V-Matrix + Cholesky decomp.... done (  0.2 sec)
Calculating Nuclear repulsion               ... done (  0.0 sec) ENN=   2190.086224452672 Eh

Diagonalization of the overlap matrix:
Smallest eigenvalue                        ... 1.019e-05
Time for diagonalization                   ...    0.256 sec
Threshold for overlap eigenvalues          ... 1.000e-07
Number of eigenvalues below threshold      ... 0
Time for construction of square roots      ...    0.127 sec
Total time needed                          ...    0.392 sec

-------------------
DFT GRID GENERATION
-------------------

General Integration Accuracy     IntAcc      ... 4.959
Radial Grid Type                 RadialGrid  ... OptM3 with GC (2021)
Angular Grid (max. ang.)         AngularGrid ... 6 (Lebedev-590)
Angular grid pruning method      GridPruning ... 4 (adaptive)
Weight generation scheme         WeightScheme... mBecke (2022)
Basis function cutoff            BFCut       ... 1.0000e-11
Integration weight cutoff        WCut        ... 1.0000e-14
Partially contracted basis set               ... off
Rotationally invariant grid construction     ... off
Angular grids for H and He will be reduced by one unit

Total number of grid points                  ...   489901
Total number of batches                      ...     7676
Average number of points per batch           ...       63
Average number of grid points per atom       ...    11949
Grids setup in  12.4 sec
Initializing property integral containers    ... done (  0.0 sec)

SHARK setup successfully completed in  14.1 seconds

Maximum memory used throughout the entire STARTUP-calculation: 159.8 MB


           ************************************************************
           *        Program running with 4 parallel MPI-processes     *
           *              working on a common directory               *
           ************************************************************
-------------------------------------------------------------------------------
                                 ORCA GUESS
                   Start orbitals & Density for SCF / CASSCF
-------------------------------------------------------------------------------

------------
SCF SETTINGS
------------
Hamiltonian:
 Density Functional     Method          .... DFT(GTOs)
 Exchange Functional    Exchange        .... TPSS
 Correlation Functional Correlation     .... TPSS
 LDA part of GGA corr.  LDAOpt          .... PW91-LDA
 Gradients option       PostSCFGGA      .... off
   NL short-range parameter             ....  5.000000
 RI-approximation to the Coulomb term is turned on
   Number of AuxJ basis functions       .... 1408


General Settings:
 Integral files         IntName         .... tddft
 Hartree-Fock type      HFTyp           .... RHF
 Total Charge           Charge          ....    0
 Multiplicity           Mult            ....    1
 Number of Electrons    NEL             ....  176
 Basis Dimension        Dim             ....  872
 Nuclear Repulsion      ENuc            ....   2190.0862244527 Eh

Convergence Acceleration:
 AO-DIIS                CNVDIIS         .... on
   Start iteration      DIISMaxIt       ....    12
   Startup error        DIISStart       ....  0.200000
   # of expansion vecs  DIISMaxEq       ....     5
   Bias factor          DIISBfac        ....   1.050
   Max. coefficient     DIISMaxC        ....  10.000
 MO-DIIS                CNVKDIIS        .... off
 Trust-Rad. Augm. Hess. CNVTRAH         .... auto
   Auto Start mean grad. ratio tolernc. ....  1.125000
   Auto Start start iteration           ....    50
   Auto Start num. interpolation iter.  ....    10
   Max. Number of Micro iterations      ....    24
   Max. Number of Macro iterations      .... Maxiter - #DIIS iter
   Number of Davidson start vectors     ....     2
   Converg. threshold    (grad. norm)   ....   1.000e-05
   Grad. Scal. Fac. for Micro threshold ....   0.100
   Minimum threshold for Micro iter.    ....   1.000e-02
   NR start threshold (gradient norm)   ....   1.000e-04
   Initial trust radius                 ....   0.400
   Minimum AH scaling param. (alpha)    ....   1.000
   Maximum AH scaling param. (alpha)    .... 1000.000
   Quad. conv. algorithm                .... NR
   White noise on init. David. guess    .... on
   Maximum white noise                  ....   0.010
   Pseudo random numbers                .... off
   Inactive MOs                         .... canonical
   Orbital update algorithm             .... Taylor
   Preconditioner                       .... Diag
   Full preconditioner red. dimension   ....   250
 SOSCF                 CNVSOSCF           .... on
   Start iteration     SOSCFMaxIt         ....   150
   Startup grad/error  SOSCFStart         ....  0.003300
   Hessian update      SOSCFHessUp        .... L-BFGS
   Autom. constraints  SOSCFAutoConstrain .... off
 Level Shifting         CNVShift        .... on
   Level shift para.    LevelShift      ....    0.2500
   Turn off err/grad.   ShiftErr        ....    0.0010
 Zerner damping         CNVZerner       .... off
 Static damping         CNVDamp         .... on
   Fraction old density DampFac         ....    0.7000
   Max. Damping (<1)    DampMax         ....    0.9800
   Min. Damping (>=0)   DampMin         ....    0.0000
   Turn off err/grad.   DampErr         ....    0.1000

SCF Procedure:
 Maximum # iterations   MaxIter         ....   125
 SCF integral mode      SCFMode         .... Direct
   Integral package                     .... SHARK and LIBINT hybrid scheme
 Reset frequency        DirectResetFreq ....    20
 Integral Threshold     Thresh          ....  2.500e-11 Eh
 Primitive CutOff       TCut            ....  2.500e-12 Eh

Convergence Tolerance:
 Convergence Check Mode ConvCheckMode   .... Total+1el-Energy
 Convergence forced     ConvForced      .... 1
 Energy Change          TolE            ....  1.000e-08 Eh
 1-El. energy change                    ....  1.000e-05 Eh
 Orbital Gradient       TolG            ....  1.000e-05
 Orbital Rotation angle TolX            ....  1.000e-05
 DIIS Error             TolErr          ....  5.000e-07

------------------------------
INITIAL GUESS: MODEL POTENTIAL
------------------------------
Loading Hartree-Fock densities                     ... done
Calculating cut-offs                               ... done
Initializing the effective Hamiltonian             ... done
Setting up the integral package (SHARK)            ... done
Starting the Coulomb interaction                   ... done (   2.7 sec)
Making the grid                                    ... done (   1.1 sec)
Mapping shells                                     ... done
Starting the XC term evaluation                    ... done (   1.4 sec)
  promolecular density results
     # of electrons  =    176.013752315
     EX              =   -149.316411799
     EC              =     -5.985031575
     EX+EC           =   -155.301443373
Transforming the Hamiltonian                       ... done (   0.2 sec)
Diagonalizing the Hamiltonian                      ... done (   0.3 sec)
Back transforming the eigenvectors                 ... done (   0.1 sec)
Now organizing SCF variables                       ... done
                      ------------------
                      INITIAL GUESS DONE (   5.8 sec)
                      ------------------
             **** ENERGY FILE WAS UPDATED (tddft.en.tmp) ****
Finished Guess after   6.4 sec
Maximum memory used throughout the entire GUESS-calculation: 88.7 MB


           ************************************************************
           *        Program running with 4 parallel MPI-processes     *
           *              working on a common directory               *
           ************************************************************

-------------------------------------------------------------------------------------------
                                      ORCA LEAN-SCF
                              memory conserving SCF solver
-------------------------------------------------------------------------------------------

----------------------------------------D-I-I-S--------------------------------------------
Iteration    Energy (Eh)           Delta-E    RMSDP     MaxDP     DIISErr   Damp  Time(sec)
-------------------------------------------------------------------------------------------
               ***  Starting incremental Fock matrix formation  ***
    1    -1191.0169568843043635     0.00e+00  1.96e-03  4.51e-02  2.18e-01  0.700  42.0
Warning: op=0 Small HOMO/LUMO gap (   0.056) - skipping pre-diagonalization
         Will do a full diagonalization
    2    -1191.2743735526014461    -2.57e-01  1.82e-03  4.53e-02  8.85e-02  0.700  34.8
                               ***Turning on AO-DIIS***
    3    -1191.3717081895983938    -9.73e-02  9.36e-04  1.62e-02  2.93e-02  0.700  42.9
    4    -1191.4283485641944935    -5.66e-02  1.71e-03  3.78e-02  1.42e-02  0.000  43.5
    5    -1191.5536249739652703    -1.25e-01  5.22e-04  1.98e-02  5.56e-03  0.000  45.9
                              *** Initializing SOSCF ***
---------------------------------------S-O-S-C-F--------------------------------------
Iteration    Energy (Eh)           Delta-E    RMSDP     MaxDP     MaxGrad    Time(sec)
--------------------------------------------------------------------------------------
    6    -1191.5547326822793366    -1.11e-03  2.50e-04  8.64e-03  1.40e-03    49.5
               *** Restarting incremental Fock matrix formation ***
    7    -1191.5548130646789105    -8.04e-05  1.57e-04  6.48e-03  9.06e-04    58.3
    8    -1191.5547865452231235     2.65e-05  4.31e-05  9.41e-04  1.44e-03    42.8
    9    -1191.5548411676941214    -5.46e-05  2.33e-05  6.97e-04  1.12e-04    39.1
   10    -1191.5548406996845188     4.68e-07  4.92e-06  1.69e-04  1.48e-04    37.5
   11    -1191.5548418232283439    -1.12e-06  6.09e-06  1.72e-04  2.47e-05    35.3
   12    -1191.5548417704867461     5.27e-08  3.76e-06  1.44e-04  3.67e-05    34.9
   13    -1191.5548418247171867    -5.42e-08  4.87e-06  2.03e-04  3.78e-06    34.8
   14    -1191.5548418392818348    -1.46e-08  4.11e-06  1.50e-04  4.20e-06    33.9
   15    -1191.5548418126249999     2.67e-08  5.38e-06  2.51e-04  1.12e-06    33.5
                  *** Gradient check signals convergence ***

               *****************************************************
               *                     SUCCESS                       *
               *           SCF CONVERGED AFTER  15 CYCLES          *
               *****************************************************

             **** ENERGY FILE WAS UPDATED (tddft.en.tmp) ****

----------------
TOTAL SCF ENERGY
----------------

Total Energy       :      -1191.55484177737799 Eh          -32423.85564 eV

Components:
Nuclear Repulsion  :       2190.08622445267247 Eh           59595.27593 eV
Electronic Energy  :      -3381.64106623005046 Eh          -92019.13157 eV
One Electron Energy:      -5978.75052613490789 Eh         -162690.07282 eV
Two Electron Energy:       2597.10945990485743 Eh           70670.94125 eV

Virial components:
Potential Energy   :      -2378.31796487379597 Eh          -64717.32199 eV
Kinetic Energy     :       1186.76312309641798 Eh           32293.46635 eV
Virial Ratio       :          2.00403763698728

DFT components:
N(Alpha)           :       87.999997418512 electrons
N(Beta)            :       87.999997418512 electrons
N(Total)           :      175.999994837023 electrons
E(X)               :     -153.483295233807 Eh       
E(C)               :       -5.997748873521 Eh       
E(XC)              :     -159.481044107328 Eh       

---------------
SCF CONVERGENCE
---------------

  Last Energy change         ...   -2.6657e-08  Tolerance :   1.0000e-08
  Last MAX-Density change    ...    2.5063e-04  Tolerance :   1.0000e-07
  Last RMS-Density change    ...    5.3752e-06  Tolerance :   5.0000e-09
  Last DIIS Error            ...    1.3962e-03  Tolerance :   5.0000e-07
  Last Orbital Gradient      ...    1.1164e-06  Tolerance :   1.0000e-05
  Last Orbital Rotation      ...    9.1857e-06  Tolerance :   1.0000e-05


----------------
ORBITAL ENERGIES
----------------

  NO   OCC          E(Eh)            E(eV) 
   0   2.0000     -46.390047     -1262.3374 
   1   2.0000     -14.105157      -383.8208 
   2   2.0000     -14.105152      -383.8207 
   3   2.0000     -14.078346      -383.0913 
   4   2.0000     -14.078341      -383.0911 
   5   2.0000     -10.017206      -272.5820 
   6   2.0000     -10.017198      -272.5818 
   7   2.0000     -10.017193      -272.5817 
   8   2.0000     -10.017186      -272.5815 
   9   2.0000     -10.004975      -272.2492 
  10   2.0000     -10.004974      -272.2492 
  11   2.0000     -10.004962      -272.2489 
  12   2.0000     -10.004961      -272.2488 
  13   2.0000      -9.993519      -271.9375 
  14   2.0000      -9.993514      -271.9373 
  15   2.0000      -9.993407      -271.9344 
  16   2.0000      -9.993402      -271.9343 
  17   2.0000      -9.978387      -271.5257 
  18   2.0000      -9.978383      -271.5256 
  19   2.0000      -9.978380      -271.5255 
  20   2.0000      -9.978376      -271.5254 
  21   2.0000      -9.972057      -271.3535 
  22   2.0000      -9.972041      -271.3530 
  23   2.0000      -9.971559      -271.3399 
  24   2.0000      -9.971544      -271.3395 
  25   2.0000      -2.922844       -79.5346 
  26   2.0000      -1.688333       -45.9419 
  27   2.0000      -1.681593       -45.7585 
  28   2.0000      -1.680214       -45.7209 
  29   2.0000      -0.892017       -24.2730 
  30   2.0000      -0.887779       -24.1577 
  31   2.0000      -0.876340       -23.8464 
  32   2.0000      -0.871281       -23.7088 
  33   2.0000      -0.748976       -20.3807 
  34   2.0000      -0.727789       -19.8041 
  35   2.0000      -0.718358       -19.5475 
  36   2.0000      -0.715601       -19.4725 
  37   2.0000      -0.714768       -19.4498 
  38   2.0000      -0.694525       -18.8990 
  39   2.0000      -0.694499       -18.8983 
  40   2.0000      -0.673617       -18.3301 
  41   2.0000      -0.658053       -17.9065 
  42   2.0000      -0.605448       -16.4751 
  43   2.0000      -0.594253       -16.1704 
  44   2.0000      -0.566292       -15.4096 
  45   2.0000      -0.545695       -14.8491 
  46   2.0000      -0.517964       -14.0945 
  47   2.0000      -0.515855       -14.0371 
  48   2.0000      -0.513480       -13.9725 
  49   2.0000      -0.504669       -13.7328 
  50   2.0000      -0.481226       -13.0948 
  51   2.0000      -0.467754       -12.7282 
  52   2.0000      -0.462166       -12.5762 
  53   2.0000      -0.454485       -12.3672 
  54   2.0000      -0.449253       -12.2248 
  55   2.0000      -0.437642       -11.9089 
  56   2.0000      -0.435844       -11.8599 
  57   2.0000      -0.433750       -11.8029 
  58   2.0000      -0.394548       -10.7362 
  59   2.0000      -0.391837       -10.6624 
  60   2.0000      -0.371843       -10.1184 
  61   2.0000      -0.367151        -9.9907 
  62   2.0000      -0.366238        -9.9658 
  63   2.0000      -0.360927        -9.8213 
  64   2.0000      -0.360094        -9.7986 
  65   2.0000      -0.355898        -9.6845 
  66   2.0000      -0.345145        -9.3919 
  67   2.0000      -0.345135        -9.3916 
  68   2.0000      -0.340259        -9.2589 
  69   2.0000      -0.335971        -9.1422 
  70   2.0000      -0.334628        -9.1057 
  71   2.0000      -0.324230        -8.8227 
  72   2.0000      -0.322135        -8.7657 
  73   2.0000      -0.320630        -8.7248 
  74   2.0000      -0.317504        -8.6397 
  75   2.0000      -0.316289        -8.6067 
  76   2.0000      -0.314818        -8.5666 
  77   2.0000      -0.309946        -8.4341 
  78   2.0000      -0.269937        -7.3453 
  79   2.0000      -0.269737        -7.3399 
  80   2.0000      -0.268235        -7.2990 
  81   2.0000      -0.243350        -6.6219 
  82   2.0000      -0.240134        -6.5344 
  83   2.0000      -0.227544        -6.1918 
  84   2.0000      -0.213703        -5.8152 
  85   2.0000      -0.207763        -5.6535 
  86   2.0000      -0.174615        -4.7515 
  87   2.0000      -0.151158        -4.1132 
  88   0.0000      -0.102667        -2.7937 
  89   0.0000      -0.055054        -1.4981 
  90   0.0000      -0.005853        -0.1593 
  91   0.0000      -0.005732        -0.1560 
  92   0.0000      -0.001216        -0.0331 
  93   0.0000       0.010347         0.2816 
  94   0.0000       0.019471         0.5298 
  95   0.0000       0.023599         0.6422 
  96   0.0000       0.039572         1.0768 
  97   0.0000       0.045340         1.2338 
  98   0.0000       0.051724         1.4075 
*Only the first 10 virtual orbitals were printed.

                    ********************************
                    * MULLIKEN POPULATION ANALYSIS *
                    ********************************

-----------------------
MULLIKEN ATOMIC CHARGES
-----------------------
   0 N :   -0.350639
   1 N :   -0.350520
   2 N :   -0.393957
   3 N :   -0.393970
   4 C :   -0.120425
   5 C :   -0.120493
   6 C :   -0.120501
   7 C :   -0.120536
   8 C :    0.228692
   9 C :    0.228975
  10 C :    0.228945
  11 C :    0.228742
  12 C :    0.379106
  13 C :    0.379156
  14 C :    0.379283
  15 C :    0.379076
  16 C :   -0.450800
  17 C :   -0.451005
  18 C :   -0.451074
  19 C :   -0.450740
  20 C :   -0.203713
  21 C :   -0.203607
  22 C :   -0.203712
  23 C :   -0.203586
  24 H :    0.085728
  25 H :    0.101963
  26 H :    0.085700
  27 H :    0.102006
  28 H :    0.101963
  29 H :    0.085745
  30 H :    0.101967
  31 H :    0.085751
  32 H :    0.086927
  33 H :    0.086927
  34 H :    0.086934
  35 H :    0.086933
  36 H :    0.088395
  37 H :    0.088392
  38 H :    0.088397
  39 H :    0.088405
  40 Mg:    0.705170
Sum of atomic charges:    0.0000000

--------------------------------
MULLIKEN REDUCED ORBITAL CHARGES
--------------------------------
  0 N s       :     3.677965  s :     3.677965
      pz      :     1.267524  p :     3.608557
      px      :     1.300580
      py      :     1.040452
      dz2     :     0.003992  d :     0.060388
      dxz     :     0.005222
      dyz     :     0.016386
      dx2y2   :     0.017491
      dxy     :     0.017296
      f0      :     0.000649  f :     0.003730
      f+1     :     0.000240
      f-1     :     0.000380
      f+2     :     0.000101
      f-2     :     0.000615
      f+3     :     0.000680
      f-3     :     0.001065

  1 N s       :     3.677947  s :     3.677947
      pz      :     1.267650  p :     3.608460
      px      :     1.300402
      py      :     1.040408
      dz2     :     0.003991  d :     0.060384
      dxz     :     0.005219
      dyz     :     0.016388
      dx2y2   :     0.017494
      dxy     :     0.017292
      f0      :     0.000649  f :     0.003729
      f+1     :     0.000240
      f-1     :     0.000380
      f+2     :     0.000101
      f-2     :     0.000615
      f+3     :     0.000680
      f-3     :     0.001065

  2 N s       :     3.664899  s :     3.664899
      pz      :     1.374447  p :     3.668346
      px      :     1.039816
      py      :     1.254083
      dz2     :     0.004136  d :     0.056974
      dxz     :     0.014068
      dyz     :     0.005322
      dx2y2   :     0.016901
      dxy     :     0.016548
      f0      :     0.000667  f :     0.003738
      f+1     :     0.000418
      f-1     :     0.000310
      f+2     :     0.000074
      f-2     :     0.000641
      f+3     :     0.000969
      f-3     :     0.000660

  3 N s       :     3.664924  s :     3.664924
      pz      :     1.374750  p :     3.668329
      px      :     1.039503
      py      :     1.254076
      dz2     :     0.004115  d :     0.056978
      dxz     :     0.014086
      dyz     :     0.005313
      dx2y2   :     0.016909
      dxy     :     0.016554
      f0      :     0.000669  f :     0.003738
      f+1     :     0.000416
      f-1     :     0.000310
      f+2     :     0.000072
      f-2     :     0.000641
      f+3     :     0.000970
      f-3     :     0.000660

  4 C s       :     3.084076  s :     3.084076
      pz      :     1.026330  p :     2.941258
      px      :     0.952392
      py      :     0.962535
      dz2     :     0.007396  d :     0.088286
      dxz     :     0.018606
      dyz     :     0.018437
      dx2y2   :     0.017392
      dxy     :     0.026454
      f0      :     0.000832  f :     0.006805
      f+1     :     0.000814
      f-1     :     0.000703
      f+2     :     0.000904
      f-2     :     0.000711
      f+3     :     0.001638
      f-3     :     0.001204

  5 C s       :     3.084229  s :     3.084229
      pz      :     1.026304  p :     2.941168
      px      :     0.952536
      py      :     0.962327
      dz2     :     0.007411  d :     0.088290
      dxz     :     0.018600
      dyz     :     0.018429
      dx2y2   :     0.017394
      dxy     :     0.026456
      f0      :     0.000833  f :     0.006805
      f+1     :     0.000815
      f-1     :     0.000701
      f+2     :     0.000904
      f-2     :     0.000711
      f+3     :     0.001639
      f-3     :     0.001203

  6 C s       :     3.084158  s :     3.084158
      pz      :     1.026080  p :     2.941247
      px      :     0.952806
      py      :     0.962360
      dz2     :     0.007194  d :     0.088291
      dxz     :     0.018818
      dyz     :     0.018492
      dx2y2   :     0.017388
      dxy     :     0.026400
      f0      :     0.000805  f :     0.006805
      f+1     :     0.000836
      f-1     :     0.000711
      f+2     :     0.000907
      f-2     :     0.000705
      f+3     :     0.001642
      f-3     :     0.001199

  7 C s       :     3.084248  s :     3.084248
      pz      :     1.026072  p :     2.941192
      px      :     0.952619
      py      :     0.962502
      dz2     :     0.007204  d :     0.088291
      dxz     :     0.018810
      dyz     :     0.018491
      dx2y2   :     0.017385
      dxy     :     0.026401
      f0      :     0.000806  f :     0.006805
      f+1     :     0.000834
      f-1     :     0.000713
      f+2     :     0.000907
      f-2     :     0.000705
      f+3     :     0.001641
      f-3     :     0.001200

  8 C s       :     3.122135  s :     3.122135
      pz      :     0.918128  p :     2.472143
      px      :     0.824095
      py      :     0.729919
      dz2     :     0.004087  d :     0.162718
      dxz     :     0.021484
      dyz     :     0.040550
      dx2y2   :     0.052985
      dxy     :     0.043611
      f0      :     0.001899  f :     0.014313
      f+1     :     0.000917
      f-1     :     0.000919
      f+2     :     0.001265
      f-2     :     0.001602
      f+3     :     0.002753
      f-3     :     0.004958

  9 C s       :     3.122037  s :     3.122037
      pz      :     0.918139  p :     2.471946
      px      :     0.823635
      py      :     0.730171
      dz2     :     0.004089  d :     0.162728
      dxz     :     0.021491
      dyz     :     0.040549
      dx2y2   :     0.053009
      dxy     :     0.043591
      f0      :     0.001899  f :     0.014313
      f+1     :     0.000918
      f-1     :     0.000918
      f+2     :     0.001262
      f-2     :     0.001605
      f+3     :     0.002765
      f-3     :     0.004946

 10 C s       :     3.122033  s :     3.122033
      pz      :     0.918512  p :     2.471993
      px      :     0.823276
      py      :     0.730205
      dz2     :     0.003935  d :     0.162715
      dxz     :     0.021559
      dyz     :     0.040536
      dx2y2   :     0.053084
      dxy     :     0.043601
      f0      :     0.001904  f :     0.014313
      f+1     :     0.000910
      f-1     :     0.000916
      f+2     :     0.001263
      f-2     :     0.001604
      f+3     :     0.002767
      f-3     :     0.004949

 11 C s       :     3.122083  s :     3.122083
      pz      :     0.918521  p :     2.472141
      px      :     0.823652
      py      :     0.729968
      dz2     :     0.003935  d :     0.162721
      dxz     :     0.021553
      dyz     :     0.040546
      dx2y2   :     0.053063
      dxy     :     0.043624
      f0      :     0.001905  f :     0.014313
      f+1     :     0.000910
      f-1     :     0.000916
      f+2     :     0.001265
      f-2     :     0.001601
      f+3     :     0.002755
      f-3     :     0.004961

 12 C s       :     3.079119  s :     3.079119
      pz      :     0.914799  p :     2.360631
      px      :     0.705313
      py      :     0.740519
      dz2     :     0.004737  d :     0.166383
      dxz     :     0.038000
      dyz     :     0.030377
      dx2y2   :     0.051541
      dxy     :     0.041728
      f0      :     0.002092  f :     0.014761
      f+1     :     0.001065
      f-1     :     0.000847
      f+2     :     0.000909
      f-2     :     0.002217
      f+3     :     0.004592
      f-3     :     0.003038

 13 C s       :     3.079084  s :     3.079084
      pz      :     0.914795  p :     2.360611
      px      :     0.705235
      py      :     0.740580
      dz2     :     0.004736  d :     0.166388
      dxz     :     0.038005
      dyz     :     0.030373
      dx2y2   :     0.051516
      dxy     :     0.041759
      f0      :     0.002092  f :     0.014761
      f+1     :     0.001066
      f-1     :     0.000847
      f+2     :     0.000914
      f-2     :     0.002212
      f+3     :     0.004606
      f-3     :     0.003024

 14 C s       :     3.079000  s :     3.079000
      pz      :     0.915070  p :     2.360565
      px      :     0.704932
      py      :     0.740563
      dz2     :     0.004656  d :     0.166390
      dxz     :     0.038099
      dyz     :     0.030358
      dx2y2   :     0.051509
      dxy     :     0.041768
      f0      :     0.002098  f :     0.014762
      f+1     :     0.001059
      f-1     :     0.000845
      f+2     :     0.000910
      f-2     :     0.002213
      f+3     :     0.004612
      f-3     :     0.003026

 15 C s       :     3.079102  s :     3.079102
      pz      :     0.915075  p :     2.360674
      px      :     0.705084
      py      :     0.740515
      dz2     :     0.004659  d :     0.166386
      dxz     :     0.038092
      dyz     :     0.030364
      dx2y2   :     0.051530
      dxy     :     0.041741
      f0      :     0.002098  f :     0.014762
      f+1     :     0.001058
      f-1     :     0.000845
      f+2     :     0.000905
      f-2     :     0.002217
      f+3     :     0.004598
      f-3     :     0.003040

 16 C s       :     3.409513  s :     3.409513
      pz      :     1.059654  p :     2.953852
      px      :     0.941097
      py      :     0.953101
      dz2     :     0.002413  d :     0.079632
      dxz     :     0.015522
      dyz     :     0.015736
      dx2y2   :     0.008490
      dxy     :     0.037471
      f0      :     0.001400  f :     0.007802
      f+1     :     0.000704
      f-1     :     0.000691
      f+2     :     0.000902
      f-2     :     0.000513
      f+3     :     0.001702
      f-3     :     0.001889

 17 C s       :     3.409601  s :     3.409601
      pz      :     1.059673  p :     2.953971
      px      :     0.941191
      py      :     0.953107
      dz2     :     0.002413  d :     0.079632
      dxz     :     0.015474
      dyz     :     0.015783
      dx2y2   :     0.008496
      dxy     :     0.037465
      f0      :     0.001400  f :     0.007802
      f+1     :     0.000705
      f-1     :     0.000691
      f+2     :     0.000902
      f-2     :     0.000513
      f+3     :     0.001708
      f-3     :     0.001883

 18 C s       :     3.409566  s :     3.409566
      pz      :     1.059927  p :     2.954076
      px      :     0.940978
      py      :     0.953171
      dz2     :     0.002396  d :     0.079630
      dxz     :     0.015503
      dyz     :     0.015762
      dx2y2   :     0.008482
      dxy     :     0.037488
      f0      :     0.001402  f :     0.007802
      f+1     :     0.000702
      f-1     :     0.000693
      f+2     :     0.000903
      f-2     :     0.000509
      f+3     :     0.001709
      f-3     :     0.001885

 19 C s       :     3.409337  s :     3.409337
      pz      :     1.059951  p :     2.953976
      px      :     0.940912
      py      :     0.953113
      dz2     :     0.002395  d :     0.079625
      dxz     :     0.015551
      dyz     :     0.015713
      dx2y2   :     0.008469
      dxy     :     0.037497
      f0      :     0.001402  f :     0.007802
      f+1     :     0.000702
      f-1     :     0.000693
      f+2     :     0.000902
      f-2     :     0.000509
      f+3     :     0.001703
      f-3     :     0.001890

 20 C s       :     3.286676  s :     3.286676
      pz      :     1.018008  p :     2.822221
      px      :     0.921858
      py      :     0.882355
      dz2     :     0.005071  d :     0.086612
      dxz     :     0.018930
      dyz     :     0.011297
      dx2y2   :     0.017467
      dxy     :     0.033846
      f0      :     0.001420  f :     0.008204
      f+1     :     0.000604
      f-1     :     0.000816
      f+2     :     0.001295
      f-2     :     0.000257
      f+3     :     0.001442
      f-3     :     0.002369

 21 C s       :     3.286612  s :     3.286612
      pz      :     1.018015  p :     2.822181
      px      :     0.921767
      py      :     0.882399
      dz2     :     0.005070  d :     0.086610
      dxz     :     0.018903
      dyz     :     0.011324
      dx2y2   :     0.017452
      dxy     :     0.033860
      f0      :     0.001420  f :     0.008204
      f+1     :     0.000605
      f-1     :     0.000815
      f+2     :     0.001299
      f-2     :     0.000254
      f+3     :     0.001445
      f-3     :     0.002367

 22 C s       :     3.286756  s :     3.286756
      pz      :     1.018055  p :     2.822146
      px      :     0.921671
      py      :     0.882420
      dz2     :     0.005039  d :     0.086606
      dxz     :     0.018935
      dyz     :     0.011304
      dx2y2   :     0.017452
      dxy     :     0.033877
      f0      :     0.001425  f :     0.008204
      f+1     :     0.000597
      f-1     :     0.000817
      f+2     :     0.001302
      f-2     :     0.000250
      f+3     :     0.001444
      f-3     :     0.002370

 23 C s       :     3.286618  s :     3.286618
      pz      :     1.018052  p :     2.822157
      px      :     0.921746
      py      :     0.882359
      dz2     :     0.005038  d :     0.086607
      dxz     :     0.018963
      dyz     :     0.011278
      dx2y2   :     0.017464
      dxy     :     0.033863
      f0      :     0.001425  f :     0.008204
      f+1     :     0.000596
      f-1     :     0.000818
      f+2     :     0.001298
      f-2     :     0.000253
      f+3     :     0.001442
      f-3     :     0.002372

 24 H s       :     0.893845  s :     0.893845
      pz      :     0.009768  p :     0.020427
      px      :     0.005704
      py      :     0.004955

 25 H s       :     0.877821  s :     0.877821
      pz      :     0.007023  p :     0.020215
      px      :     0.006806
      py      :     0.006386

 26 H s       :     0.893873  s :     0.893873
      pz      :     0.009772  p :     0.020427
      px      :     0.005705
      py      :     0.004951

 27 H s       :     0.877779  s :     0.877779
      pz      :     0.007020  p :     0.020215
      px      :     0.006816
      py      :     0.006379

 28 H s       :     0.877822  s :     0.877822
      pz      :     0.007095  p :     0.020215
      px      :     0.006742
      py      :     0.006378

 29 H s       :     0.893828  s :     0.893828
      pz      :     0.009694  p :     0.020427
      px      :     0.005781
      py      :     0.004952

 30 H s       :     0.877818  s :     0.877818
      pz      :     0.007094  p :     0.020215
      px      :     0.006735
      py      :     0.006386

 31 H s       :     0.893822  s :     0.893822
      pz      :     0.009695  p :     0.020427
      px      :     0.005777
      py      :     0.004955

 32 H s       :     0.892502  s :     0.892502
      pz      :     0.005539  p :     0.020571
      px      :     0.007370
      py      :     0.007663

 33 H s       :     0.892502  s :     0.892502
      pz      :     0.005539  p :     0.020571
      px      :     0.007385
      py      :     0.007648

 34 H s       :     0.892495  s :     0.892495
      pz      :     0.005536  p :     0.020571
      px      :     0.007388
      py      :     0.007647

 35 H s       :     0.892495  s :     0.892495
      pz      :     0.005536  p :     0.020571
      px      :     0.007373
      py      :     0.007663

 36 H s       :     0.891455  s :     0.891455
      pz      :     0.005043  p :     0.020150
      px      :     0.006506
      py      :     0.008600

 37 H s       :     0.891458  s :     0.891458
      pz      :     0.005044  p :     0.020150
      px      :     0.006520
      py      :     0.008586

 38 H s       :     0.891453  s :     0.891453
      pz      :     0.005042  p :     0.020150
      px      :     0.006523
      py      :     0.008585

 39 H s       :     0.891445  s :     0.891445
      pz      :     0.005042  p :     0.020150
      px      :     0.006509
      py      :     0.008599

 40 Mgs       :     4.556903  s :     4.556903
      pz      :     2.088932  p :     6.464750
      px      :     2.173701
      py      :     2.202116
      dz2     :     0.030030  d :     0.273177
      dxz     :     0.017874
      dyz     :     0.036970
      dx2y2   :     0.162265
      dxy     :     0.026039



                     *******************************
                     * LOEWDIN POPULATION ANALYSIS *
                     *******************************

----------------------
LOEWDIN ATOMIC CHARGES
----------------------
   0 N :    0.202109
   1 N :    0.202098
   2 N :    0.165538
   3 N :    0.165564
   4 C :   -0.193416
   5 C :   -0.193416
   6 C :   -0.193411
   7 C :   -0.193406
   8 C :   -0.203330
   9 C :   -0.203309
  10 C :   -0.203318
  11 C :   -0.203300
  12 C :   -0.203811
  13 C :   -0.203813
  14 C :   -0.203818
  15 C :   -0.203813
  16 C :   -0.117478
  17 C :   -0.117484
  18 C :   -0.117506
  19 C :   -0.117512
  20 C :   -0.122765
  21 C :   -0.122766
  22 C :   -0.122748
  23 C :   -0.122750
  24 H :    0.142510
  25 H :    0.139028
  26 H :    0.142523
  27 H :    0.139022
  28 H :    0.139026
  29 H :    0.142508
  30 H :    0.139029
  31 H :    0.142506
  32 H :    0.154993
  33 H :    0.154994
  34 H :    0.154999
  35 H :    0.155000
  36 H :    0.134182
  37 H :    0.134181
  38 H :    0.134182
  39 H :    0.134183
  40 Mg:    0.344993

-------------------------------
LOEWDIN REDUCED ORBITAL CHARGES
-------------------------------
  0 N s       :     2.983589  s :     2.983589
      pz      :     1.117551  p :     3.581029
      px      :     1.342555
      py      :     1.120923
      dz2     :     0.016344  d :     0.214416
      dxz     :     0.009802
      dyz     :     0.050041
      dx2y2   :     0.064690
      dxy     :     0.073539
      f0      :     0.001163  f :     0.018857
      f+1     :     0.000777
      f-1     :     0.001797
      f+2     :     0.000316
      f-2     :     0.003678
      f+3     :     0.003858
      f-3     :     0.007267

  1 N s       :     2.983558  s :     2.983558
      pz      :     1.117632  p :     3.581077
      px      :     1.342526
      py      :     1.120919
      dz2     :     0.016344  d :     0.214411
      dxz     :     0.009801
      dyz     :     0.050040
      dx2y2   :     0.064692
      dxy     :     0.073534
      f0      :     0.001163  f :     0.018856
      f+1     :     0.000777
      f-1     :     0.001797
      f+2     :     0.000316
      f-2     :     0.003678
      f+3     :     0.003858
      f-3     :     0.007267

  2 N s       :     2.982215  s :     2.982215
      pz      :     1.207833  p :     3.632267
      px      :     1.104356
      py      :     1.320077
      dz2     :     0.016089  d :     0.201489
      dxz     :     0.043361
      dyz     :     0.011834
      dx2y2   :     0.061886
      dxy     :     0.068320
      f0      :     0.001165  f :     0.018492
      f+1     :     0.001741
      f-1     :     0.000852
      f+2     :     0.000188
      f-2     :     0.003796
      f+3     :     0.006777
      f-3     :     0.003973

  3 N s       :     2.982160  s :     2.982160
      pz      :     1.207879  p :     3.632266
      px      :     1.104309
      py      :     1.320078
      dz2     :     0.016044  d :     0.201514
      dxz     :     0.043384
      dyz     :     0.011792
      dx2y2   :     0.061928
      dxy     :     0.068367
      f0      :     0.001164  f :     0.018494
      f+1     :     0.001743
      f-1     :     0.000848
      f+2     :     0.000182
      f-2     :     0.003798
      f+3     :     0.006784
      f-3     :     0.003975

  4 C s       :     2.769216  s :     2.769216
      pz      :     1.026620  p :     3.011450
      px      :     0.990495
      py      :     0.994335
      dz2     :     0.049437  d :     0.371400
      dxz     :     0.074166
      dyz     :     0.068472
      dx2y2   :     0.086899
      dxy     :     0.092426
      f0      :     0.004527  f :     0.041350
      f+1     :     0.003779
      f-1     :     0.003682
      f+2     :     0.005576
      f-2     :     0.005024
      f+3     :     0.011245
      f-3     :     0.007517

  5 C s       :     2.769210  s :     2.769210
      pz      :     1.026610  p :     3.011439
      px      :     0.990513
      py      :     0.994317
      dz2     :     0.049493  d :     0.371415
      dxz     :     0.074211
      dyz     :     0.068370
      dx2y2   :     0.086849
      dxy     :     0.092492
      f0      :     0.004532  f :     0.041351
      f+1     :     0.003777
      f-1     :     0.003680
      f+2     :     0.005575
      f-2     :     0.005027
      f+3     :     0.011255
      f-3     :     0.007506

  6 C s       :     2.769221  s :     2.769221
      pz      :     1.026659  p :     3.011446
      px      :     0.990472
      py      :     0.994314
      dz2     :     0.048359  d :     0.371396
      dxz     :     0.075224
      dyz     :     0.068746
      dx2y2   :     0.086938
      dxy     :     0.092130
      f0      :     0.004442  f :     0.041349
      f+1     :     0.003870
      f-1     :     0.003740
      f+2     :     0.005521
      f-2     :     0.004967
      f+3     :     0.011302
      f-3     :     0.007508

  7 C s       :     2.769221  s :     2.769221
      pz      :     1.026654  p :     3.011436
      px      :     0.990447
      py      :     0.994335
      dz2     :     0.048391  d :     0.371400
      dxz     :     0.075126
      dyz     :     0.068817
      dx2y2   :     0.086979
      dxy     :     0.092087
      f0      :     0.004443  f :     0.041349
      f+1     :     0.003867
      f-1     :     0.003741
      f+2     :     0.005524
      f-2     :     0.004965
      f+3     :     0.011291
      f-3     :     0.007518

  8 C s       :     2.714700  s :     2.714700
      pz      :     0.844750  p :     2.784575
      px      :     0.954300
      py      :     0.985525
      dz2     :     0.043157  d :     0.627026
      dxz     :     0.067458
      dyz     :     0.120228
      dx2y2   :     0.203211
      dxy     :     0.192972
      f0      :     0.005181  f :     0.077029
      f+1     :     0.004588
      f-1     :     0.006145
      f+2     :     0.006718
      f-2     :     0.010624
      f+3     :     0.015558
      f-3     :     0.028216

  9 C s       :     2.714693  s :     2.714693
      pz      :     0.844757  p :     2.784568
      px      :     0.954144
      py      :     0.985667
      dz2     :     0.043159  d :     0.627021
      dxz     :     0.067482
      dyz     :     0.120211
      dx2y2   :     0.203178
      dxy     :     0.192991
      f0      :     0.005181  f :     0.077027
      f+1     :     0.004592
      f-1     :     0.006141
      f+2     :     0.006706
      f-2     :     0.010635
      f+3     :     0.015625
      f-3     :     0.028146

 10 C s       :     2.714695  s :     2.714695
      pz      :     0.844582  p :     2.784565
      px      :     0.954303
      py      :     0.985681
      dz2     :     0.042903  d :     0.627030
      dxz     :     0.067560
      dyz     :     0.120148
      dx2y2   :     0.203372
      dxy     :     0.193047
      f0      :     0.005186  f :     0.077027
      f+1     :     0.004567
      f-1     :     0.006125
      f+2     :     0.006712
      f-2     :     0.010627
      f+3     :     0.015640
      f-3     :     0.028170

 11 C s       :     2.714693  s :     2.714693
      pz      :     0.844587  p :     2.784558
      px      :     0.954445
      py      :     0.985527
      dz2     :     0.042903  d :     0.627023
      dxz     :     0.067532
      dyz     :     0.120180
      dx2y2   :     0.203379
      dxy     :     0.193029
      f0      :     0.005186  f :     0.077026
      f+1     :     0.004563
      f-1     :     0.006129
      f+2     :     0.006720
      f-2     :     0.010619
      f+3     :     0.015573
      f-3     :     0.028236

 12 C s       :     2.699288  s :     2.699288
      pz      :     0.846116  p :     2.781690
      px      :     0.963720
      py      :     0.971854
      dz2     :     0.043696  d :     0.642920
      dxz     :     0.110367
      dyz     :     0.093368
      dx2y2   :     0.199441
      dxy     :     0.196049
      f0      :     0.004909  f :     0.079913
      f+1     :     0.006113
      f-1     :     0.004792
      f+2     :     0.006363
      f-2     :     0.013511
      f+3     :     0.026169
      f-3     :     0.018056

 13 C s       :     2.699287  s :     2.699287
      pz      :     0.846111  p :     2.781687
      px      :     0.963568
      py      :     0.972008
      dz2     :     0.043698  d :     0.642926
      dxz     :     0.110421
      dyz     :     0.093318
      dx2y2   :     0.199411
      dxy     :     0.196079
      f0      :     0.004909  f :     0.079913
      f+1     :     0.006116
      f-1     :     0.004789
      f+2     :     0.006388
      f-2     :     0.013487
      f+3     :     0.026253
      f-3     :     0.017971

 14 C s       :     2.699283  s :     2.699283
      pz      :     0.846021  p :     2.781678
      px      :     0.963675
      py      :     0.971982
      dz2     :     0.043569  d :     0.642939
      dxz     :     0.110497
      dyz     :     0.093229
      dx2y2   :     0.199489
      dxy     :     0.196155
      f0      :     0.004908  f :     0.079918
      f+1     :     0.006113
      f-1     :     0.004776
      f+2     :     0.006368
      f-2     :     0.013492
      f+3     :     0.026281
      f-3     :     0.017979

 15 C s       :     2.699282  s :     2.699282
      pz      :     0.846017  p :     2.781676
      px      :     0.963827
      py      :     0.971832
      dz2     :     0.043570  d :     0.642939
      dxz     :     0.110448
      dyz     :     0.093280
      dx2y2   :     0.199523
      dxy     :     0.196119
      f0      :     0.004908  f :     0.079916
      f+1     :     0.006110
      f-1     :     0.004779
      f+2     :     0.006344
      f-2     :     0.013516
      f+3     :     0.026195
      f-3     :     0.018064

 16 C s       :     2.749695  s :     2.749695
      pz      :     0.937331  p :     2.948669
      px      :     1.002725
      py      :     1.008613
      dz2     :     0.025310  d :     0.378040
      dxz     :     0.048208
      dyz     :     0.048603
      dx2y2   :     0.096385
      dxy     :     0.159534
      f0      :     0.003243  f :     0.041073
      f+1     :     0.003934
      f-1     :     0.003986
      f+2     :     0.006411
      f-2     :     0.002106
      f+3     :     0.010614
      f-3     :     0.010779

 17 C s       :     2.749690  s :     2.749690
      pz      :     0.937347  p :     2.948682
      px      :     1.002625
      py      :     1.008710
      dz2     :     0.025311  d :     0.378039
      dxz     :     0.048062
      dyz     :     0.048749
      dx2y2   :     0.096368
      dxy     :     0.159550
      f0      :     0.003243  f :     0.041073
      f+1     :     0.003930
      f-1     :     0.003989
      f+2     :     0.006412
      f-2     :     0.002105
      f+3     :     0.010636
      f-3     :     0.010757

 18 C s       :     2.749677  s :     2.749677
      pz      :     0.937327  p :     2.948695
      px      :     1.002661
      py      :     1.008706
      dz2     :     0.025301  d :     0.378057
      dxz     :     0.048050
      dyz     :     0.048653
      dx2y2   :     0.096394
      dxy     :     0.159659
      f0      :     0.003238  f :     0.041077
      f+1     :     0.003930
      f-1     :     0.003995
      f+2     :     0.006415
      f-2     :     0.002091
      f+3     :     0.010642
      f-3     :     0.010766

 19 C s       :     2.749672  s :     2.749672
      pz      :     0.937342  p :     2.948706
      px      :     1.002757
      py      :     1.008607
      dz2     :     0.025301  d :     0.378057
      dxz     :     0.048198
      dyz     :     0.048505
      dx2y2   :     0.096413
      dxy     :     0.159640
      f0      :     0.003238  f :     0.041077
      f+1     :     0.003933
      f-1     :     0.003992
      f+2     :     0.006415
      f-2     :     0.002091
      f+3     :     0.010621
      f-3     :     0.010788

 20 C s       :     2.764193  s :     2.764193
      pz      :     0.916936  p :     2.932510
      px      :     1.035119
      py      :     0.980455
      dz2     :     0.027549  d :     0.378475
      dxz     :     0.057981
      dyz     :     0.034921
      dx2y2   :     0.103312
      dxy     :     0.154712
      f0      :     0.003071  f :     0.047587
      f+1     :     0.003962
      f-1     :     0.003836
      f+2     :     0.008958
      f-2     :     0.001334
[...]
  0-1A  -> 23-1A    5.041336   40661.1   245.9   0.603299057   4.88460  -0.00219   2.21011   0.00010
  0-1A  -> 24-1A    5.152997   41561.7   240.6   0.002552803   0.02022  -0.14220  -0.00014  -0.00106
  0-1A  -> 25-1A    5.168312   41685.3   239.9   0.092176201   0.72797   0.85318   0.00083   0.00665
  0-1A  -> 26-1A    5.185634   41825.0   239.1   0.000000193   0.00000   0.00075   0.00097   0.00000
  0-1A  -> 27-1A    5.264963   42464.8   235.5   0.000000033   0.00000   0.00049  -0.00014   0.00002
  0-1A  -> 28-1A    5.342192   43087.7   232.1   0.000140759   0.00108  -0.00000   0.03279  -0.00000
  0-1A  -> 29-1A    5.387778   43455.4   230.1   0.002992055   0.02267   0.00006   0.15056  -0.00002
  0-1A  -> 30-1A    5.512498   44461.3   224.9   0.001194771   0.00885  -0.00067  -0.00016   0.09405

----------------------------------------------------------------------------------------------------
                     ABSORPTION SPECTRUM VIA TRANSITION VELOCITY DIPOLE MOMENTS    
----------------------------------------------------------------------------------------------------
     Transition      Energy     Energy  Wavelength fosc(P2)      P2        PX        PY        PZ   
                      (eV)      (cm-1)    (nm)                 (au**2)    (au)      (au)      (au)  
----------------------------------------------------------------------------------------------------
  0-1A  ->  1-1A    2.340530   18877.6   529.7   0.570209685   0.07357  -0.00025   0.27123   0.00002
  0-1A  ->  2-1A    2.491284   20093.6   497.7   0.014609738   0.00201  -0.04479  -0.00005  -0.00038
  0-1A  ->  3-1A    3.027777   24420.7   409.5   0.000036417   0.00001  -0.00007  -0.00002   0.00246
  0-1A  ->  4-1A    3.182667   25669.9   389.6   0.005508110   0.00097  -0.03109  -0.00003  -0.00026
  0-1A  ->  5-1A    3.673755   29630.8   337.5   0.000142853   0.00003  -0.00003   0.00000   0.00538
  0-1A  ->  6-1A    3.868974   31205.4   320.5   0.000083553   0.00002  -0.00000   0.00422   0.00002
  0-1A  ->  7-1A    4.004420   32297.8   309.6   0.000000005   0.00000   0.00000   0.00003   0.00000
  0-1A  ->  8-1A    4.066848   32801.3   304.9   0.000000000   0.00000  -0.00001  -0.00001  -0.00000
  0-1A  ->  9-1A    4.194906   33834.2   295.6   0.001974351   0.00046  -0.02137  -0.00004  -0.00021
  0-1A  -> 10-1A    4.245740   34244.2   292.0   0.000610606   0.00014   0.00003   0.01145  -0.00344
  0-1A  -> 11-1A    4.246430   34249.8   292.0   0.022489844   0.00526  -0.00007   0.07255   0.00057
  0-1A  -> 12-1A    4.357268   35143.7   284.5   0.000000050   0.00000  -0.00001   0.00011  -0.00000
  0-1A  -> 13-1A    4.450474   35895.5   278.6   0.000000733   0.00000  -0.00000  -0.00042  -0.00000
  0-1A  -> 14-1A    4.465899   36019.9   277.6   0.012369078   0.00304  -0.00005   0.05518   0.00000
  0-1A  -> 15-1A    4.520531   36460.5   274.3   0.000000001   0.00000   0.00000  -0.00001  -0.00001
  0-1A  -> 16-1A    4.596285   37071.5   269.7   0.003566165   0.00090  -0.00025  -0.00006   0.03006
  0-1A  -> 17-1A    4.668892   37657.2   265.6   0.000001571   0.00000   0.00002  -0.00007   0.00063
  0-1A  -> 18-1A    4.683842   37777.7   264.7   0.009570403   0.00247  -0.00005   0.04971   0.00002
  0-1A  -> 19-1A    4.720935   38076.9   262.6   0.000032239   0.00001  -0.00008   0.00004   0.00290
  0-1A  -> 20-1A    4.749584   38308.0   261.0   0.000000002   0.00000   0.00000  -0.00002   0.00000
  0-1A  -> 21-1A    4.752418   38330.8   260.9   0.000647012   0.00017   0.01302   0.00002   0.00011
  0-1A  -> 22-1A    4.820205   38877.6   257.2   0.000002761   0.00000   0.00002   0.00000  -0.00086
  0-1A  -> 23-1A    5.041336   40661.1   245.9   0.003526962   0.00098   0.00004  -0.03131  -0.00002
  0-1A  -> 24-1A    5.152997   41561.7   240.6   0.000144153   0.00004   0.00640   0.00000   0.00006
  0-1A  -> 25-1A    5.168312   41685.3   239.9   0.012958706   0.00369  -0.06076  -0.00005  -0.00045
  0-1A  -> 26-1A    5.185634   41825.0   239.1   0.000000005   0.00000  -0.00003  -0.00002  -0.00000
  0-1A  -> 27-1A    5.264963   42464.8   235.5   0.000000004   0.00000  -0.00003  -0.00000  -0.00000
  0-1A  -> 28-1A    5.342192   43087.7   232.1   0.000055156   0.00002  -0.00000   0.00403  -0.00000
  0-1A  -> 29-1A    5.387778   43455.4   230.1   0.000055018   0.00002  -0.00001  -0.00404   0.00000
  0-1A  -> 30-1A    5.512498   44461.3   224.9   0.001665580   0.00051   0.00016   0.00000  -0.02250

------------------------------------------------------------------------------------------
                     CD SPECTRUM VIA TRANSITION ELECTRIC DIPOLE MOMENTS    
------------------------------------------------------------------------------------------
     Transition      Energy     Energy  Wavelength    R        MX        MY        MZ   
                      (eV)      (cm-1)    (nm)   (1e40*cgs)   (au)      (au)      (au)  
------------------------------------------------------------------------------------------
  0-1A  ->  1-1A    2.340530   18877.6   529.7  -47.82036  -0.00006   0.04148   0.00019
  0-1A  ->  2-1A    2.491284   20093.6   497.7   -0.83188  -0.00264   0.00000  -0.00031
  0-1A  ->  3-1A    3.027777   24420.7   409.5   -0.60238  -0.00094   0.00006   0.11623
  0-1A  ->  4-1A    3.182667   25669.9   389.6    0.16825  -0.00677  -0.00001  -0.00022
  0-1A  ->  5-1A    3.673755   29630.8   337.5    3.72923   0.00314  -0.00002  -0.40612
  0-1A  ->  6-1A    3.868974   31205.4   320.5  -14.14194  -0.00026   0.27020   0.00009
  0-1A  ->  7-1A    4.004420   32297.8   309.6    0.00004  -0.00000  -0.00012   0.00000
  0-1A  ->  8-1A    4.066848   32801.3   304.9   -0.00002  -0.00002   0.00009   0.00005
  0-1A  ->  9-1A    4.194906   33834.2   295.6  -24.69032  -0.01272  -0.00003   0.00044
  0-1A  -> 10-1A    4.245740   34244.2   292.0   48.22741  -0.00996   0.00401   1.27605
  0-1A  -> 11-1A    4.246430   34249.8   292.0  -36.17006   0.00156   0.02637  -0.20095
  0-1A  -> 12-1A    4.357268   35143.7   284.5   -0.00007   0.00001   0.00007  -0.00002
  0-1A  -> 13-1A    4.450474   35895.5   278.6   -0.00012  -0.00006  -0.00009  -0.00000
  0-1A  -> 14-1A    4.465899   36019.9   277.6   -3.09646  -0.00003   0.01659  -0.00052
  0-1A  -> 15-1A    4.520531   36460.5   274.3   -0.00001   0.00002  -0.00007  -0.00003
  0-1A  -> 16-1A    4.596285   37071.5   269.7   -1.69940  -0.00048  -0.00010   0.06325
  0-1A  -> 17-1A    4.668892   37657.2   265.6    0.81468  -0.00053   0.00002   0.06358
  0-1A  -> 18-1A    4.683842   37777.7   264.7  -16.92269  -0.00001   0.01807   0.00041
  0-1A  -> 19-1A    4.720935   38076.9   262.6   -3.41726   0.00166  -0.00005  -0.20378
  0-1A  -> 20-1A    4.749584   38308.0   261.0    0.00002   0.00005   0.00001  -0.00003
  0-1A  -> 21-1A    4.752418   38330.8   260.9    1.84543  -0.02187  -0.00002  -0.00137
  0-1A  -> 22-1A    4.820205   38877.6   257.2   -1.94162   0.00116   0.00005  -0.14731
  0-1A  -> 23-1A    5.041336   40661.1   245.9   26.32243   0.00002  -0.02526   0.00004
  0-1A  -> 24-1A    5.152997   41561.7   240.6  -16.22375  -0.24199  -0.00023  -0.00202
  0-1A  -> 25-1A    5.168312   41685.3   239.9    5.01084  -0.01246  -0.00002  -0.00015
  0-1A  -> 26-1A    5.185634   41825.0   239.1   -0.00001   0.00001   0.00001  -0.00005
  0-1A  -> 27-1A    5.264963   42464.8   235.5   -0.00001   0.00003  -0.00009   0.00001
  0-1A  -> 28-1A    5.342192   43087.7   232.1    1.62945   0.00010  -0.10539  -0.00010
  0-1A  -> 29-1A    5.387778   43455.4   230.1   -6.16744  -0.00009   0.08689  -0.00008
  0-1A  -> 30-1A    5.512498   44461.3   224.9   -0.45847  -0.00010   0.00000   0.01034

------------------------------------------------------------------------------------------
                     CD SPECTRUM VIA TRANSITION VELOCITY DIPOLE MOMENTS    
------------------------------------------------------------------------------------------
     Transition      Energy     Energy  Wavelength    R        MX        MY        MZ   
                      (eV)      (cm-1)    (nm)   (1e40*cgs)   (au)      (au)      (au)  
------------------------------------------------------------------------------------------
  0-1A  ->  1-1A    2.340530   18877.6   529.7   61.67381  -0.00006   0.04148   0.00019
  0-1A  ->  2-1A    2.491284   20093.6   497.7    0.60999  -0.00264   0.00000  -0.00031
  0-1A  ->  3-1A    3.027777   24420.7   409.5    1.21390  -0.00094   0.00006   0.11623
  0-1A  ->  4-1A    3.182667   25669.9   389.6    0.84898  -0.00677  -0.00001  -0.00022
  0-1A  ->  5-1A    3.673755   29630.8   337.5   -7.62804   0.00314  -0.00002  -0.40612
  0-1A  ->  6-1A    3.868974   31205.4   320.5    3.78199  -0.00026   0.27020   0.00009
  0-1A  ->  7-1A    4.004420   32297.8   309.6   -0.00001  -0.00000  -0.00012   0.00000
  0-1A  ->  8-1A    4.066848   32801.3   304.9   -0.00000  -0.00002   0.00009   0.00005
  0-1A  ->  9-1A    4.194906   33834.2   295.6    0.83054  -0.01272  -0.00003   0.00044
  0-1A  -> 10-1A    4.245740   34244.2   292.0  -13.13477  -0.00996   0.00401   1.27605
  0-1A  -> 11-1A    4.246430   34249.8   292.0    5.43332   0.00156   0.02637  -0.20095
  0-1A  -> 12-1A    4.357268   35143.7   284.5    0.00002   0.00001   0.00007  -0.00002
  0-1A  -> 13-1A    4.450474   35895.5   278.6    0.00011  -0.00006  -0.00009  -0.00000
  0-1A  -> 14-1A    4.465899   36019.9   277.6    2.62914  -0.00003   0.01659  -0.00052
  0-1A  -> 15-1A    4.520531   36460.5   274.3    0.00000   0.00002  -0.00007  -0.00003
  0-1A  -> 16-1A    4.596285   37071.5   269.7    5.30652  -0.00048  -0.00010   0.06325
  0-1A  -> 17-1A    4.668892   37657.2   265.6    0.11035  -0.00053   0.00002   0.06358
  0-1A  -> 18-1A    4.683842   37777.7   264.7    2.46077  -0.00001   0.01807   0.00041
  0-1A  -> 19-1A    4.720935   38076.9   262.6   -1.60354   0.00166  -0.00005  -0.20378
  0-1A  -> 20-1A    4.749584   38308.0   261.0   -0.00000   0.00005   0.00001  -0.00003
  0-1A  -> 21-1A    4.752418   38330.8   260.9   -0.76903  -0.02187  -0.00002  -0.00137
  0-1A  -> 22-1A    4.820205   38877.6   257.2    0.33582   0.00116   0.00005  -0.14731
  0-1A  -> 23-1A    5.041336   40661.1   245.9    2.01261   0.00002  -0.02526   0.00004
  0-1A  -> 24-1A    5.152997   41561.7   240.6   -3.85526  -0.24199  -0.00023  -0.00202
  0-1A  -> 25-1A    5.168312   41685.3   239.9    1.87880  -0.01246  -0.00002  -0.00015
  0-1A  -> 26-1A    5.185634   41825.0   239.1   -0.00000   0.00001   0.00001  -0.00005
  0-1A  -> 27-1A    5.264963   42464.8   235.5   -0.00000   0.00003  -0.00009   0.00001
  0-1A  -> 28-1A    5.342192   43087.7   232.1   -1.02000   0.00010  -0.10539  -0.00010
  0-1A  -> 29-1A    5.387778   43455.4   230.1   -0.83631  -0.00009   0.08689  -0.00008
  0-1A  -> 30-1A    5.512498   44461.3   224.9   -0.54132  -0.00010   0.00000   0.01034

Total run time:     2067.729 sec

           *** ORCA-CIS/TD-DFT FINISHED WITHOUT ERROR ***
-----------------------
CIS/TD-DFT TOTAL ENERGY
-----------------------

    E(SCF)  =  -1191.554841777 Eh
    DE(CIS) =      0.086012885 Eh (Root  1)
    ----------------------------- ---------
    E(tot)  =  -1191.468828892 Eh


Maximum memory used throughout the entire CIS-calculation: 1166.7 MB
=> NOW LEAVING ORCA_CIS

-------------------------   --------------------
FINAL SINGLE POINT ENERGY     -1191.468828891903
-------------------------   --------------------



           ************************************************************
           *        Program running with 4 parallel MPI-processes     *
           *              working on a common directory               *
           ************************************************************

------------------------------------------------------------------------------
                              ORCA PROPERTY CALCULATIONS
------------------------------------------------------------------------------

GBWName                                 ... tddft.gbw
Number of atoms                         ...     41
Number of basis functions               ...    872
Max core memory                         ...   3000 MB

Electric properties:
Dipole moment                           ... YES
Quadrupole moment                       ...  NO
Static polarizability (Dipole/Dipole)   ...  NO
Static polarizability (Dipole/Quad.)    ...  NO
Static polarizability (Quad./Quad.)     ...  NO
Static polarizability (Velocity)        ...  NO
Static hyperpolarizability              ...  NO

Atomic electric properties:
Dipole moment                           ...  NO
Quadrupole moment                       ...  NO
Static polarizability                   ...  NO

Choice of electric origin               ... Center of mass
Position of electric origin             ...    -0.003613    -0.019229     0.068836

General magnetic properties:
Magnetizability                         ...  NO

EPR properties:
g-Tensor (aka g-matrix)                 ...  NO
Zero-Field splitting spin-orbit         ...  NO
Zero-field splitting spin-spin          ...  NO
Hyperfine couplings                     ...  NO (   0 nuclei)
Quadrupole couplings                    ...  NO (   0 nuclei)
Contact density                         ...  NO (   0 nuclei)

NMR properties:
Chemical shifts                         ...  NO (   0 nuclei)
Spin-rotation constants                 ...  NO (   0 nuclei)
Spin-spin couplings                     ...  NO (   0 nuclei,    0 pairs)

Choice of magnetic origin               ... GIAO
Position of magnetic origin             ...     0.000000     0.000000     0.000000

Properties with geometric perturbations:
SCF Hessian                             ...  NO
IR spectrum                             ...  NO
VCD spectrum                            ...  NO
X-ray spectroscopy properties:
SCF XES/XAS/RIXS spectra                ...  NO

SCF SOC stabilization energy            ...  NO
Diagonal Born-Oppenheimer correction    ...  NO

-------------
DIPOLE MOMENT
-------------

Method             : SCF
Type of density    : Electron Density
Multiplicity       :   1
Irrep              :   0
Energy             : -1191.5548417773779875 Eh
Basis              : AO
                                X                 Y                 Z
Electronic contribution:      0.000811912       0.000121554      -0.000407107
Nuclear contribution   :     -0.000660183       0.000201001       0.000373176
                        -----------------------------------------
Total Dipole Moment    :      0.000151729       0.000322555      -0.000033931
                        -----------------------------------------
Magnitude (a.u.)       :      0.000358071
Magnitude (Debye)      :      0.000910145



--------------------
Rotational spectrum 
--------------------
 
Rotational constants in cm-1:             0.008915             0.008207             0.004290 
Rotational constants in MHz :           267.260438           246.047427           128.597541 

Dipole components along the rotational axes: 
x,y,z [a.u.] :     0.000152    -0.000322    -0.000035 
x,y,z [Debye]:     0.000386    -0.000819    -0.000089 

 

Dipole moment calculation done in   0.1 sec 

Maximum memory used throughout the entire PROP-calculation: 90.9 MB

--------------------------------
SUGGESTED CITATIONS FOR THIS RUN
--------------------------------

Below you find a list of papers that are relevant to this ORCA run
We neither can nor want to force you to cite these papers, but we appreciate if you do
You receive ORCA, which is the product of decades of hard work by many enthusiastic individuals, for free
The only thing we kindly ask in return is that you cite our papers,
We deeply appreciate it, if you show your appreciation for ORCA by not just citing the generic ORCA reference.

Please note that relegating all ORCA citations to the supporting information does *not* help us.
SI sections are not indexed - citations you put there will not count into any citation statistics
But we need these citations in order to attract the funding resources that allow us to do what we are doing

Therefore, if you are a happy ORCA user, please consider citing a few of the papers listed below in the main body of your paper

In addition to the list printed below, the program has created the file tddft.bibtex that contains the list in bibtex format
You can import this file easily into all common literature databanks and citation aid programs

It goes without saying that in many instances, there are alternative algorithms to achieve similar
results as the ones you have gotten from ORCA. It is, of course, also the case that in some instances
ORCA just re-implements algorithms worked out by others. We are fully aware of that and we are also
fully appreciative of our colleagues work. Hence this citation list should not be read as indicating
that the listed papers, which are focused on our own work, are the only ones worth citing. It simply
meant to make it easier for users to cite ORCA specific papers. It is not a substitute for doing your
own literature research and citing the relevant literature in a scientifically appropriate manner.

List of essential papers. We consider these as the minimum necessary citations

  1. Neese, F.
     Software update: the ORCA program system, version 6.0
     WIRES Comput. Molec. Sci. 2025 15(1), e70019
     doi.org/10.1002/wcms.70019

List of papers to cite with high priority. The work reported in these papers was absolutely
necessary for this run to complete.
Our perspective: the developers of density functionals and basis sets usually get cited in chemistry papers
Good! But without the algorithms to do something with them, the functionals or basis sets would not do anything.
Hence, in our opinion, the algorithm design and method developments papers are equally worthy of getting cited

  1. Neese, F.; Olbrich, G.
     Efficient use of the resolution of the identity approximation in time-dependent density functional calculations with hybrid density functionals
     Chem. Phys. Lett. 2002 362 , 170-178
     doi.org/10.1016/s0009-2614(02)01053-9
  2. Neese, F.
     An improvement of the resolution of the identity approximation for the formation of the Coulomb matrix
     J. Comp. Chem. 2003 24(14), 1740-1747
     doi.org/10.1002/jcc.10318
  3. Neese, F.
     The SHARK Integral Generation and Digestion System
     J. Comp. Chem. 2022 44(3), 381
     doi.org/10.1002/jcc.26942

List of suggested additional citations. These are papers that are important in the 'surrounding' of 
of this run, or papers that preceded the highly important papers. If you like your results we are grateful for a citation.

  1. Neese, F.
     The ORCA program system
     WIRES Comput. Molec. Sci. 2012 2(1), 73-78
     doi.org/10.1002/wcms.81
  2. Neese, F.
     Software update: the ORCA program system, version 4.0
     WIRES Comput. Molec. Sci. 2018 8(1), 1-6
     doi.org/10.1002/wcms.1327
  3. Neese, F.; Wennmohs, F.; Becker, U.; Riplinger, C.
     The ORCA quantum chemistry program package
     J. Chem. Phys. 2020 152(22), 224108
     doi.org/10.1063/5.0004608
  4. Neese, F.
     Software update: The ORCA program system—Version 5.0
     WIRES Comput. Molec. Sci. 2022 12(1), e1606
     doi.org/10.1002/wcms.1606

List of optional additional citations

  1. Neese, F.
     Approximate second-order SCF convergence for spin unrestricted wavefunctions
     Chem. Phys. Lett. 2000 325(1-3), 93-98
     doi.org/10.1016/s0009-2614(00)00662-x

Timings for individual modules:

Sum of individual times          ...     2737.692 sec (=  45.628 min)
Startup calculation              ...       14.371 sec (=   0.240 min)   0.5 %
SCF iterations                   ...      651.282 sec (=  10.855 min)  23.8 %
Property integrals               ...        3.080 sec (=   0.051 min)   0.1 %
Property calculations            ...        0.730 sec (=   0.012 min)   0.0 %
CIS module                       ...     2068.229 sec (=  34.470 min)  75.5 %
                             ****ORCA TERMINATED NORMALLY****
TOTAL RUN TIME: 0 days 0 hours 45 minutes 38 seconds 145 msec
