
                                 *****************
                                 * O   R   C   A *
                                 *****************

                                            #,                                       
                                            ###                                      
                                            ####                                     
                                            #####                                    
                                            ######                                   
                                           ########,                                 
                                     ,,################,,,,,                         
                               ,,#################################,,                 
                          ,,##########################################,,             
                       ,#########################################, ''#####,          
                    ,#############################################,,   '####,        
                  ,##################################################,,,,####,       
                ,###########''''           ''''###############################       
              ,#####''   ,,,,##########,,,,          '''####'''          '####       
            ,##' ,,,,###########################,,,                        '##       
           ' ,,###''''                  '''############,,,                           
         ,,##''                                '''############,,,,        ,,,,,,###''
      ,#''                                            '''#######################'''  
     '                                                          ''''####''''         
             ,#######,   #######,   ,#######,      ##                                
            ,#'     '#,  ##    ##  ,#'     '#,    #''#        ,####,    ,#,          
            ##       ##  ##   ,#'  ##            #'  '#       #'       ,# #          
            ##       ##  #######   ##           ,######,      #####,      #          
            '#,     ,#'  ##    ##  '#,     ,#' ,#      #,     #,   #      #          
             '#######'   ##     ##  '#######'  #'      '#     '####' #    #          



                #########################################################
                #                        -***-                          #
                #          Department of theory and spectroscopy        #
                #                                                       #
                #                      Frank Neese                      #
                #                                                       #
                #     Directorship, Architecture, Infrastructure        #
                #                    SHARK, DRIVERS                     #
                #        Core code/Algorithms in most modules           #
                #                                                       #
                #        Max Planck Institute fuer Kohlenforschung      #
                #                Kaiser Wilhelm Platz 1                 #
                #                 D-45470 Muelheim/Ruhr                 #
                #                      Germany                          #
                #                                                       #
                #                  All rights reserved                  #
                #                        -***-                          #
                #########################################################


                         Program Version 6.1.1  -  RELEASE   -
                                (GIT: $487d211c$)
                          ($2025-11-21 10:33:24 +0100$)


 With contributions from (in alphabetic order):
[Max-Planck-Institut fuer Kohlenforschung]                               
  Daniel Aravena         : Magnetic Suceptibility                        
  Michael Atanasov       : Ab Initio Ligand Field Theory (pilot matlab implementation)
  Alexander A. Auer      : GIAO ZORA, VPT2 properties, NMR spectrum      
  Ute Becker             : All parallelization in ORCA, NUMFREQ, NUMCALC 
  Giovanni Bistoni       : ED, misc. LED, open-shell LED, HFLD           
  Dmytro Bykov           : pre 5.0 version of the SCF Hessian            
  Marcos Casanova-Páez   : Triplet and SCS-CIS(D). UHF-(DLPNO)-IP/EA/STEOM-CCSD. UHF-CVS-IP/STEOM-CCSD   
  Vijay G. Chilkuri      : MRCI spin determinant printing, contributions to CSF-ICE 
  Pauline Colinet        : FMM embedding                                 
  Dipayan Datta          : RHF DLPNO-CCSD density                        
  Achintya Kumar Dutta   : EOM-CC, STEOM-CC                              
  Nicolas Foglia         : Exact transition moments, OPA infrastructure, MCD improvements    
  Dmitry Ganyushin       : Spin-Orbit,Spin-Spin,Magnetic field MRCI      
  Miquel Garcia-Rates    : C-PCM and meta-GGA Hessian, CCSD/C-PCM, Gaussian charge scheme 
  Tiago L. C. Gouveia    : GS-ROHF, GS-ROCIS                             
  Yang Guo               : DLPNO-NEVPT2, F12-NEVPT2, CIM, IAO-localization        
  Andreas Hansen         : Spin unrestricted coupled pair/coupled cluster methods 
  Ingolf Harden          : AUTO-CI MPn and infrastructure                
  Benjamin Helmich-Paris : MC-RPA, TRAH-(SCF,CASSCF), AVAS, COSX integrals, SCF dyn. polar., MC-PDFT, srDFT 
  Lee Huntington         : MR-EOM, pCC                                   
  Robert Izsak           : Overlap fitted RIJCOSX, COSX-SCS-MP3, EOM     
  Riya Kayal             : Wick's Theorem for AUTO-CI, AUTO-CI UHF-CCSDT 
  Emily Kempfer          : AUTO-CI RHF CISDT and CCSDT, approximate NEVPT4
  Christian Kollmar      : KDIIS, OOCD, Brueckner-CCSD(T), CCSD density, CASPT2, CASPT2-K, improved NEVPT2 
  Axel Koslowski         : Symmetry handling                             
  Simone Kossmann        : meta-GGA functionals, TD-DFT gradient, OOMP2, (MP2 Hessian; deprecated post 5.0) 
  Lucas Lang             : DCDCAS, Hyperfine gauge corrections, ICE-SOC+SSC
  Marvin Lechner         : AUTO-CI (C++ implementation), FIC-MRCC        
  Spencer Leger          : CASSCF response                               
  Dagmar Lenk            : GEPOL surface, SMD, ORCA-2-JSON               
  Dimitrios Liakos       : Extrapolation schemes; Compound Job, Property file
  Dimitrios Manganas     : Further ROCIS development; embedding schemes. LFT, Crystal Embedding 
  Dimitrios Pantazis     : SARC Basis sets                               
  Anastasios Papadopoulos: AUTO-CI, single reference methods and gradients 
  Taras Petrenko         : pre 6.0 DFT Hessian and TD-DFT gradient,  ECA, NRVS 
  Petra Pikulova         : Analytic Raman intensities                    
  Peter Pinski           : DLPNO-MP2, DLPNO-MP2 Gradient                 
  Shashank Vittal Rao    : ES-AILFT, MagRelax                            
  Christoph Reimann      : Effective Core Potentials                     
  Marius Retegan         : Local ZFS, SOC                                
  Christoph Riplinger    : Optimizer, TS searches, QM/MM, DLPNO-CCSD(T), (RO)-DLPNO pert. Triples 
  Michael Roemelt        : Original ROCIS implementation, recursive CI coupling coefficients
  Masaaki Saitow         : Open-shell DLPNO-CCSD energy and density      
  Barbara Sandhoefer     : DKH picture change effects                    
  Yorick L. A. Schmerwitz: GMF and freeze-and-release deltaSCF, NEB S-IDPP initial path                    
  Kantharuban Sivalingam : CASSCF convergence/infrastructure, NEVPT2, NEVPT3, NEVPT4(SD), FIC-MRCI and CEPA variants
  Bernardo de Souza      : ESD, SOC TD-DFT                               
  Georgi L. Stoychev     : AutoAux, RI-MP2 NMR, DLPNO-MP2 response, X2C  
  Van Anh Tran           : RI-MP2 g-tensors                              
  Willem Van den Heuvel  : Paramagnetic NMR                              
  Zikuan Wang            : NOTCH, Electric field optimization            
  Frank Wennmohs         : Technical directorship and infrastructure     
  Hang Xu                : AUTO-CI-Response properties                   
                                                                         
[FACCTs GmbH]                                                            
  Markus Bursch, Nicolas Foglia, Miquel Garcia-Rates, Ingolf Harden, Hagen Neugebauer, Anastasios Papadopoulos, 
  Christoph Riplinger, Bernardo de Souza, Georgi L. Stoychev                                                    
                                                                 
  APM, various basis sets, CI-OPT, improved COSX, DLPNO-Multilevel,           
  DOCKER, DRACO, updates on ESD, Fragmentator, GOAT, IRC, LR-CPCM, L-BFGS, MBIS, meta-GGA TD-DFT gradient, ML-optimized integration grids, 
  MM, NACMEs, nearIR, NEB, NEB-TS, NL-DFT gradient (VV10), 2- and 3-layer-ONIOM, interface openCOSMO-RS, QMMM,   
  Crystal-QMMM, RESP, rigid body optimization, SF, symmetry and pop. for TD-DFT, various functionals, SOLVATOR                                   
                                                                         
[Other institutions]                                                     
  V. Asgeirsson          : NEB                                           
  Christoph Bannwarth    : sTDA-DFT, sTD-DFT, PBEh-3c, B97-3c, D3        
  Giovanni Bistoni       : ETS/NOCV, ADLD/ADEX, COVALED                  
  Martin Brehm           : Molecular dynamics                            
  Ronald Cardenas        : ETS/NOCV                                      
  Martina Colucci        : COVALED                                       
  Sebastian Ehlert       : rSCAN, r2SCAN, r2SCAN-3c, D4, dhf basis sets  
  Marvin Friede          : D4 for Fr, Ra, Ac-Lr                          
  Lars Goerigk           : TD-DFT with DH, B97 family of functionals     
  Stefan Grimme          : VdW corrections, initial TS optimization, DFT functionals, gCP, sTDA/sTD-DF 
  Waldemar Hujo          : DFT-NL                                        
  H. Jonsson             : NEB                                           
  Holger Kruse           : gCP                                           
  Marcel Mueller         : wB97X-3c, vDZP basis set                      
  Hagen Neugebauer       : wr2SCAN, Native XTB                           
  Gianluca Regni         : ADLD/ADEX                                     
  Tobias Risthaus        : pre 6.0 range-separated hybrid DFT and stability analysis
  Lukas Wittmann         : regularized MP2, r2SCAN double-hybrids, wr2SCAN        
                                                                         
We gratefully acknowledge several colleagues who have allowed us to      
interface, adapt or use parts of their codes:                            
  Ed Valeev, F. Pavosevic, A. Kumar             : LibInt (2-el integral package), F12 methods 
  Garnet Chan, S. Sharma, J. Yang, R. Olivares  : DMRG                   
  Ulf Ekstrom                                   : XCFun DFT Library      
  Mihaly Kallay                                 : mrcc  (arbitrary order and MRCC methods)
  Frank Weinhold                                : gennbo (NPA and NBO analysis)           
  Simon Mueller                                 : openCOSMO-RS                            
  Christopher J. Cramer and Donald G. Truhlar   : smd solvation model                     
  S Lehtola, MJT Oliveira, MAL Marques          : LibXC Library                           
  Liviu Ungur et al                             : ANISO software                          


 Your calculation uses the libint2 library for the computation of 2-el integrals
 For citations please refer to: http://libint.valeyev.net

 Your ORCA version has been built with support for libXC version: 7.0.0
 For citations please refer to: https://libxc.gitlab.io

 This ORCA versions uses:
   CBLAS   interface :  Fast vector & matrix operations
   LAPACKE interface :  Fast linear algebra routines
   SCALAPACK package :  Parallel linear algebra routines
   Shared memory     :  Shared parallel matrices
   BLAS/LAPACK       :  OpenBLAS 0.3.29  USE64BITINT DYNAMIC_ARCH NO_AFFINITY Haswell SINGLE_THREADED
        Core in use  :  Haswell
   Copyright (c) 2011-2014, The OpenBLAS Project


  ***********************************
  * Starting time: Sun Jul  5 23:10:04 2026
  * Host name:     steezy
  * Process ID:    1308996
  * Working dir.:  /home/jannes/chlorophyll-ladder/007-mg-core-ladder/mgbacteriochlorin/03_tddft_ch2cl2/wb97xd
  ***********************************

NOTE: MaxCore=3000 MB was set to SCF,MP2,MDCI,CIPSI,MRCI,RASCI and CIS
      => If you want to overwrite this, your respective input block should be placed after the MaxCore statement


***************************************
The coordinates will be read from file: /home/jannes/chlorophyll-ladder/007-mg-core-ladder/mgbacteriochlorin/01_opt/mgbacteriochlorin_opt_b3lypd4_tzvp.xyz
***************************************


Your calculation utilizes the atom-pairwise dispersion correction
with the zero-damping scheme (D30)


XCFun DFT library Copyright 2009-2010 Ulf Ekstrom and contributors.
See http://admol.org/xcfun for more information.
This is free software; see the source code for copying conditions.
There is ABSOLUTELY NO WARRANTY; not even for MERCHANTABILITY or FITNESS FOR A PARTICULAR PURPOSE.
For details see the documentation.
Scientific users of this library should cite U. Ekstrom, L. Visscher, R. Bast, A. J. Thorvaldsen and K. Ruud;
J.Chem.Theor.Comp. 2010, DOI: 10.1021/ct100117s
XCFun Version 0.99 

================================================================================

----- Orbital basis set information -----
Your calculation utilizes the basis: def2-TZVP
   F. Weigend and R. Ahlrichs, Phys. Chem. Chem. Phys. 7, 3297 (2005).

----- AuxJ basis set information -----
Your calculation utilizes the auxiliary basis: def2/J
   H-Rn: F. Weigend, Phys. Chem. Chem. Phys. 8, 1057 (2006).
   Fr-Lr: K. Eichkorn, F. Weigend, O. Treutler, R. Ahlrichs; Theor. Chem. Acc. 97, 119 (1997).

================================================================================
                                        WARNINGS
                       Please study these warnings very carefully!
================================================================================


WARNING: CIS/ROCIS methods need fully converged wavefunctions
  ===> : Setting SCFConvForced true
         You can overwrite this default with %scf ConvForced false 


================================================================================
                                       INPUT FILE
================================================================================
NAME = tddft.inp
|  1> %pal nprocs 4 end
|  2> %maxcore 3000
|  3> ! wB97X-D3 def2-TZVP def2/J RIJCOSX DefGrid3 TightSCF CPCM(CH2Cl2)
|  4> %tddft
|  5>   nroots 30
|  6>   tda false
|  7>   triplets false
|  8> end
|  9> * xyzfile 0 1 /home/jannes/chlorophyll-ladder/007-mg-core-ladder/mgbacteriochlorin/01_opt/mgbacteriochlorin_opt_b3lypd4_tzvp.xyz
| 10> 
| 11>                          ****END OF INPUT****
================================================================================

                       ****************************
                       * Single Point Calculation *
                       ****************************

---------------------------------
CARTESIAN COORDINATES (ANGSTROEM)
---------------------------------
  N     -2.124578   -0.012303    0.019619
  N      2.120702   -0.008182    0.053311
  N      0.000054   -2.042965    0.036072
  N     -0.003922    2.022643    0.036768
  C     -4.365647   -0.772052   -0.118068
  C      4.363206   -0.763605    0.191137
  C     -4.368868    0.743331    0.123418
  C      4.363545    0.751732   -0.050582
  C     -2.893435   -1.127457   -0.033347
  C      2.891729   -1.121890    0.105994
  C     -2.896171    1.101445    0.061023
  C      2.890180    1.107061    0.012189
  C     -1.099225   -2.861182    0.000405
  C      1.100883   -2.859069    0.071901
  C     -1.105169    2.838701    0.055116
  C      1.095772    2.840793    0.018125
  C     -2.428367   -2.424151   -0.040149
  C      2.429194   -2.419482    0.112495
  C     -2.433870    2.399066    0.075036
  C      2.425350    2.403775   -0.001591
  C     -0.680956   -4.229545    0.012980
  C      0.685237   -4.228237    0.059463
  C     -0.689363    4.207941    0.048969
  C      0.677354    4.209237    0.023929
  H     -4.752237   -1.026638   -1.108895
  H     -4.959962   -1.326894    0.608414
  H      4.749790   -1.017167    1.182234
  H      4.958957   -1.317434   -0.534930
  H     -4.953125    1.297020   -0.612043
  H     -4.770793    0.997360    1.108263
  H      4.946888    1.306572    0.684739
  H      4.764732    1.006428   -1.035547
  H     -3.179766   -3.203559   -0.079566
  H      3.182074   -3.197459    0.151893
  H     -3.187309    3.176996    0.103002
  H      3.177260    3.183189   -0.029363
  H     -1.343528   -5.080762   -0.009530
  H      1.349426   -5.078189    0.082157
  H     -1.354064    5.057708    0.060979
  H      1.340439    5.060262    0.011412
  Mg    -0.001641   -0.010087    0.036418

----------------------------
CARTESIAN COORDINATES (A.U.)
----------------------------
  NO LB      ZA    FRAG     MASS         X           Y           Z
   0 N     7.0000    0    14.007   -4.014871   -0.023249    0.037074
   1 N     7.0000    0    14.007    4.007547   -0.015462    0.100743
   2 N     7.0000    0    14.007    0.000102   -3.860643    0.068165
   3 N     7.0000    0    14.007   -0.007411    3.822241    0.069481
   4 C     6.0000    0    12.011   -8.249878   -1.458967   -0.223116
   5 C     6.0000    0    12.011    8.245265   -1.443005    0.361196
   6 C     6.0000    0    12.011   -8.255964    1.404693    0.233226
   7 C     6.0000    0    12.011    8.245904    1.420568   -0.095586
   8 C     6.0000    0    12.011   -5.467801   -2.130585   -0.063016
   9 C     6.0000    0    12.011    5.464575   -2.120065    0.200300
  10 C     6.0000    0    12.011   -5.472971    2.081430    0.115316
  11 C     6.0000    0    12.011    5.461648    2.092042    0.023034
  12 C     6.0000    0    12.011   -2.077234   -5.406851    0.000765
  13 C     6.0000    0    12.011    2.080367   -5.402857    0.135874
  14 C     6.0000    0    12.011   -2.088466    5.364367    0.104155
  15 C     6.0000    0    12.011    2.070710    5.368321    0.034251
  16 C     6.0000    0    12.011   -4.588949   -4.580981   -0.075870
  17 C     6.0000    0    12.011    4.590511   -4.572158    0.212586
  18 C     6.0000    0    12.011   -4.599348    4.533577    0.141797
  19 C     6.0000    0    12.011    4.583247    4.542477   -0.003006
  20 C     6.0000    0    12.011   -1.286820   -7.992681    0.024528
  21 C     6.0000    0    12.011    1.294910   -7.990210    0.112369
  22 C     6.0000    0    12.011   -1.302708    7.951855    0.092538
  23 C     6.0000    0    12.011    1.280014    7.954306    0.045220
  24 H     1.0000    0     1.008   -8.980427   -1.940064   -2.095508
  25 H     1.0000    0     1.008   -9.372970   -2.507465    1.149735
  26 H     1.0000    0     1.008    8.975803   -1.922168    2.234098
  27 H     1.0000    0     1.008    9.371070   -2.489590   -1.010871
  28 H     1.0000    0     1.008   -9.360049    2.451013   -1.156593
  29 H     1.0000    0     1.008   -9.015493    1.884737    2.094314
  30 H     1.0000    0     1.008    9.348264    2.469063    1.293968
  31 H     1.0000    0     1.008    9.004039    1.901874   -1.956899
  32 H     1.0000    0     1.008   -6.008887   -6.053850   -0.150357
  33 H     1.0000    0     1.008    6.013249   -6.042321    0.287037
  34 H     1.0000    0     1.008   -6.023141    6.003652    0.194646
  35 H     1.0000    0     1.008    6.004152    6.015356   -0.055489
  36 H     1.0000    0     1.008   -2.538900   -9.601249   -0.018009
  37 H     1.0000    0     1.008    2.550046   -9.596387    0.155255
  38 H     1.0000    0     1.008   -2.558811    9.557682    0.115234
  39 H     1.0000    0     1.008    2.533064    9.562509    0.021566
  40 Mg   12.0000    0    24.305   -0.003102   -0.019062    0.068819

--------------------------------
INTERNAL COORDINATES (ANGSTROEM)
--------------------------------
 N      0   0   0     0.000000000000     0.00000000     0.00000000
 N      1   0   0     4.245416085717     0.00000000     0.00000000
 N      2   1   0     2.939011375942    43.75967239     0.00000000
 N      1   2   3     2.939129070827    43.76187171   180.00255177
 C      1   2   3     2.370352009699   161.12036003   351.01820559
 C      2   1   3     2.370334321602   161.11898876   350.98604815
 C      5   1   2     1.534507198399    71.11414070   179.93485080
 C      6   2   1     1.534495241103    71.11492103   179.93600990
 C      1   2   3     1.355550048196   124.63056083   357.60358136
 C      2   1   3     1.355582128298   124.62977820   357.59599889
 C      1   2   3     1.355546123926   124.62160127   177.56972785
 C      2   1   3     1.355563808831   124.62364954   177.56200688
 C      3   2   1     1.370826670960   172.75333140     8.90847460
 C      3   2   1     1.370815363532    80.36235659   181.15564598
 C      4   1   2     1.370777821536    80.36358993   181.14305473
 C      4   1   2     1.370782906164   172.74430185     9.13892315
 C      9   1   2     1.377588111167   125.66613610     2.25390691
 C     10   2   1     1.377579558700   125.66739448     2.25241290
 C     11   1   2     1.377584022390   125.67739340     2.30114869
 C     12   2   1     1.377579356145   125.67503938     2.29624379
 C     13   3  14     1.430916519652   109.64262364   359.95276415
 C     21  13   3     1.366983719650   106.94919461     0.12079397
 C     15   4   1     1.430996176158   109.64179711   181.00446043
 C     23  15   4     1.366947587917   106.94825517     0.12005675
 H      5   1   2     1.093619998274   117.48119229   285.29610054
 H      5   1   2     1.090336727187   129.77292185    74.83365878
 H      6   2   1     1.093624260422   117.45243435   285.29735237
 H      6   2   1     1.090329122694   129.79853465    74.83293182
 H      7   5   1     1.090334418898   113.35711182   126.06534071
 H      7   5   1     1.093615512790   111.83148131   247.14860792
 H      8   6   2     1.090336113225   113.35342562   126.07482105
 H      8   6   2     1.093607292633   111.83547187   247.16406460
 H     17   9   1     1.083342905325   116.30988331   179.63283291
 H     18  10   2     1.083341733356   116.31217148   179.64366974
 H     19  11   1     1.083340715870   116.31275699   179.62575756
 H     20  12   2     1.083340310464   116.31350810   179.62687671
 H     21  13   3     1.078925603982   125.08340360   180.05189031
 H     22  21  13     1.078925857550   127.96702129   179.92425103
 H     23  15   4     1.078923414896   125.06844783   180.04988392
 H     24  23  15     1.078926070118   127.98362874   179.91361688
 Mg     4   1   2     2.032731255388    46.24671301     0.00000000

---------------------------
INTERNAL COORDINATES (A.U.)
---------------------------
 N      0   0   0     0.000000000000     0.00000000     0.00000000
 N      1   0   0     8.022673726548     0.00000000     0.00000000
 N      2   1   0     5.553926605009    43.75967239     0.00000000
 N      1   2   3     5.554149016110    43.76187171   180.00255177
 C      1   2   3     4.479316139321   161.12036003   351.01820559
 C      2   1   3     4.479282713662   161.11898876   350.98604815
 C      5   1   2     2.899798355505    71.11414070   179.93485080
 C      6   2   1     2.899775759491    71.11492103   179.93600990
 C      1   2   3     2.561618351915   124.63056083   357.60358136
 C      2   1   3     2.561678974521   124.62977820   357.59599889
 C      1   2   3     2.561610936119   124.62160127   177.56972785
 C      2   1   3     2.561644355746   124.62364954   177.56200688
 C      3   2   1     2.590486985190   172.75333140     8.90847460
 C      3   2   1     2.590465617247    80.36235659   181.15564598
 C      4   1   2     2.590394673157    80.36358993   181.14305473
 C      4   1   2     2.590404281711   172.74430185     9.13892315
 C      9   1   2     2.603264255451   125.66613610     2.25390691
 C     10   2   1     2.603248093630   125.66739448     2.25241290
 C     11   1   2     2.603256528784   125.67739340     2.30114869
 C     12   2   1     2.603247710858   125.67503938     2.29624379
 C     13   3  14     2.704040342647   109.64262364   359.95276415
 C     21  13   3     2.583224859667   106.94919461     0.12079397
 C     15   4   1     2.704190871627   109.64179711   181.00446043
 C     23  15   4     2.583156580588   106.94825517     0.12005675
 H      5   1   2     2.066642291317   117.48119229   285.29610054
 H      5   1   2     2.060437808139   129.77292185    74.83365878
 H      6   2   1     2.066650345610   117.45243435   285.29735237
 H      6   2   1     2.060423437730   129.79853465    74.83293182
 H      7   5   1     2.060433446106   113.35711182   126.06534071
 H      7   5   1     2.066633814981   111.83148131   247.14860792
 H      8   6   2     2.060436647919   113.35342562   126.07482105
 H      8   6   2     2.066618281135   111.83547187   247.16406460
 H     17   9   1     2.047221400191   116.30988331   179.63283291
 H     18  10   2     2.047219185490   116.31217148   179.64366974
 H     19  11   1     2.047217262721   116.31275699   179.62575756
 H     20  12   2     2.047216496614   116.31350810   179.62687671
 H     21  13   3     2.038873910402   125.08340360   180.05189031
 H     22  21  13     2.038874389575   127.96702129   179.92425103
 H     23  15   4     2.038869773628   125.06844783   180.04988392
 H     24  23  15     2.038874791271   127.98362874   179.91361688
 Mg     4   1   2     3.841305376545    46.24671301     0.00000000

---------------------
BASIS SET INFORMATION
---------------------
There are 4 groups of distinct atoms

 Group   1 Type N   : 11s6p2d1f contracted to 5s3p2d1f pattern {62111/411/11/1}
 Group   2 Type C   : 11s6p2d1f contracted to 5s3p2d1f pattern {62111/411/11/1}
 Group   3 Type H   : 5s1p contracted to 3s1p pattern {311/1}
 Group   4 Type Mg  : 14s8p3d contracted to 5s4p3d pattern {73211/5111/111}

Atom   0N    basis set group =>   1
Atom   1N    basis set group =>   1
Atom   2N    basis set group =>   1
Atom   3N    basis set group =>   1
Atom   4C    basis set group =>   2
Atom   5C    basis set group =>   2
Atom   6C    basis set group =>   2
Atom   7C    basis set group =>   2
Atom   8C    basis set group =>   2
Atom   9C    basis set group =>   2
Atom  10C    basis set group =>   2
Atom  11C    basis set group =>   2
Atom  12C    basis set group =>   2
Atom  13C    basis set group =>   2
Atom  14C    basis set group =>   2
Atom  15C    basis set group =>   2
Atom  16C    basis set group =>   2
Atom  17C    basis set group =>   2
Atom  18C    basis set group =>   2
Atom  19C    basis set group =>   2
Atom  20C    basis set group =>   2
Atom  21C    basis set group =>   2
Atom  22C    basis set group =>   2
Atom  23C    basis set group =>   2
Atom  24H    basis set group =>   3
Atom  25H    basis set group =>   3
Atom  26H    basis set group =>   3
Atom  27H    basis set group =>   3
Atom  28H    basis set group =>   3
Atom  29H    basis set group =>   3
Atom  30H    basis set group =>   3
Atom  31H    basis set group =>   3
Atom  32H    basis set group =>   3
Atom  33H    basis set group =>   3
Atom  34H    basis set group =>   3
Atom  35H    basis set group =>   3
Atom  36H    basis set group =>   3
Atom  37H    basis set group =>   3
Atom  38H    basis set group =>   3
Atom  39H    basis set group =>   3
Atom  40Mg   basis set group =>   4
---------------------------------
AUXILIARY/J BASIS SET INFORMATION
---------------------------------
There are 4 groups of distinct atoms

 Group   1 Type N   : 12s5p4d2f1g contracted to 6s4p3d1f1g pattern {711111/2111/211/2/1}
 Group   2 Type C   : 12s5p4d2f1g contracted to 6s4p3d1f1g pattern {711111/2111/211/2/1}
 Group   3 Type H   : 5s2p1d contracted to 3s1p1d pattern {311/2/1}
 Group   4 Type Mg  : 14s5p5d2f1g contracted to 8s4p4d1f1g pattern {71111111/2111/2111/2/1}

Atom   0N    basis set group =>   1
Atom   1N    basis set group =>   1
Atom   2N    basis set group =>   1
Atom   3N    basis set group =>   1
Atom   4C    basis set group =>   2
Atom   5C    basis set group =>   2
Atom   6C    basis set group =>   2
Atom   7C    basis set group =>   2
Atom   8C    basis set group =>   2
Atom   9C    basis set group =>   2
Atom  10C    basis set group =>   2
Atom  11C    basis set group =>   2
Atom  12C    basis set group =>   2
Atom  13C    basis set group =>   2
Atom  14C    basis set group =>   2
Atom  15C    basis set group =>   2
Atom  16C    basis set group =>   2
Atom  17C    basis set group =>   2
Atom  18C    basis set group =>   2
Atom  19C    basis set group =>   2
Atom  20C    basis set group =>   2
Atom  21C    basis set group =>   2
Atom  22C    basis set group =>   2
Atom  23C    basis set group =>   2
Atom  24H    basis set group =>   3
Atom  25H    basis set group =>   3
Atom  26H    basis set group =>   3
Atom  27H    basis set group =>   3
Atom  28H    basis set group =>   3
Atom  29H    basis set group =>   3
Atom  30H    basis set group =>   3
Atom  31H    basis set group =>   3
Atom  32H    basis set group =>   3
Atom  33H    basis set group =>   3
Atom  34H    basis set group =>   3
Atom  35H    basis set group =>   3
Atom  36H    basis set group =>   3
Atom  37H    basis set group =>   3
Atom  38H    basis set group =>   3
Atom  39H    basis set group =>   3
Atom  40Mg   basis set group =>   4


           ************************************************************
           *        Program running with 4 parallel MPI-processes     *
           *              working on a common directory               *
           ************************************************************
------------------------------------------------------------------------------
                             ORCA STARTUP CALCULATIONS
                           -- RI-GTO INTEGRALS CHOSEN --
------------------------------------------------------------------------------
------------------------------------------------------------------------------
                   ___                                                        
                  /   \      - P O W E R E D   B Y -                         
                 /     \                                                     
                 |  |  |   _    _      __       _____    __    __             
                 |  |  |  | |  | |    /  \     |  _  \  |  |  /  |          
                  \  \/   | |  | |   /    \    | | | |  |  | /  /          
                 / \  \   | |__| |  /  /\  \   | |_| |  |  |/  /          
                |  |  |   |  __  | /  /__\  \  |    /   |      \           
                |  |  |   | |  | | |   __   |  |    \   |  |\   \          
                \     /   | |  | | |  |  |  |  | |\  \  |  | \   \       
                 \___/    |_|  |_| |__|  |__|  |_| \__\ |__|  \__/        
                                                                              
                      - O R C A' S   B I G   F R I E N D -                    
                                      &                                       
                       - I N T E G R A L  F E E D E R -                       
                                                                              
 v1 FN, 2020, v2 2021, v3 2022-2024                                           
------------------------------------------------------------------------------


----------------------
SHARK INTEGRAL PACKAGE
----------------------

Number of atoms                             ...     41
Number of basis functions                   ...    872
Number of shells                            ...    340
Maximum angular momentum                    ...      3
Integral batch strategy                     ... SHARK/LIBINT Hybrid
RI-J (if used) integral strategy            ... SPLIT-RIJ (Revised 2003 algorithm where possible)
Printlevel                                  ...      1
Contraction scheme used                     ... SEGMENTED contraction
Prescreening option                         ... SCHWARTZ
   Thresh                                   ... 2.500e-11
   Tcut                                     ... 2.500e-12
   Tpresel                                  ... 2.500e-12 
Coulomb Range Separation                    ... NOT USED
Exchange Range Separation                   ... Long Range
   Mu parameter                             ... 2.500e-01
   Scaling (regular/separated)              ... 1.957e-01 8.043e-01
Robust (split-)RI terms used:
  metric    (central integrals)             ... YES
  density   (r.h.s.  integrals)             ... YES
  potential (l.h.s.  integrals)             ... YES
Multipole approximations                    ... NOT USED
Finite Nucleus Model                        ... NOT USED
CABS basis                                  ... NOT available
Auxiliary Coulomb fitting basis             ... AVAILABLE
   # of basis functions in Aux-J            ...   1408
   # of shells in Aux-J                     ...    458
   Maximum angular momentum in Aux-J        ...      4
Auxiliary J/K fitting basis                 ... NOT available
Auxiliary Correlation fitting basis         ... NOT available
Auxiliary 'external' fitting basis          ... NOT available

Checking pre-screening integrals            ... done (  0.0 sec) Dimension = 340
   => SHARK Basis and OBASIS are compatible. Storing Pre-screening
Shell pair information
Shell pair cut-off parameter TPreSel        ...   2.5e-12
Total number of shell pairs                 ...     57970
Shell pairs after pre-screening             ...     40545
Total number of primitive shell pairs       ...    181512
Primitive shell pairs kept                  ...     83416
          la=0 lb=0:   9964 shell pairs
          la=1 lb=0:  11660 shell pairs
          la=1 lb=1:   3400 shell pairs
          la=2 lb=0:   5941 shell pairs
          la=2 lb=1:   3556 shell pairs
          la=2 lb=2:    970 shell pairs
          la=3 lb=0:   2548 shell pairs
          la=3 lb=1:   1556 shell pairs
          la=3 lb=2:    780 shell pairs
          la=3 lb=3:    170 shell pairs

Checking whether 4 symmetric matrices of dimension 872 fit in memory
:Max Core in MB      =   3000.00
 MB in use           =     52.70
 MB left             =   2947.30
 MB needed           =     11.62
 Data fit in memory  = YES
Calculating RI/J V-Matrix + Cholesky decomp.... done (  0.2 sec)
Calculating Nuclear repulsion               ... done (  0.0 sec) ENN=   2190.086224452672 Eh

Diagonalization of the overlap matrix:
Smallest eigenvalue                        ... 1.019e-05
Time for diagonalization                   ...    0.267 sec
Threshold for overlap eigenvalues          ... 1.000e-07
Number of eigenvalues below threshold      ... 0
Time for construction of square roots      ...    0.129 sec
Total time needed                          ...    0.407 sec

-------------------
DFT GRID GENERATION
-------------------

General Integration Accuracy     IntAcc      ... 4.959
Radial Grid Type                 RadialGrid  ... OptM3 with GC (2021)
Angular Grid (max. ang.)         AngularGrid ... 6 (Lebedev-590)
Angular grid pruning method      GridPruning ... 4 (adaptive)
Weight generation scheme         WeightScheme... mBecke (2022)
Basis function cutoff            BFCut       ... 1.0000e-11
Integration weight cutoff        WCut        ... 1.0000e-14
Partially contracted basis set               ... off
Rotationally invariant grid construction     ... off
Angular grids for H and He will be reduced by one unit

Total number of grid points                  ...   489901
Total number of batches                      ...     7676
Average number of points per batch           ...       63
Average number of grid points per atom       ...    11949

--------------------
COSX GRID GENERATION
--------------------

GRIDX 1
-------
General Integration Accuracy     IntAcc      ... 4.020
Radial Grid Type                 RadialGrid  ... OptM3 with GC (2021)
Angular Grid (max. ang.)         AngularGrid ... 2 (Lebedev-110)
Angular grid pruning method      GridPruning ... 4 (adaptive)
Weight generation scheme         WeightScheme... mBecke (2022)
Basis function cutoff            BFCut       ... 1.0000e-11
Integration weight cutoff        WCut        ... 1.0000e-14
Partially contracted basis set               ... on
Rotationally invariant grid construction     ... off
Angular grids for H and He will be reduced by one unit

Total number of grid points                  ...    55413
Total number of batches                      ...      455
Average number of points per batch           ...      121
Average number of grid points per atom       ...     1352
UseSFitting                                  ... on

GRIDX 2
-------
General Integration Accuracy     IntAcc      ... 4.338
Radial Grid Type                 RadialGrid  ... OptM3 with GC (2021)
Angular Grid (max. ang.)         AngularGrid ... 3 (Lebedev-194)
Angular grid pruning method      GridPruning ... 4 (adaptive)
Weight generation scheme         WeightScheme... mBecke (2022)
Basis function cutoff            BFCut       ... 1.0000e-11
Integration weight cutoff        WCut        ... 1.0000e-14
Partially contracted basis set               ... on
Rotationally invariant grid construction     ... off
Angular grids for H and He will be reduced by one unit

Total number of grid points                  ...   121895
Total number of batches                      ...      972
Average number of points per batch           ...      125
Average number of grid points per atom       ...     2973
UseSFitting                                  ... on

GRIDX 3
-------
General Integration Accuracy     IntAcc      ... 4.871
Radial Grid Type                 RadialGrid  ... OptM3 with GC (2021)
Angular Grid (max. ang.)         AngularGrid ... 4 (Lebedev-302)
Angular grid pruning method      GridPruning ... 4 (adaptive)
Weight generation scheme         WeightScheme... mBecke (2022)
Basis function cutoff            BFCut       ... 1.0000e-11
Integration weight cutoff        WCut        ... 1.0000e-14
Partially contracted basis set               ... on
Rotationally invariant grid construction     ... off
Angular grids for H and He will be reduced by one unit

Total number of grid points                  ...   225543
Total number of batches                      ...     1784
Average number of points per batch           ...      126
Average number of grid points per atom       ...     5501
UseSFitting                                  ... on
Grids setup in  25.5 sec
Initializing property integral containers    ... done (  0.0 sec)

SHARK setup successfully completed in  28.0 seconds

Maximum memory used throughout the entire STARTUP-calculation: 159.8 MB


           ************************************************************
           *        Program running with 4 parallel MPI-processes     *
           *              working on a common directory               *
           ************************************************************
-------------------------------------------------------------------------------
                                 ORCA GUESS
                   Start orbitals & Density for SCF / CASSCF
-------------------------------------------------------------------------------

------------
SCF SETTINGS
------------
Hamiltonian:
 Density Functional     Method          .... DFT(GTOs)
 Exchange Functional    Exchange        .... WB97X-D3
 Correlation Functional Correlation     .... WB97X-D3
 Gradients option       PostSCFGGA      .... off
 Hybrid DFT is turned on
   Fraction HF Exchange ScalHFX         ....  0.195728
   Scaling of DF-GGA-X  ScalDFX         ....  0.000000
   Scaling of DF-GGA-C  ScalDFC         ....  1.000000
   Scaling of DF-LDA-C  ScalLDAC        ....  1.000000
   Perturbative correction              ....  0.000000
 Long-range corrected/Screened/Range-Separated Hybrid DFT is turned on
   Amount of maximum screened exact exchange              ....  0.804272
   Range separation parameter mu (erf(mu*r12)/r12)        ....  0.250000
 RI-approximation to the Coulomb term is turned on
   Number of AuxJ basis functions       .... 1408
   RIJ-COSX (HFX calculated with COS-X)).... on


General Settings:
 Integral files         IntName         .... tddft
 Hartree-Fock type      HFTyp           .... RHF
 Total Charge           Charge          ....    0
 Multiplicity           Mult            ....    1
 Number of Electrons    NEL             ....  176
 Basis Dimension        Dim             ....  872
 Nuclear Repulsion      ENuc            ....   2190.0862244527 Eh

Convergence Acceleration:
 AO-DIIS                CNVDIIS         .... on
   Start iteration      DIISMaxIt       ....    12
   Startup error        DIISStart       ....  0.200000
   # of expansion vecs  DIISMaxEq       ....     5
   Bias factor          DIISBfac        ....   1.050
   Max. coefficient     DIISMaxC        ....  10.000
 MO-DIIS                CNVKDIIS        .... off
 Trust-Rad. Augm. Hess. CNVTRAH         .... auto
   Auto Start mean grad. ratio tolernc. ....  1.125000
   Auto Start start iteration           ....    50
   Auto Start num. interpolation iter.  ....    10
   Max. Number of Micro iterations      ....    24
   Max. Number of Macro iterations      .... Maxiter - #DIIS iter
   Number of Davidson start vectors     ....     2
   Converg. threshold    (grad. norm)   ....   1.000e-05
   Grad. Scal. Fac. for Micro threshold ....   0.100
   Minimum threshold for Micro iter.    ....   1.000e-02
   NR start threshold (gradient norm)   ....   1.000e-04
   Initial trust radius                 ....   0.400
   Minimum AH scaling param. (alpha)    ....   1.000
   Maximum AH scaling param. (alpha)    .... 1000.000
   Quad. conv. algorithm                .... NR
   White noise on init. David. guess    .... on
   Maximum white noise                  ....   0.010
   Pseudo random numbers                .... off
   Inactive MOs                         .... canonical
   Orbital update algorithm             .... Taylor
   Preconditioner                       .... Diag
   Full preconditioner red. dimension   ....   250
 SOSCF                 CNVSOSCF           .... on
   Start iteration     SOSCFMaxIt         ....   150
   Startup grad/error  SOSCFStart         ....  0.003300
   Hessian update      SOSCFHessUp        .... L-BFGS
   Autom. constraints  SOSCFAutoConstrain .... off
 Level Shifting         CNVShift        .... on
   Level shift para.    LevelShift      ....    0.2500
   Turn off err/grad.   ShiftErr        ....    0.0010
 Zerner damping         CNVZerner       .... off
 Static damping         CNVDamp         .... on
   Fraction old density DampFac         ....    0.7000
   Max. Damping (<1)    DampMax         ....    0.9800
   Min. Damping (>=0)   DampMin         ....    0.0000
   Turn off err/grad.   DampErr         ....    0.1000

SCF Procedure:
 Maximum # iterations   MaxIter         ....   125
 SCF integral mode      SCFMode         .... Direct
   Integral package                     .... SHARK and LIBINT hybrid scheme
 Reset frequency        DirectResetFreq ....    20
 Integral Threshold     Thresh          ....  2.500e-11 Eh
 Primitive CutOff       TCut            ....  2.500e-12 Eh

Convergence Tolerance:
 Convergence Check Mode ConvCheckMode   .... Total+1el-Energy
 Convergence forced     ConvForced      .... 1
 Energy Change          TolE            ....  1.000e-08 Eh
 1-El. energy change                    ....  1.000e-05 Eh
 Orbital Gradient       TolG            ....  1.000e-05
 Orbital Rotation angle TolX            ....  1.000e-05
 DIIS Error             TolErr          ....  5.000e-07

------------------------------
INITIAL GUESS: MODEL POTENTIAL
------------------------------
Loading Hartree-Fock densities                     ... done
Calculating cut-offs                               ... done
Initializing the effective Hamiltonian             ... done
Setting up the integral package (SHARK)            ... done
Starting the Coulomb interaction                   ... done (   2.7 sec)
Making the grid                                    ... done (   1.1 sec)
Mapping shells                                     ... done
Starting the XC term evaluation                    ... done (   3.0 sec)
  promolecular density results
     # of electrons  =    176.013752315
     EX              =   -149.316411799
     EC              =     -5.985031575
     EX+EC           =   -155.301443373
Transforming the Hamiltonian                       ... done (   0.2 sec)
Diagonalizing the Hamiltonian                      ... done (   0.3 sec)
Back transforming the eigenvectors                 ... done (   0.1 sec)
Now organizing SCF variables                       ... done
                      ------------------
                      INITIAL GUESS DONE (   7.5 sec)
                      ------------------
             **** ENERGY FILE WAS UPDATED (tddft.en.tmp) ****
Finished Guess after   8.1 sec
Maximum memory used throughout the entire GUESS-calculation: 88.7 MB


           ************************************************************
           *        Program running with 4 parallel MPI-processes     *
           *              working on a common directory               *
           ************************************************************

-------------------------------------------------------------------------------------------
                                      ORCA LEAN-SCF
                              memory conserving SCF solver
-------------------------------------------------------------------------------------------

--------------------
CPCM SOLVATION MODEL
--------------------
CPCM parameters:
  Epsilon                                         ...       8.9990
  Refrac                                          ...       1.4242
  Rsolv                                           ...       1.3000
  Surface type                                    ... GAUSSIAN VDW
  Discretization scheme                           ... Constant charge density
    Threshold for H atoms                         ...       5.0000 (charges/Ang^2)
    Threshold for non-H atoms                     ...       5.0000 (charges/Ang^2)
  Epsilon function type                           ...         CPCM
Solvent:                                          ... DICHLOROMETHANE
Radii:
  Scheme                                          ... Element-dependent radii
  Radius for N  used is    3.5149 Bohr (=   1.8600 Ang.)
  Radius for C  used is    3.8550 Bohr (=   2.0400 Ang.)
  Radius for H  used is    2.4944 Bohr (=   1.3200 Ang.)
  Radius for Mg used is    3.9231 Bohr (=   2.0760 Ang.)
Calculating surface                               ...        done! (  0.0s)
Cavity surface points                             ...         3647
Cavity Volume                                     ...    2544.6779
Cavity Surface-area                               ...    1209.7494
Calculating surface distance matrix               ...        done! (  0.4s)
Performing Cholesky decomposition & store         ...        done! (  1.8s)
Overall time for CPCM initialization              ...                 2.2s

----------------------------------------D-I-I-S--------------------------------------------
Iteration    Energy (Eh)           Delta-E    RMSDP     MaxDP     DIISErr   Damp  Time(sec)
-------------------------------------------------------------------------------------------
               ***  Starting incremental Fock matrix formation  ***
    1    -1190.4926153265041648     0.00e+00  1.60e-03  3.59e-02  2.24e-01  0.700 242.5
    2    -1190.7047273107277761    -2.12e-01  1.30e-03  2.42e-02  1.24e-01  0.700 102.5
                               ***Turning on AO-DIIS***
    3    -1190.8185920026403437    -1.14e-01  8.27e-04  1.71e-02  5.72e-02  0.700 109.5
    4    -1190.8872063233916379    -6.86e-02  1.87e-03  3.72e-02  4.02e-02  0.000  91.5
    5    -1191.0342142889867318    -1.47e-01  2.09e-04  6.14e-03  3.92e-03  0.000  88.8
                              *** Initializing SOSCF ***
---------------------------------------S-O-S-C-F--------------------------------------
Iteration    Energy (Eh)           Delta-E    RMSDP     MaxDP     MaxGrad    Time(sec)
--------------------------------------------------------------------------------------
    6    -1191.0346113538298596    -3.97e-04  9.19e-05  3.06e-03  2.83e-03   108.4
               *** Restarting incremental Fock matrix formation ***
    7    -1191.0346967124846742    -8.54e-05  7.88e-05  2.19e-03  1.03e-03   211.2
    8    -1191.0347329345745493    -3.62e-05  5.10e-05  1.09e-03  4.98e-04   175.7
    9    -1191.0347403467694676    -7.41e-06  1.04e-05  2.25e-04  1.17e-04   134.8
   10    -1191.0347414292245958    -1.08e-06  5.98e-06  1.36e-04  8.26e-05   107.4
   11    -1191.0347417660432257    -3.37e-07  4.51e-06  1.34e-04  1.24e-05   122.7
   12    -1191.0347417991602015    -3.31e-08  4.90e-06  1.38e-04  8.31e-06   103.1
   13    -1191.0347417650918942     3.41e-08  6.69e-06  2.78e-04  1.31e-06    96.7
                  *** Gradient check signals convergence ***

               *****************************************************
               *                     SUCCESS                       *
               *           SCF CONVERGED AFTER  13 CYCLES          *
               *****************************************************

Recomputing exchange energy using gridx3       ... done (  313.882 sec)
Old exchange energy                            :    -48.627761052 Eh
New exchange energy                            :    -48.627754454 Eh
Exchange energy change after final integration :      0.000006598 Eh
Total energy after final integration           :  -1191.034735154 Eh
             **** ENERGY FILE WAS UPDATED (tddft.en.tmp) ****

----------------
TOTAL SCF ENERGY
----------------

Total Energy       :      -1191.03473515430460 Eh          -32409.70282 eV

Components:
Nuclear Repulsion  :       2190.08622445267247 Eh           59595.27593 eV
Electronic Energy  :      -3381.10538261545253 Eh          -92004.55488 eV
One Electron Energy:      -5979.00543170939090 Eh         -162697.00915 eV
Two Electron Energy:       2597.90004909393838 Eh           70692.45427 eV
CPCM Dielectric    :         -0.01558358977709 Eh              -0.42405 eV

Virial components:
Potential Energy   :      -2376.81028602171136 Eh          -64676.29596 eV
Kinetic Energy     :       1185.77555086740699 Eh           32266.59314 eV
Virial Ratio       :          2.00443522746193

DFT components:
N(Alpha)           :       87.999995930931 electrons
N(Beta)            :       87.999995930931 electrons
N(Total)           :      175.999991861863 electrons
E(XC)              :     -110.239420464762 Eh       

CPCM Solvation Model Properties:
Surface-charge          :         -0.03789325405105
Corrected charge        :         -0.00000000000000
Outlying charge corr.   :          0.00006778400636 Eh               0.00184 eV
Free-energy (cav+disp)  :  This term is not implemented in the current solvation scheme

---------------
SCF CONVERGENCE
---------------

  Last Energy change         ...   -3.4068e-08  Tolerance :   1.0000e-08
  Last MAX-Density change    ...    2.7816e-04  Tolerance :   1.0000e-07
  Last RMS-Density change    ...    6.6878e-06  Tolerance :   5.0000e-09
  Last DIIS Error            ...    2.8290e-03  Tolerance :   5.0000e-07
  Last Orbital Gradient      ...    1.3089e-06  Tolerance :   1.0000e-05
  Last Orbital Rotation      ...    3.9034e-06  Tolerance :   1.0000e-05


----------------
ORBITAL ENERGIES
----------------

  NO   OCC          E(Eh)            E(eV) 
   0   2.0000     -46.859511     -1275.1121 
   1   2.0000     -14.430911      -392.6851 
   2   2.0000     -14.430907      -392.6850 
   3   2.0000     -14.403546      -391.9404 
   4   2.0000     -14.403530      -391.9400 
   5   2.0000     -10.315998      -280.7126 
   6   2.0000     -10.315989      -280.7123 
   7   2.0000     -10.315956      -280.7114 
   8   2.0000     -10.315948      -280.7112 
   9   2.0000     -10.305092      -280.4158 
  10   2.0000     -10.305057      -280.4149 
  11   2.0000     -10.305054      -280.4148 
  12   2.0000     -10.305019      -280.4138 
  13   2.0000     -10.277636      -279.6687 
  14   2.0000     -10.277632      -279.6686 
  15   2.0000     -10.277443      -279.6634 
  16   2.0000     -10.277439      -279.6633 
  17   2.0000     -10.272432      -279.5271 
  18   2.0000     -10.272427      -279.5269 
  19   2.0000     -10.272424      -279.5269 
  20   2.0000     -10.272419      -279.5267 
  21   2.0000     -10.270336      -279.4700 
  22   2.0000     -10.270293      -279.4689 
  23   2.0000     -10.269644      -279.4512 
  24   2.0000     -10.269601      -279.4500 
  25   2.0000      -3.168823       -86.2281 
  26   2.0000      -1.906841       -51.8878 
  27   2.0000      -1.901608       -51.7454 
  28   2.0000      -1.900591       -51.7177 
  29   2.0000      -1.079707       -29.3803 
  30   2.0000      -1.073859       -29.2212 
  31   2.0000      -1.066278       -29.0149 
  32   2.0000      -1.059478       -28.8299 
  33   2.0000      -0.929666       -25.2975 
  34   2.0000      -0.905615       -24.6430 
  35   2.0000      -0.897452       -24.4209 
  36   2.0000      -0.885326       -24.0909 
  37   2.0000      -0.883550       -24.0426 
  38   2.0000      -0.873066       -23.7573 
  39   2.0000      -0.872549       -23.7433 
  40   2.0000      -0.846589       -23.0368 
  41   2.0000      -0.830646       -22.6030 
  42   2.0000      -0.769218       -20.9315 
  43   2.0000      -0.761024       -20.7085 
  44   2.0000      -0.724411       -19.7122 
  45   2.0000      -0.702955       -19.1284 
  46   2.0000      -0.674746       -18.3608 
  47   2.0000      -0.674405       -18.3515 
  48   2.0000      -0.671411       -18.2700 
  49   2.0000      -0.660770       -17.9805 
  50   2.0000      -0.636457       -17.3189 
  51   2.0000      -0.622985       -16.9523 
  52   2.0000      -0.609990       -16.5987 
  53   2.0000      -0.604062       -16.4374 
  54   2.0000      -0.598148       -16.2764 
  55   2.0000      -0.585760       -15.9393 
  56   2.0000      -0.577174       -15.7057 
  57   2.0000      -0.574504       -15.6330 
  58   2.0000      -0.535312       -14.5666 
  59   2.0000      -0.534843       -14.5538 
  60   2.0000      -0.517510       -14.0822 
  61   2.0000      -0.517079       -14.0704 
  62   2.0000      -0.513636       -13.9768 
  63   2.0000      -0.499165       -13.5830 
  64   2.0000      -0.498819       -13.5736 
  65   2.0000      -0.495980       -13.4963 
  66   2.0000      -0.481211       -13.0944 
  67   2.0000      -0.474013       -12.8986 
  68   2.0000      -0.471813       -12.8387 
  69   2.0000      -0.470861       -12.8128 
  70   2.0000      -0.466809       -12.7025 
  71   2.0000      -0.458356       -12.4725 
  72   2.0000      -0.456516       -12.4224 
  73   2.0000      -0.455625       -12.3982 
  74   2.0000      -0.450653       -12.2629 
  75   2.0000      -0.450621       -12.2620 
  76   2.0000      -0.448018       -12.1912 
  77   2.0000      -0.442551       -12.0424 
  78   2.0000      -0.405971       -11.0470 
  79   2.0000      -0.401933       -10.9371 
  80   2.0000      -0.400142       -10.8884 
  81   2.0000      -0.375219       -10.2102 
  82   2.0000      -0.361409        -9.8344 
  83   2.0000      -0.347208        -9.4480 
  84   2.0000      -0.338874        -9.2212 
  85   2.0000      -0.329126        -8.9560 
  86   2.0000      -0.262682        -7.1480 
  87   2.0000      -0.220432        -5.9983 
  88   0.0000      -0.051043        -1.3889 
  89   0.0000       0.020149         0.5483 
  90   0.0000       0.069134         1.8812 
  91   0.0000       0.094751         2.5783 
  92   0.0000       0.095629         2.6022 
  93   0.0000       0.109753         2.9865 
  94   0.0000       0.117099         3.1864 
  95   0.0000       0.118179         3.2158 
  96   0.0000       0.135790         3.6950 
  97   0.0000       0.136661         3.7187 
  98   0.0000       0.147037         4.0011 
*Only the first 10 virtual orbitals were printed.

                    ********************************
                    * MULLIKEN POPULATION ANALYSIS *
                    ********************************

-----------------------
MULLIKEN ATOMIC CHARGES
-----------------------
   0 N :   -0.397946
   1 N :   -0.397731
   2 N :   -0.433335
   3 N :   -0.433289
   4 C :   -0.164236
   5 C :   -0.164634
   6 C :   -0.164500
   7 C :   -0.164227
   8 C :    0.187611
   9 C :    0.187994
  10 C :    0.188045
  11 C :    0.187646
  12 C :    0.281631
  13 C :    0.281710
  14 C :    0.281741
  15 C :    0.281656
  16 C :   -0.413617
  17 C :   -0.413773
  18 C :   -0.413815
  19 C :   -0.413730
  20 C :   -0.254855
  21 C :   -0.254719
  22 C :   -0.254851
  23 C :   -0.254551
  24 H :    0.122836
  25 H :    0.136746
  26 H :    0.122837
  27 H :    0.136800
  28 H :    0.136772
  29 H :    0.122861
  30 H :    0.136756
  31 H :    0.122866
  32 H :    0.156437
  33 H :    0.156437
  34 H :    0.156457
  35 H :    0.156450
  36 H :    0.155502
  37 H :    0.155534
  38 H :    0.155575
  39 H :    0.155568
  40 Mg:    0.829344
Sum of atomic charges:    0.0000000

--------------------------------
MULLIKEN REDUCED ORBITAL CHARGES
--------------------------------
  0 N s       :     3.666333  s :     3.666333
      pz      :     1.276810  p :     3.664154
      px      :     1.334623
      py      :     1.052722
      dz2     :     0.004556  d :     0.063824
      dxz     :     0.005849
      dyz     :     0.016152
      dx2y2   :     0.017292
      dxy     :     0.019976
      f0      :     0.000667  f :     0.003635
      f+1     :     0.000258
      f-1     :     0.000390
      f+2     :     0.000101
      f-2     :     0.000569
      f+3     :     0.000596
      f-3     :     0.001054

  1 N s       :     3.666267  s :     3.666267
      pz      :     1.276947  p :     3.664011
      px      :     1.334412
      py      :     1.052651
      dz2     :     0.004555  d :     0.063819
      dxz     :     0.005845
      dyz     :     0.016152
      dx2y2   :     0.017294
      dxy     :     0.019972
      f0      :     0.000667  f :     0.003634
      f+1     :     0.000258
      f-1     :     0.000390
      f+2     :     0.000101
      f-2     :     0.000569
      f+3     :     0.000596
      f-3     :     0.001054

  2 N s       :     3.657220  s :     3.657220
      pz      :     1.400187  p :     3.713112
      px      :     1.043865
      py      :     1.269060
      dz2     :     0.004627  d :     0.059356
      dxz     :     0.013901
      dyz     :     0.005282
      dx2y2   :     0.016997
      dxy     :     0.018549
      f0      :     0.000678  f :     0.003647
      f+1     :     0.000427
      f-1     :     0.000327
      f+2     :     0.000074
      f-2     :     0.000628
      f+3     :     0.000940
      f-3     :     0.000573

  3 N s       :     3.657227  s :     3.657227
      pz      :     1.400477  p :     3.713058
      px      :     1.043547
      py      :     1.269033
      dz2     :     0.004608  d :     0.059358
      dxz     :     0.013915
      dyz     :     0.005271
      dx2y2   :     0.017007
      dxy     :     0.018557
      f0      :     0.000680  f :     0.003647
      f+1     :     0.000426
      f-1     :     0.000327
      f+2     :     0.000072
      f-2     :     0.000628
      f+3     :     0.000941
      f-3     :     0.000573

  4 C s       :     3.154921  s :     3.154921
      pz      :     1.058062  p :     2.924464
      px      :     0.914941
      py      :     0.951461
      dz2     :     0.006521  d :     0.079325
      dxz     :     0.015144
      dyz     :     0.016233
      dx2y2   :     0.016895
      dxy     :     0.024532
      f0      :     0.000711  f :     0.005525
      f+1     :     0.000592
      f-1     :     0.000513
      f+2     :     0.000794
      f-2     :     0.000326
      f+3     :     0.001521
      f-3     :     0.001069

  5 C s       :     3.155413  s :     3.155413
      pz      :     1.058042  p :     2.924363
      px      :     0.915090
      py      :     0.951232
      dz2     :     0.006535  d :     0.079333
      dxz     :     0.015135
      dyz     :     0.016230
      dx2y2   :     0.016892
      dxy     :     0.024540
      f0      :     0.000712  f :     0.005525
      f+1     :     0.000593
      f-1     :     0.000511
      f+2     :     0.000793
      f-2     :     0.000327
      f+3     :     0.001523
      f-3     :     0.001067

  6 C s       :     3.155191  s :     3.155191
      pz      :     1.057908  p :     2.924449
      px      :     0.915260
      py      :     0.951280
      dz2     :     0.006381  d :     0.079334
      dxz     :     0.015288
      dyz     :     0.016262
      dx2y2   :     0.016889
      dxy     :     0.024515
      f0      :     0.000691  f :     0.005525
      f+1     :     0.000606
      f-1     :     0.000520
      f+2     :     0.000797
      f-2     :     0.000322
      f+3     :     0.001525
      f-3     :     0.001064

  7 C s       :     3.154903  s :     3.154903
      pz      :     1.057917  p :     2.924460
      px      :     0.915129
      py      :     0.951414
      dz2     :     0.006390  d :     0.079338
      dxz     :     0.015285
      dyz     :     0.016258
      dx2y2   :     0.016892
      dxy     :     0.024512
      f0      :     0.000691  f :     0.005525
      f+1     :     0.000604
      f-1     :     0.000522
      f+2     :     0.000798
      f-2     :     0.000321
      f+3     :     0.001523
      f-3     :     0.001066

  8 C s       :     3.124292  s :     3.124292
      pz      :     0.904531  p :     2.519529
      px      :     0.853250
      py      :     0.761748
      dz2     :     0.002000  d :     0.154557
      dxz     :     0.021685
      dyz     :     0.040623
      dx2y2   :     0.047801
      dxy     :     0.042448
      f0      :     0.002067  f :     0.014011
      f+1     :     0.000942
      f-1     :     0.000948
      f+2     :     0.001254
      f-2     :     0.001558
      f+3     :     0.002434
      f-3     :     0.004808

  9 C s       :     3.124152  s :     3.124152
      pz      :     0.904519  p :     2.519273
      px      :     0.852652
      py      :     0.762103
      dz2     :     0.002005  d :     0.154571
      dxz     :     0.021695
      dyz     :     0.040622
      dx2y2   :     0.047798
      dxy     :     0.042451
      f0      :     0.002067  f :     0.014010
      f+1     :     0.000943
      f-1     :     0.000947
      f+2     :     0.001251
      f-2     :     0.001561
      f+3     :     0.002447
      f-3     :     0.004794

 10 C s       :     3.124101  s :     3.124101
      pz      :     0.904518  p :     2.519288
      px      :     0.852674
      py      :     0.762097
      dz2     :     0.001840  d :     0.154555
      dxz     :     0.021764
      dyz     :     0.040612
      dx2y2   :     0.047891
      dxy     :     0.042448
      f0      :     0.002073  f :     0.014010
      f+1     :     0.000935
      f-1     :     0.000945
      f+2     :     0.001251
      f-2     :     0.001561
      f+3     :     0.002448
      f-3     :     0.004797

 11 C s       :     3.124257  s :     3.124257
      pz      :     0.904507  p :     2.519509
      px      :     0.853230
      py      :     0.761772
      dz2     :     0.001836  d :     0.154577
      dxz     :     0.021755
      dyz     :     0.040626
      dx2y2   :     0.047893
      dxy     :     0.042465
      f0      :     0.002073  f :     0.014011
      f+1     :     0.000935
      f-1     :     0.000945
      f+2     :     0.001254
      f-2     :     0.001558
      f+3     :     0.002435
      f-3     :     0.004810

 12 C s       :     3.108395  s :     3.108395
      pz      :     0.920747  p :     2.439207
      px      :     0.732416
      py      :     0.786044
      dz2     :     0.002811  d :     0.156294
      dxz     :     0.038227
      dyz     :     0.029951
      dx2y2   :     0.044427
      dxy     :     0.040877
      f0      :     0.002240  f :     0.014473
      f+1     :     0.001056
      f-1     :     0.000877
      f+2     :     0.000863
      f-2     :     0.002168
      f+3     :     0.004482
      f-3     :     0.002787

 13 C s       :     3.108280  s :     3.108280
      pz      :     0.920730  p :     2.439239
      px      :     0.732296
      py      :     0.786213
      dz2     :     0.002810  d :     0.156298
      dxz     :     0.038238
      dyz     :     0.029943
      dx2y2   :     0.044423
      dxy     :     0.040884
      f0      :     0.002240  f :     0.014473
      f+1     :     0.001057
      f-1     :     0.000877
      f+2     :     0.000868
      f-2     :     0.002163
      f+3     :     0.004497
      f-3     :     0.002771

 14 C s       :     3.108350  s :     3.108350
      pz      :     0.920767  p :     2.439115
      px      :     0.732191
      py      :     0.786158
      dz2     :     0.002722  d :     0.156318
      dxz     :     0.038354
      dyz     :     0.029928
      dx2y2   :     0.044418
      dxy     :     0.040897
      f0      :     0.002247  f :     0.014475
      f+1     :     0.001049
      f-1     :     0.000875
      f+2     :     0.000864
      f-2     :     0.002164
      f+3     :     0.004503
      f-3     :     0.002773

 15 C s       :     3.108387  s :     3.108387
      pz      :     0.920754  p :     2.439176
      px      :     0.732306
      py      :     0.786116
      dz2     :     0.002728  d :     0.156307
      dxz     :     0.038344
      dyz     :     0.029938
      dx2y2   :     0.044402
      dxy     :     0.040895
      f0      :     0.002247  f :     0.014474
      f+1     :     0.001048
      f-1     :     0.000875
      f+2     :     0.000860
      f-2     :     0.002168
      f+3     :     0.004487
      f-3     :     0.002788

 16 C s       :     3.317889  s :     3.317889
      pz      :     1.066116  p :     3.014676
      px      :     0.960469
      py      :     0.988091
      dz2     :     0.002682  d :     0.073699
      dxz     :     0.014723
      dyz     :     0.015591
      dx2y2   :     0.008052
      dxy     :     0.032651
      f0      :     0.001523  f :     0.007353
      f+1     :     0.000685
      f-1     :     0.000674
      f+2     :     0.000829
      f-2     :     0.000431
      f+3     :     0.001521
      f-3     :     0.001689

 17 C s       :     3.317967  s :     3.317967
      pz      :     1.066156  p :     3.014745
      px      :     0.960721
      py      :     0.987868
      dz2     :     0.002682  d :     0.073708
      dxz     :     0.014675
      dyz     :     0.015637
      dx2y2   :     0.008060
      dxy     :     0.032655
      f0      :     0.001523  f :     0.007353
      f+1     :     0.000685
      f-1     :     0.000674
      f+2     :     0.000829
      f-2     :     0.000431
      f+3     :     0.001528
      f-3     :     0.001682

 18 C s       :     3.317980  s :     3.317980
      pz      :     1.066350  p :     3.014801
      px      :     0.960522
      py      :     0.987929
      dz2     :     0.002665  d :     0.073680
      dxz     :     0.014699
      dyz     :     0.015616
      dx2y2   :     0.008040
      dxy     :     0.032661
      f0      :     0.001526  f :     0.007353
      f+1     :     0.000682
      f-1     :     0.000677
      f+2     :     0.000829
      f-2     :     0.000427
      f+3     :     0.001529
      f-3     :     0.001683

 19 C s       :     3.317893  s :     3.317893
      pz      :     1.066392  p :     3.014814
      px      :     0.960343
      py      :     0.988079
      dz2     :     0.002667  d :     0.073670
      dxz     :     0.014745
      dyz     :     0.015568
      dx2y2   :     0.008025
      dxy     :     0.032665
      f0      :     0.001526  f :     0.007353
      f+1     :     0.000682
      f-1     :     0.000677
      f+2     :     0.000829
      f-2     :     0.000427
      f+3     :     0.001522
      f-3     :     0.001690

 20 C s       :     3.274571  s :     3.274571
      pz      :     1.017306  p :     2.888557
      px      :     0.954351
      py      :     0.916901
      dz2     :     0.004836  d :     0.083910
      dxz     :     0.019970
      dyz     :     0.010588
      dx2y2   :     0.018586
      dxy     :     0.029930
      f0      :     0.001542  f :     0.007817
      f+1     :     0.000615
      f-1     :     0.000750
      f+2     :     0.001189
      f-2     :     0.000230
      f+3     :     0.001213
      f-3     :     0.002278

 21 C s       :     3.274411  s :     3.274411
      pz      :     1.017320  p :     2.888587
      px      :     0.954431
      py      :     0.916836
      dz2     :     0.004835  d :     0.083903
      dxz     :     0.019942
      dyz     :     0.010615
      dx2y2   :     0.018596
      dxy     :     0.029915
      f0      :     0.001542  f :     0.007817
      f+1     :     0.000616
      f-1     :     0.000749
      f+2     :     0.001193
      f-2     :     0.000226
      f+3     :     0.001216
      f-3     :     0.002275

 22 C s       :     3.274547  s :     3.274547
      pz      :     1.017264  p :     2.888579
      px      :     0.954438
      py      :     0.916877
      dz2     :     0.004799  d :     0.083909
      dxz     :     0.019977
      dyz     :     0.010598
      dx2y2   :     0.018601
      dxy     :     0.029934
      f0      :     0.001547  f :     0.007817
      f+1     :     0.000608
      f-1     :     0.000750
      f+2     :     0.001195
      f-2     :     0.000223
      f+3     :     0.001215
      f-3     :     0.002278

 23 C s       :     3.274244  s :     3.274244
      pz      :     1.017272  p :     2.888585
      px      :     0.954334
      py      :     0.916979
      dz2     :     0.004798  d :     0.083906
      dxz     :     0.020004
      dyz     :     0.010571
      dx2y2   :     0.018582
      dxy     :     0.029951
      f0      :     0.001548  f :     0.007816
      f+1     :     0.000607
      f-1     :     0.000751
      f+2     :     0.001192
      f-2     :     0.000226
      f+3     :     0.001212
      f-3     :     0.002281

 24 H s       :     0.855217  s :     0.855217
      pz      :     0.011551  p :     0.021947
      px      :     0.005649
      py      :     0.004746

 25 H s       :     0.841512  s :     0.841512
      pz      :     0.007870  p :     0.021742
      px      :     0.007202
      py      :     0.006670

 26 H s       :     0.855216  s :     0.855216
      pz      :     0.011556  p :     0.021947
      px      :     0.005650
      py      :     0.004741

 27 H s       :     0.841459  s :     0.841459
      pz      :     0.007865  p :     0.021742
      px      :     0.007216
      py      :     0.006661

 28 H s       :     0.841486  s :     0.841486
      pz      :     0.007970  p :     0.021742
      px      :     0.007112
      py      :     0.006659

 29 H s       :     0.855192  s :     0.855192
      pz      :     0.011451  p :     0.021947
      px      :     0.005752
      py      :     0.004743

 30 H s       :     0.841502  s :     0.841502
      pz      :     0.007968  p :     0.021742
      px      :     0.007103
      py      :     0.006670

 31 H s       :     0.855187  s :     0.855187
      pz      :     0.011454  p :     0.021947
      px      :     0.005746
      py      :     0.004747

 32 H s       :     0.820917  s :     0.820917
      pz      :     0.005264  p :     0.022646
      px      :     0.008515
      py      :     0.008867

 33 H s       :     0.820918  s :     0.820918
      pz      :     0.005264  p :     0.022646
      px      :     0.008535
      py      :     0.008847

 34 H s       :     0.820897  s :     0.820897
      pz      :     0.005259  p :     0.022646
      px      :     0.008541
      py      :     0.008847

 35 H s       :     0.820904  s :     0.820904
      pz      :     0.005259  p :     0.022647
      px      :     0.008520
      py      :     0.008867

 36 H s       :     0.822450  s :     0.822450
      pz      :     0.004728  p :     0.022048
      px      :     0.007298
      py      :     0.010022

 37 H s       :     0.822418  s :     0.822418
      pz      :     0.004728  p :     0.022048
      px      :     0.007317
      py      :     0.010003

 38 H s       :     0.822378  s :     0.822378
      pz      :     0.004725  p :     0.022047
      px      :     0.007322
      py      :     0.010000

 39 H s       :     0.822385  s :     0.822385
      pz      :     0.004725  p :     0.022047
      px      :     0.007303
      py      :     0.010019

 40 Mgs       :     4.503363  s :     4.503363
      pz      :     2.071327  p :     6.414671
      px      :     2.156177
      py      :     2.187166
      dz2     :     0.032990  d :     0.252622
      dxz     :     0.012121
      dyz     :     0.030117
      dx2y2   :     0.169672
      dxy     :     0.007722



                     *******************************
                     * LOEWDIN POPULATION ANALYSIS *
                     *******************************

----------------------
LOEWDIN ATOMIC CHARGES
----------------------
   0 N :    0.196306
   1 N :    0.196298
   2 N :    0.151930
   3 N :    0.151966
   4 C :   -0.193230
   5 C :   -0.193230
   6 C :   -0.193219
   7 C :   -0.193212
   8 C :   -0.201373
   9 C :   -0.201344
  10 C :   -0.201318
  11 C :   -0.201289
  12 C :   -0.216127
  13 C :   -0.216121
  14 C :   -0.216078
  15 C :   -0.216066
  16 C :   -0.129057
  17 C :   -0.129069
  18 C :   -0.129070
  19 C :   -0.129083
  20 C :   -0.133831
  21 C :   -0.133834
  22 C :   -0.133743
  23 C :   -0.133748
  24 H :    0.149513
  25 H :    0.146326
  26 H :    0.149527
  27 H :    0.146321
  28 H :    0.146329
  29 H :    0.149514
  30 H :    0.146333
  31 H :    0.149513
  32 H :    0.165464
  33 H :    0.165464
  34 H :    0.165474
  35 H :    0.165473
  36 H :    0.145616
  37 H :    0.145616
  38 H :    0.145625
  39 H :    0.145625
  40 Mg:    0.369806

-------------------------------
LOEWDIN REDUCED ORBITAL CHARGES
-------------------------------
  0 N s       :     2.975695  s :     2.975695
      pz      :     1.117153  p :     3.596824
      px      :     1.355127
      py      :     1.124544
      dz2     :     0.016190  d :     0.212607
      dxz     :     0.009382
      dyz     :     0.049668
      dx2y2   :     0.063864
      dxy     :     0.073502
      f0      :     0.001104  f :     0.018569
      f+1     :     0.000766
      f-1     :     0.001749
      f+2     :     0.000321
      f-2     :     0.003486
      f+3     :     0.003763
      f-3     :     0.007379

  1 N s       :     2.975662  s :     2.975662
      pz      :     1.117245  p :     3.596874
      px      :     1.355091
      py      :     1.124537
      dz2     :     0.016189  d :     0.212598
      dxz     :     0.009380
      dyz     :     0.049664
      dx2y2   :     0.063867
      dxy     :     0.073498
      f0      :     0.001104  f :     0.018567
      f+1     :     0.000766
      f-1     :     0.001749
      f+2     :     0.000321
      f-2     :     0.003486
      f+3     :     0.003763
      f-3     :     0.007378

  2 N s       :     2.973222  s :     2.973222
      pz      :     1.219435  p :     3.656742
      px      :     1.106758
      py      :     1.330549
      dz2     :     0.015964  d :     0.199785
      dxz     :     0.044099
      dyz     :     0.010824
      dx2y2   :     0.060479
      dxy     :     0.068418
      f0      :     0.001095  f :     0.018320
      f+1     :     0.001694
      f-1     :     0.000837
      f+2     :     0.000196
      f-2     :     0.003784
      f+3     :     0.006843
      f-3     :     0.003870

  3 N s       :     2.973169  s :     2.973169
      pz      :     1.219501  p :     3.656740
      px      :     1.106696
      py      :     1.330543
      dz2     :     0.015919  d :     0.199802
      dxz     :     0.044115
      dyz     :     0.010781
      dx2y2   :     0.060520
      dxy     :     0.068467
      f0      :     0.001094  f :     0.018323
      f+1     :     0.001697
      f-1     :     0.000833
      f+2     :     0.000189
      f-2     :     0.003786
      f+3     :     0.006851
      f-3     :     0.003873

  4 C s       :     2.763149  s :     2.763149
      pz      :     1.036887  p :     3.027023
      px      :     0.990904
      py      :     0.999232
      dz2     :     0.048360  d :     0.362867
      dxz     :     0.069691
      dyz     :     0.067973
      dx2y2   :     0.085860
      dxy     :     0.090984
      f0      :     0.004436  f :     0.040191
      f+1     :     0.003514
      f-1     :     0.003511
      f+2     :     0.005502
      f-2     :     0.004619
      f+3     :     0.011273
      f-3     :     0.007336

  5 C s       :     2.763144  s :     2.763144
      pz      :     1.036876  p :     3.027013
      px      :     0.990938
      py      :     0.999199
      dz2     :     0.048413  d :     0.362881
      dxz     :     0.069733
      dyz     :     0.067875
      dx2y2   :     0.085807
      dxy     :     0.091053
      f0      :     0.004440  f :     0.040192
      f+1     :     0.003512
      f-1     :     0.003509
      f+2     :     0.005501
      f-2     :     0.004621
      f+3     :     0.011283
      f-3     :     0.007326

  6 C s       :     2.763154  s :     2.763154
      pz      :     1.036945  p :     3.027015
      px      :     0.990872
      py      :     0.999199
      dz2     :     0.047348  d :     0.362859
      dxz     :     0.070671
      dyz     :     0.068231
      dx2y2   :     0.085899
      dxy     :     0.090711
      f0      :     0.004359  f :     0.040190
      f+1     :     0.003595
      f-1     :     0.003568
      f+2     :     0.005449
      f-2     :     0.004562
      f+3     :     0.011330
      f-3     :     0.007328

  7 C s       :     2.763154  s :     2.763154
      pz      :     1.036939  p :     3.027006
      px      :     0.990832
      py      :     0.999234
      dz2     :     0.047379  d :     0.362863
      dxz     :     0.070576
      dyz     :     0.068299
      dx2y2   :     0.085943
      dxy     :     0.090666
      f0      :     0.004359  f :     0.040190
      f+1     :     0.003593
      f-1     :     0.003569
      f+2     :     0.005452
      f-2     :     0.004560
      f+3     :     0.011319
      f-3     :     0.007338

  8 C s       :     2.710599  s :     2.710599
      pz      :     0.830366  p :     2.785047
      px      :     0.963741
      py      :     0.990940
      dz2     :     0.041767  d :     0.628107
      dxz     :     0.070222
      dyz     :     0.121309
      dx2y2   :     0.202321
      dxy     :     0.192488
      f0      :     0.005356  f :     0.077621
      f+1     :     0.004448
      f-1     :     0.006049
      f+2     :     0.006893
      f-2     :     0.010593
      f+3     :     0.015482
      f-3     :     0.028800

  9 C s       :     2.710593  s :     2.710593
      pz      :     0.830356  p :     2.785025
      px      :     0.963582
      py      :     0.991087
      dz2     :     0.041770  d :     0.628107
      dxz     :     0.070244
      dyz     :     0.121297
      dx2y2   :     0.202290
      dxy     :     0.192505
      f0      :     0.005356  f :     0.077619
      f+1     :     0.004452
      f-1     :     0.006046
      f+2     :     0.006880
[...]
  0-1A  -> 16-1A    5.509403   44436.3   225.0   0.000000036   0.00000  -0.00006  -0.00007   0.00004
  0-1A  -> 17-1A    5.710660   46059.6   217.1   0.135665017   0.04271   0.00019  -0.20666  -0.00001
  0-1A  -> 18-1A    5.800104   46781.0   213.8   0.000000475   0.00000  -0.00001   0.00039  -0.00000
  0-1A  -> 19-1A    5.920566   47752.6   209.4   0.000157495   0.00005  -0.00717   0.00002  -0.00004
  0-1A  -> 20-1A    5.951316   48000.6   208.3   0.000000600   0.00000   0.00002  -0.00044   0.00001
  0-1A  -> 21-1A    6.143187   49548.1   201.8   0.000025232   0.00001  -0.00001  -0.00292   0.00005
  0-1A  -> 22-1A    6.165036   49724.4   201.1   0.000761493   0.00026   0.00013  -0.00021  -0.01608
  0-1A  -> 23-1A    6.196339   49976.8   200.1   0.421994372   0.14414   0.00038  -0.37966   0.00001
  0-1A  -> 24-1A    6.327770   51036.9   195.9   0.000003699   0.00000  -0.00001  -0.00114   0.00002
  0-1A  -> 25-1A    6.351694   51229.9   195.2   0.000100156   0.00004   0.00001  -0.00592  -0.00000
  0-1A  -> 26-1A    6.403836   51650.4   193.6   0.000260245   0.00009   0.00958   0.00003   0.00006
  0-1A  -> 27-1A    6.579299   53065.6   188.4   0.000000030   0.00000   0.00004  -0.00009   0.00001
  0-1A  -> 28-1A    6.652567   53656.6   186.4   0.013458242   0.00494  -0.07025  -0.00010  -0.00055
  0-1A  -> 29-1A    6.765053   54563.8   183.3   0.000000010   0.00000  -0.00006   0.00002  -0.00001
  0-1A  -> 30-1A    6.813038   54950.9   182.0   0.000026796   0.00001   0.00001   0.00317   0.00001

------------------------------------------------------------------------------------------
                     CD SPECTRUM VIA TRANSITION ELECTRIC DIPOLE MOMENTS    
------------------------------------------------------------------------------------------
     Transition      Energy     Energy  Wavelength    R        MX        MY        MZ   
                      (eV)      (cm-1)    (nm)   (1e40*cgs)   (au)      (au)      (au)  
------------------------------------------------------------------------------------------
  0-1A  ->  1-1A    1.494264   12052.1   829.7  -12.92187  -0.00000  -0.00799  -0.00020
  0-1A  ->  2-1A    2.305245   18593.1   537.8   -5.89850  -0.00962  -0.00002  -0.00092
  0-1A  ->  3-1A    3.587747   28937.1   345.6  -64.26903   0.03584   0.00008  -0.00010
  0-1A  ->  4-1A    3.852978   31076.4   321.8   -1.42832   0.00092  -0.00005  -0.11264
  0-1A  ->  5-1A    4.147248   33449.8   299.0  -11.76827   0.02410   0.00005   0.00039
  0-1A  ->  6-1A    4.221175   34046.1   293.7    0.84832  -0.00004   0.00056   0.00012
  0-1A  ->  7-1A    4.465462   36016.4   277.7    0.00000  -0.00000   0.00004  -0.00003
  0-1A  ->  8-1A    4.701578   37920.8   263.7   42.94256  -0.01001   0.00059   1.28675
  0-1A  ->  9-1A    4.718116   38054.2   262.8   26.03422  -0.00029   0.32310  -0.00228
  0-1A  -> 10-1A    5.004365   40362.9   247.8   -0.00001   0.00007   0.00007  -0.00002
  0-1A  -> 11-1A    5.015879   40455.8   247.2   31.87351   0.00754   0.00020  -0.96257
  0-1A  -> 12-1A    5.298466   42735.0   234.0    0.00001   0.00005   0.00004   0.00006
  0-1A  -> 13-1A    5.353489   43178.8   231.6    0.34072   0.00014  -0.00006  -0.01301
  0-1A  -> 14-1A    5.407494   43614.4   229.3    2.54238   0.00293  -0.00006  -0.38834
  0-1A  -> 15-1A    5.494167   44313.5   225.7   -2.64379   0.00060   0.00013  -0.08639
  0-1A  -> 16-1A    5.509403   44436.3   225.0   -0.00000  -0.00005  -0.00002  -0.00020
  0-1A  -> 17-1A    5.710660   46059.6   217.1    2.76380   0.00001  -0.00588   0.00009
  0-1A  -> 18-1A    5.800104   46781.0   213.8    0.00009  -0.00005   0.00010  -0.00012
  0-1A  -> 19-1A    5.920566   47752.6   209.4    1.68742  -0.12692  -0.00010  -0.00074
  0-1A  -> 20-1A    5.951316   48000.6   208.3   -0.00009  -0.00007   0.00009   0.00007
  0-1A  -> 21-1A    6.143187   49548.1   201.8    0.12513   0.00004  -0.01526  -0.00042
  0-1A  -> 22-1A    6.165036   49724.4   201.1  -12.12159  -0.00286  -0.00012   0.35786
  0-1A  -> 23-1A    6.196339   49976.8   200.1   -1.59723  -0.00001   0.00201  -0.00012
  0-1A  -> 24-1A    6.327770   51036.9   195.9   -0.00041   0.00016   0.00018   0.00007
  0-1A  -> 25-1A    6.351694   51229.9   195.2    2.97300   0.00017  -0.18187  -0.00015
  0-1A  -> 26-1A    6.403836   51650.4   193.6   -5.12699  -0.27251  -0.00027  -0.00235
  0-1A  -> 27-1A    6.579299   53065.6   188.4   -0.00004   0.00009   0.00024  -0.00005
  0-1A  -> 28-1A    6.652567   53656.6   186.4    2.56104  -0.01969  -0.00003  -0.00032
  0-1A  -> 29-1A    6.765053   54563.8   183.3    0.00001   0.00002   0.00045  -0.00001
  0-1A  -> 30-1A    6.813038   54950.9   182.0   -3.02472   0.00041  -0.45002   0.00009

------------------------------------------------------------------------------------------
                     CD SPECTRUM VIA TRANSITION VELOCITY DIPOLE MOMENTS    
------------------------------------------------------------------------------------------
     Transition      Energy     Energy  Wavelength    R        MX        MY        MZ   
                      (eV)      (cm-1)    (nm)   (1e40*cgs)   (au)      (au)      (au)  
------------------------------------------------------------------------------------------
  0-1A  ->  1-1A    1.494264   12052.1   829.7  -12.94756  -0.00000  -0.00799  -0.00020
  0-1A  ->  2-1A    2.305245   18593.1   537.8   -5.85833  -0.00962  -0.00002  -0.00092
  0-1A  ->  3-1A    3.587747   28937.1   345.6  -64.05379   0.03584   0.00008  -0.00010
  0-1A  ->  4-1A    3.852978   31076.4   321.8   -1.47398   0.00092  -0.00005  -0.11264
  0-1A  ->  5-1A    4.147248   33449.8   299.0  -11.79047   0.02410   0.00005   0.00039
  0-1A  ->  6-1A    4.221175   34046.1   293.7    0.84824  -0.00004   0.00056   0.00012
  0-1A  ->  7-1A    4.465462   36016.4   277.7    0.00000  -0.00000   0.00004  -0.00003
  0-1A  ->  8-1A    4.701578   37920.8   263.7   44.36686  -0.01001   0.00059   1.28675
  0-1A  ->  9-1A    4.718116   38054.2   262.8   26.16059  -0.00029   0.32310  -0.00228
  0-1A  -> 10-1A    5.004365   40362.9   247.8   -0.00001   0.00007   0.00007  -0.00002
  0-1A  -> 11-1A    5.015879   40455.8   247.2   30.90554   0.00754   0.00020  -0.96257
  0-1A  -> 12-1A    5.298466   42735.0   234.0    0.00001   0.00005   0.00004   0.00006
  0-1A  -> 13-1A    5.353489   43178.8   231.6    0.39239   0.00014  -0.00006  -0.01301
  0-1A  -> 14-1A    5.407494   43614.4   229.3    3.14123   0.00293  -0.00006  -0.38834
  0-1A  -> 15-1A    5.494167   44313.5   225.7   -3.00015   0.00060   0.00013  -0.08639
  0-1A  -> 16-1A    5.509403   44436.3   225.0   -0.00001  -0.00005  -0.00002  -0.00020
  0-1A  -> 17-1A    5.710660   46059.6   217.1    2.72980   0.00001  -0.00588   0.00009
  0-1A  -> 18-1A    5.800104   46781.0   213.8    0.00009  -0.00005   0.00010  -0.00012
  0-1A  -> 19-1A    5.920566   47752.6   209.4    1.97169  -0.12692  -0.00010  -0.00074
  0-1A  -> 20-1A    5.951316   48000.6   208.3   -0.00009  -0.00007   0.00009   0.00007
  0-1A  -> 21-1A    6.143187   49548.1   201.8    0.09309   0.00004  -0.01526  -0.00042
  0-1A  -> 22-1A    6.165036   49724.4   201.1  -11.97879  -0.00286  -0.00012   0.35786
  0-1A  -> 23-1A    6.196339   49976.8   200.1   -1.58271  -0.00001   0.00201  -0.00012
  0-1A  -> 24-1A    6.327770   51036.9   195.9   -0.00040   0.00016   0.00018   0.00007
  0-1A  -> 25-1A    6.351694   51229.9   195.2    2.17524   0.00017  -0.18187  -0.00015
  0-1A  -> 26-1A    6.403836   51650.4   193.6   -5.23274  -0.27251  -0.00027  -0.00235
  0-1A  -> 27-1A    6.579299   53065.6   188.4   -0.00004   0.00009   0.00024  -0.00005
  0-1A  -> 28-1A    6.652567   53656.6   186.4    2.66764  -0.01969  -0.00003  -0.00032
  0-1A  -> 29-1A    6.765053   54563.8   183.3    0.00001   0.00002   0.00045  -0.00001
  0-1A  -> 30-1A    6.813038   54950.9   182.0   -2.68810   0.00041  -0.45002   0.00009

Total run time:     5468.135 sec

           *** ORCA-CIS/TD-DFT FINISHED WITHOUT ERROR ***
-----------------------
CIS/TD-DFT TOTAL ENERGY
-----------------------

    E(SCF)  =  -1191.034735154 Eh
    DE(CIS) =      0.054913197 Eh (Root  1)
    ----------------------------- ---------
    E(tot)  =  -1190.979821957 Eh


Maximum memory used throughout the entire CIS-calculation: 2721.1 MB
=> NOW LEAVING ORCA_CIS


-------------------------------------------------------------------------------
                          DFT DISPERSION CORRECTION                            
                                                                               
                              DFTD3 V3.1  Rev 1                                
                              USING zero damping                               
-------------------------------------------------------------------------------
The omegaB97X-D3 functional is recognized. Fit by Chai et al.
Active option DFTDOPT                   ...         3   

molecular C6(AA) [au] = 22840.081038 


            DFT-D V3
 parameters
 s6 scaling factor         :     1.0000 
 rs6 scaling factor        :     1.2810 
 s8 scaling factor         :     1.0000 
 rs8 scaling factor        :     1.0940 
 Damping factor alpha6     :    14.0000 
 Damping factor alpha8     :    16.0000 
 ad hoc parameters k1-k3   :    16.0000     1.3333    -4.0000 

 Edisp/kcal,au: -12.220377612375  -0.019474409254 
 E6   /kcal   :  -5.348412553 
 E8   /kcal   :  -6.871965059 
 % E8         :  56.233655598 

-------------------------   ----------------
Dispersion correction           -0.019474409
-------------------------   ----------------


-------------------------   --------------------
FINAL SINGLE POINT ENERGY     -1190.999296366563
-------------------------   --------------------



           ************************************************************
           *        Program running with 4 parallel MPI-processes     *
           *              working on a common directory               *
           ************************************************************

------------------------------------------------------------------------------
                              ORCA PROPERTY CALCULATIONS
------------------------------------------------------------------------------

GBWName                                 ... tddft.gbw
Number of atoms                         ...     41
Number of basis functions               ...    872
Max core memory                         ...   3000 MB

Electric properties:
Dipole moment                           ... YES
Quadrupole moment                       ...  NO
Static polarizability (Dipole/Dipole)   ...  NO
Static polarizability (Dipole/Quad.)    ...  NO
Static polarizability (Quad./Quad.)     ...  NO
Static polarizability (Velocity)        ...  NO
Static hyperpolarizability              ...  NO

Atomic electric properties:
Dipole moment                           ...  NO
Quadrupole moment                       ...  NO
Static polarizability                   ...  NO

Choice of electric origin               ... Center of mass
Position of electric origin             ...    -0.003613    -0.019229     0.068836

General magnetic properties:
Magnetizability                         ...  NO

EPR properties:
g-Tensor (aka g-matrix)                 ...  NO
Zero-Field splitting spin-orbit         ...  NO
Zero-field splitting spin-spin          ...  NO
Hyperfine couplings                     ...  NO (   0 nuclei)
Quadrupole couplings                    ...  NO (   0 nuclei)
Contact density                         ...  NO (   0 nuclei)

NMR properties:
Chemical shifts                         ...  NO (   0 nuclei)
Spin-rotation constants                 ...  NO (   0 nuclei)
Spin-spin couplings                     ...  NO (   0 nuclei,    0 pairs)

Choice of magnetic origin               ... GIAO
Position of magnetic origin             ...     0.000000     0.000000     0.000000

Properties with geometric perturbations:
SCF Hessian                             ...  NO
IR spectrum                             ...  NO
VCD spectrum                            ...  NO
X-ray spectroscopy properties:
SCF XES/XAS/RIXS spectra                ...  NO

SCF SOC stabilization energy            ...  NO
Diagonal Born-Oppenheimer correction    ...  NO

-------------
DIPOLE MOMENT
-------------

Method             : SCF
Type of density    : Electron Density
Multiplicity       :   1
Irrep              :   0
Energy             : -1191.0347351543045988 Eh
Basis              : AO
                                X                 Y                 Z
Electronic contribution:      0.000913283       0.002549735      -0.000414086
Nuclear contribution   :     -0.000660183       0.000201001       0.000373176
                        -----------------------------------------
Total Dipole Moment    :      0.000253100       0.002750736      -0.000040910
                        -----------------------------------------
Magnitude (a.u.)       :      0.002762659
Magnitude (Debye)      :      0.007022121



--------------------
Rotational spectrum 
--------------------
 
Rotational constants in cm-1:             0.008915             0.008207             0.004290 
Rotational constants in MHz :           267.260438           246.047427           128.597541 

Dipole components along the rotational axes: 
x,y,z [a.u.] :     0.000255    -0.002750    -0.000043 
x,y,z [Debye]:     0.000649    -0.006991    -0.000109 

 

Dipole moment calculation done in   0.0 sec 

Maximum memory used throughout the entire PROP-calculation: 90.9 MB

--------------------------------
SUGGESTED CITATIONS FOR THIS RUN
--------------------------------

Below you find a list of papers that are relevant to this ORCA run
We neither can nor want to force you to cite these papers, but we appreciate if you do
You receive ORCA, which is the product of decades of hard work by many enthusiastic individuals, for free
The only thing we kindly ask in return is that you cite our papers,
We deeply appreciate it, if you show your appreciation for ORCA by not just citing the generic ORCA reference.

Please note that relegating all ORCA citations to the supporting information does *not* help us.
SI sections are not indexed - citations you put there will not count into any citation statistics
But we need these citations in order to attract the funding resources that allow us to do what we are doing

Therefore, if you are a happy ORCA user, please consider citing a few of the papers listed below in the main body of your paper

In addition to the list printed below, the program has created the file tddft.bibtex that contains the list in bibtex format
You can import this file easily into all common literature databanks and citation aid programs

It goes without saying that in many instances, there are alternative algorithms to achieve similar
results as the ones you have gotten from ORCA. It is, of course, also the case that in some instances
ORCA just re-implements algorithms worked out by others. We are fully aware of that and we are also
fully appreciative of our colleagues work. Hence this citation list should not be read as indicating
that the listed papers, which are focused on our own work, are the only ones worth citing. It simply
meant to make it easier for users to cite ORCA specific papers. It is not a substitute for doing your
own literature research and citing the relevant literature in a scientifically appropriate manner.

List of essential papers. We consider these as the minimum necessary citations

  1. Neese, F.
     Software update: the ORCA program system, version 6.0
     WIRES Comput. Molec. Sci. 2025 15(1), e70019
     doi.org/10.1002/wcms.70019

List of papers to cite with high priority. The work reported in these papers was absolutely
necessary for this run to complete.
Our perspective: the developers of density functionals and basis sets usually get cited in chemistry papers
Good! But without the algorithms to do something with them, the functionals or basis sets would not do anything.
Hence, in our opinion, the algorithm design and method developments papers are equally worthy of getting cited

  1. Neese, F.; Olbrich, G.
     Efficient use of the resolution of the identity approximation in time-dependent density functional calculations with hybrid density functionals
     Chem. Phys. Lett. 2002 362 , 170-178
     doi.org/10.1016/s0009-2614(02)01053-9
  2. Neese, F.
     An improvement of the resolution of the identity approximation for the formation of the Coulomb matrix
     J. Comp. Chem. 2003 24(14), 1740-1747
     doi.org/10.1002/jcc.10318
  3. Neese, F.; Wennmohs, F.; Hansen, A.; Becker, U.
     Efficient, approximate and parallel Hartree-Fock and hybrid DFT calculations. A 'chain-of-spheres' algorithm for the Hartree-Fock exchange
     Chem. Phys. 2009 356(1-3), 98-109
     doi.org/10.1016/j.chemphys.2008.10.036
  4. Grimme, S.; Antony, J.; Ehrlich, S.; Krieg, H.
     A consistent and accurate ab initio parametrization of density functional dispersion correction (DFT-D) for the 94 elements H-Pu
     J. Chem. Phys. 2010 132 , 154104
     doi.org/10.1063/1.3382344
  5. Garcia-Rates, M.; Neese, F.
     Effect of the Solute Cavity on the Solvation Energy and its Derivatives within the Framework of the Gaussian Charge Scheme
     J. Comput. Chem. 2020 41 , 922-939
     doi.org/10.1002/jcc.26139
  6. Helmich-Paris, B.; de Souza, B.; Neese, F.; Izsák, R.
     An improved chain of spheres for exchange algorithm
     J. Chem. Phys. 2021 155(10), 104109
     doi.org/10.1063/5.0058766
  7. Neese, F.
     The SHARK Integral Generation and Digestion System
     J. Comp. Chem. 2022 44(3), 381
     doi.org/10.1002/jcc.26942

List of suggested additional citations. These are papers that are important in the 'surrounding' of 
of this run, or papers that preceded the highly important papers. If you like your results we are grateful for a citation.

  1. Izsak, R.; Neese, F.
     An overlap fitted chain of spheres exchange method
     J. Chem. Phys. 2011 135 , 144105
     doi.org/10.1063/1.3646921
  2. Izsak, R.; Hansen, A.; Neese, F.
     The resolution of identity and chain of spheres approximations for the LPNO-CCSD singles Fock term
     Molec. Phys. 2012 110 , 2413-2417
     doi.org/10.1080/00268976.2012.687466
  3. Neese, F.
     The ORCA program system
     WIRES Comput. Molec. Sci. 2012 2(1), 73-78
     doi.org/10.1002/wcms.81
  4. Izsak, R.; Neese, F.; Klopper, W.
     Robust fitting techniques in the chain of spheres approximation to the Fock exchange: The role of the complementary space
     J. Chem. Phys. 2013 139 , 
     doi.org/10.1063/1.4819264
  5. Neese, F.
     Software update: the ORCA program system, version 4.0
     WIRES Comput. Molec. Sci. 2018 8(1), 1-6
     doi.org/10.1002/wcms.1327
  6. Neese, F.; Wennmohs, F.; Becker, U.; Riplinger, C.
     The ORCA quantum chemistry program package
     J. Chem. Phys. 2020 152(22), 224108
     doi.org/10.1063/5.0004608
  7. Neese, F.
     Software update: The ORCA program system—Version 5.0
     WIRES Comput. Molec. Sci. 2022 12(1), e1606
     doi.org/10.1002/wcms.1606

List of optional additional citations

  1. Neese, F.
     Approximate second-order SCF convergence for spin unrestricted wavefunctions
     Chem. Phys. Lett. 2000 325(1-3), 93-98
     doi.org/10.1016/s0009-2614(00)00662-x

Timings for individual modules:

Sum of individual times          ...     7619.294 sec (= 126.988 min)
Startup calculation              ...       28.438 sec (=   0.474 min)   0.4 %
SCF iterations                   ...     2120.818 sec (=  35.347 min)  27.8 %
Property integrals               ...        1.066 sec (=   0.018 min)   0.0 %
Property calculations            ...        0.477 sec (=   0.008 min)   0.0 %
CIS module                       ...     5468.496 sec (=  91.142 min)  71.8 %
                             ****ORCA TERMINATED NORMALLY****
TOTAL RUN TIME: 0 days 2 hours 6 minutes 59 seconds 845 msec
