
                                 *****************
                                 * O   R   C   A *
                                 *****************

                                            #,                                       
                                            ###                                      
                                            ####                                     
                                            #####                                    
                                            ######                                   
                                           ########,                                 
                                     ,,################,,,,,                         
                               ,,#################################,,                 
                          ,,##########################################,,             
                       ,#########################################, ''#####,          
                    ,#############################################,,   '####,        
                  ,##################################################,,,,####,       
                ,###########''''           ''''###############################       
              ,#####''   ,,,,##########,,,,          '''####'''          '####       
            ,##' ,,,,###########################,,,                        '##       
           ' ,,###''''                  '''############,,,                           
         ,,##''                                '''############,,,,        ,,,,,,###''
      ,#''                                            '''#######################'''  
     '                                                          ''''####''''         
             ,#######,   #######,   ,#######,      ##                                
            ,#'     '#,  ##    ##  ,#'     '#,    #''#        ,####,    ,#,          
            ##       ##  ##   ,#'  ##            #'  '#       #'       ,# #          
            ##       ##  #######   ##           ,######,      #####,      #          
            '#,     ,#'  ##    ##  '#,     ,#' ,#      #,     #,   #      #          
             '#######'   ##     ##  '#######'  #'      '#     '####' #    #          



                #########################################################
                #                        -***-                          #
                #          Department of theory and spectroscopy        #
                #                                                       #
                #                      Frank Neese                      #
                #                                                       #
                #     Directorship, Architecture, Infrastructure        #
                #                    SHARK, DRIVERS                     #
                #        Core code/Algorithms in most modules           #
                #                                                       #
                #        Max Planck Institute fuer Kohlenforschung      #
                #                Kaiser Wilhelm Platz 1                 #
                #                 D-45470 Muelheim/Ruhr                 #
                #                      Germany                          #
                #                                                       #
                #                  All rights reserved                  #
                #                        -***-                          #
                #########################################################


                         Program Version 6.1.1  -  RELEASE   -
                                (GIT: $487d211c$)
                          ($2025-11-21 10:33:24 +0100$)


 With contributions from (in alphabetic order):
[Max-Planck-Institut fuer Kohlenforschung]                               
  Daniel Aravena         : Magnetic Suceptibility                        
  Michael Atanasov       : Ab Initio Ligand Field Theory (pilot matlab implementation)
  Alexander A. Auer      : GIAO ZORA, VPT2 properties, NMR spectrum      
  Ute Becker             : All parallelization in ORCA, NUMFREQ, NUMCALC 
  Giovanni Bistoni       : ED, misc. LED, open-shell LED, HFLD           
  Dmytro Bykov           : pre 5.0 version of the SCF Hessian            
  Marcos Casanova-Páez   : Triplet and SCS-CIS(D). UHF-(DLPNO)-IP/EA/STEOM-CCSD. UHF-CVS-IP/STEOM-CCSD   
  Vijay G. Chilkuri      : MRCI spin determinant printing, contributions to CSF-ICE 
  Pauline Colinet        : FMM embedding                                 
  Dipayan Datta          : RHF DLPNO-CCSD density                        
  Achintya Kumar Dutta   : EOM-CC, STEOM-CC                              
  Nicolas Foglia         : Exact transition moments, OPA infrastructure, MCD improvements    
  Dmitry Ganyushin       : Spin-Orbit,Spin-Spin,Magnetic field MRCI      
  Miquel Garcia-Rates    : C-PCM and meta-GGA Hessian, CCSD/C-PCM, Gaussian charge scheme 
  Tiago L. C. Gouveia    : GS-ROHF, GS-ROCIS                             
  Yang Guo               : DLPNO-NEVPT2, F12-NEVPT2, CIM, IAO-localization        
  Andreas Hansen         : Spin unrestricted coupled pair/coupled cluster methods 
  Ingolf Harden          : AUTO-CI MPn and infrastructure                
  Benjamin Helmich-Paris : MC-RPA, TRAH-(SCF,CASSCF), AVAS, COSX integrals, SCF dyn. polar., MC-PDFT, srDFT 
  Lee Huntington         : MR-EOM, pCC                                   
  Robert Izsak           : Overlap fitted RIJCOSX, COSX-SCS-MP3, EOM     
  Riya Kayal             : Wick's Theorem for AUTO-CI, AUTO-CI UHF-CCSDT 
  Emily Kempfer          : AUTO-CI RHF CISDT and CCSDT, approximate NEVPT4
  Christian Kollmar      : KDIIS, OOCD, Brueckner-CCSD(T), CCSD density, CASPT2, CASPT2-K, improved NEVPT2 
  Axel Koslowski         : Symmetry handling                             
  Simone Kossmann        : meta-GGA functionals, TD-DFT gradient, OOMP2, (MP2 Hessian; deprecated post 5.0) 
  Lucas Lang             : DCDCAS, Hyperfine gauge corrections, ICE-SOC+SSC
  Marvin Lechner         : AUTO-CI (C++ implementation), FIC-MRCC        
  Spencer Leger          : CASSCF response                               
  Dagmar Lenk            : GEPOL surface, SMD, ORCA-2-JSON               
  Dimitrios Liakos       : Extrapolation schemes; Compound Job, Property file
  Dimitrios Manganas     : Further ROCIS development; embedding schemes. LFT, Crystal Embedding 
  Dimitrios Pantazis     : SARC Basis sets                               
  Anastasios Papadopoulos: AUTO-CI, single reference methods and gradients 
  Taras Petrenko         : pre 6.0 DFT Hessian and TD-DFT gradient,  ECA, NRVS 
  Petra Pikulova         : Analytic Raman intensities                    
  Peter Pinski           : DLPNO-MP2, DLPNO-MP2 Gradient                 
  Shashank Vittal Rao    : ES-AILFT, MagRelax                            
  Christoph Reimann      : Effective Core Potentials                     
  Marius Retegan         : Local ZFS, SOC                                
  Christoph Riplinger    : Optimizer, TS searches, QM/MM, DLPNO-CCSD(T), (RO)-DLPNO pert. Triples 
  Michael Roemelt        : Original ROCIS implementation, recursive CI coupling coefficients
  Masaaki Saitow         : Open-shell DLPNO-CCSD energy and density      
  Barbara Sandhoefer     : DKH picture change effects                    
  Yorick L. A. Schmerwitz: GMF and freeze-and-release deltaSCF, NEB S-IDPP initial path                    
  Kantharuban Sivalingam : CASSCF convergence/infrastructure, NEVPT2, NEVPT3, NEVPT4(SD), FIC-MRCI and CEPA variants
  Bernardo de Souza      : ESD, SOC TD-DFT                               
  Georgi L. Stoychev     : AutoAux, RI-MP2 NMR, DLPNO-MP2 response, X2C  
  Van Anh Tran           : RI-MP2 g-tensors                              
  Willem Van den Heuvel  : Paramagnetic NMR                              
  Zikuan Wang            : NOTCH, Electric field optimization            
  Frank Wennmohs         : Technical directorship and infrastructure     
  Hang Xu                : AUTO-CI-Response properties                   
                                                                         
[FACCTs GmbH]                                                            
  Markus Bursch, Nicolas Foglia, Miquel Garcia-Rates, Ingolf Harden, Hagen Neugebauer, Anastasios Papadopoulos, 
  Christoph Riplinger, Bernardo de Souza, Georgi L. Stoychev                                                    
                                                                 
  APM, various basis sets, CI-OPT, improved COSX, DLPNO-Multilevel,           
  DOCKER, DRACO, updates on ESD, Fragmentator, GOAT, IRC, LR-CPCM, L-BFGS, MBIS, meta-GGA TD-DFT gradient, ML-optimized integration grids, 
  MM, NACMEs, nearIR, NEB, NEB-TS, NL-DFT gradient (VV10), 2- and 3-layer-ONIOM, interface openCOSMO-RS, QMMM,   
  Crystal-QMMM, RESP, rigid body optimization, SF, symmetry and pop. for TD-DFT, various functionals, SOLVATOR                                   
                                                                         
[Other institutions]                                                     
  V. Asgeirsson          : NEB                                           
  Christoph Bannwarth    : sTDA-DFT, sTD-DFT, PBEh-3c, B97-3c, D3        
  Giovanni Bistoni       : ETS/NOCV, ADLD/ADEX, COVALED                  
  Martin Brehm           : Molecular dynamics                            
  Ronald Cardenas        : ETS/NOCV                                      
  Martina Colucci        : COVALED                                       
  Sebastian Ehlert       : rSCAN, r2SCAN, r2SCAN-3c, D4, dhf basis sets  
  Marvin Friede          : D4 for Fr, Ra, Ac-Lr                          
  Lars Goerigk           : TD-DFT with DH, B97 family of functionals     
  Stefan Grimme          : VdW corrections, initial TS optimization, DFT functionals, gCP, sTDA/sTD-DF 
  Waldemar Hujo          : DFT-NL                                        
  H. Jonsson             : NEB                                           
  Holger Kruse           : gCP                                           
  Marcel Mueller         : wB97X-3c, vDZP basis set                      
  Hagen Neugebauer       : wr2SCAN, Native XTB                           
  Gianluca Regni         : ADLD/ADEX                                     
  Tobias Risthaus        : pre 6.0 range-separated hybrid DFT and stability analysis
  Lukas Wittmann         : regularized MP2, r2SCAN double-hybrids, wr2SCAN        
                                                                         
We gratefully acknowledge several colleagues who have allowed us to      
interface, adapt or use parts of their codes:                            
  Ed Valeev, F. Pavosevic, A. Kumar             : LibInt (2-el integral package), F12 methods 
  Garnet Chan, S. Sharma, J. Yang, R. Olivares  : DMRG                   
  Ulf Ekstrom                                   : XCFun DFT Library      
  Mihaly Kallay                                 : mrcc  (arbitrary order and MRCC methods)
  Frank Weinhold                                : gennbo (NPA and NBO analysis)           
  Simon Mueller                                 : openCOSMO-RS                            
  Christopher J. Cramer and Donald G. Truhlar   : smd solvation model                     
  S Lehtola, MJT Oliveira, MAL Marques          : LibXC Library                           
  Liviu Ungur et al                             : ANISO software                          


 Your calculation uses the libint2 library for the computation of 2-el integrals
 For citations please refer to: http://libint.valeyev.net

 Your ORCA version has been built with support for libXC version: 7.0.0
 For citations please refer to: https://libxc.gitlab.io

 This ORCA versions uses:
   CBLAS   interface :  Fast vector & matrix operations
   LAPACKE interface :  Fast linear algebra routines
   SCALAPACK package :  Parallel linear algebra routines
   Shared memory     :  Shared parallel matrices
   BLAS/LAPACK       :  OpenBLAS 0.3.29  USE64BITINT DYNAMIC_ARCH NO_AFFINITY Haswell SINGLE_THREADED
        Core in use  :  Haswell
   Copyright (c) 2011-2014, The OpenBLAS Project


  ***********************************
  * Starting time: Sun Jul  5 19:00:31 2026
  * Host name:     steezy
  * Process ID:    1286277
  * Working dir.:  /home/jannes/chlorophyll-ladder/007-mg-core-ladder/mgbacteriochlorin/02_tddft/camb3lyp
  ***********************************

NOTE: MaxCore=3000 MB was set to SCF,MP2,MDCI,CIPSI,MRCI,RASCI and CIS
      => If you want to overwrite this, your respective input block should be placed after the MaxCore statement


***************************************
The coordinates will be read from file: /home/jannes/chlorophyll-ladder/007-mg-core-ladder/mgbacteriochlorin/01_opt/mgbacteriochlorin_opt_b3lypd4_tzvp.xyz
***************************************


XCFun DFT library Copyright 2009-2010 Ulf Ekstrom and contributors.
See http://admol.org/xcfun for more information.
This is free software; see the source code for copying conditions.
There is ABSOLUTELY NO WARRANTY; not even for MERCHANTABILITY or FITNESS FOR A PARTICULAR PURPOSE.
For details see the documentation.
Scientific users of this library should cite U. Ekstrom, L. Visscher, R. Bast, A. J. Thorvaldsen and K. Ruud;
J.Chem.Theor.Comp. 2010, DOI: 10.1021/ct100117s
XCFun Version 0.99 

================================================================================

----- Orbital basis set information -----
Your calculation utilizes the basis: def2-TZVP
   F. Weigend and R. Ahlrichs, Phys. Chem. Chem. Phys. 7, 3297 (2005).

----- AuxJ basis set information -----
Your calculation utilizes the auxiliary basis: def2/J
   H-Rn: F. Weigend, Phys. Chem. Chem. Phys. 8, 1057 (2006).
   Fr-Lr: K. Eichkorn, F. Weigend, O. Treutler, R. Ahlrichs; Theor. Chem. Acc. 97, 119 (1997).

================================================================================
                                        WARNINGS
                       Please study these warnings very carefully!
================================================================================


WARNING: CIS/ROCIS methods need fully converged wavefunctions
  ===> : Setting SCFConvForced true
         You can overwrite this default with %scf ConvForced false 


================================================================================
                                       INPUT FILE
================================================================================
NAME = tddft.inp
|  1> %pal nprocs 4 end
|  2> %maxcore 3000
|  3> ! CAM-B3LYP def2-TZVP def2/J RIJCOSX DefGrid3 TightSCF
|  4> %tddft
|  5>   nroots 30
|  6>   triplets false
|  7> end
|  8> * xyzfile 0 1 /home/jannes/chlorophyll-ladder/007-mg-core-ladder/mgbacteriochlorin/01_opt/mgbacteriochlorin_opt_b3lypd4_tzvp.xyz
|  9> 
| 10>                          ****END OF INPUT****
================================================================================

                       ****************************
                       * Single Point Calculation *
                       ****************************

---------------------------------
CARTESIAN COORDINATES (ANGSTROEM)
---------------------------------
  N     -2.124578   -0.012303    0.019619
  N      2.120702   -0.008182    0.053311
  N      0.000054   -2.042965    0.036072
  N     -0.003922    2.022643    0.036768
  C     -4.365647   -0.772052   -0.118068
  C      4.363206   -0.763605    0.191137
  C     -4.368868    0.743331    0.123418
  C      4.363545    0.751732   -0.050582
  C     -2.893435   -1.127457   -0.033347
  C      2.891729   -1.121890    0.105994
  C     -2.896171    1.101445    0.061023
  C      2.890180    1.107061    0.012189
  C     -1.099225   -2.861182    0.000405
  C      1.100883   -2.859069    0.071901
  C     -1.105169    2.838701    0.055116
  C      1.095772    2.840793    0.018125
  C     -2.428367   -2.424151   -0.040149
  C      2.429194   -2.419482    0.112495
  C     -2.433870    2.399066    0.075036
  C      2.425350    2.403775   -0.001591
  C     -0.680956   -4.229545    0.012980
  C      0.685237   -4.228237    0.059463
  C     -0.689363    4.207941    0.048969
  C      0.677354    4.209237    0.023929
  H     -4.752237   -1.026638   -1.108895
  H     -4.959962   -1.326894    0.608414
  H      4.749790   -1.017167    1.182234
  H      4.958957   -1.317434   -0.534930
  H     -4.953125    1.297020   -0.612043
  H     -4.770793    0.997360    1.108263
  H      4.946888    1.306572    0.684739
  H      4.764732    1.006428   -1.035547
  H     -3.179766   -3.203559   -0.079566
  H      3.182074   -3.197459    0.151893
  H     -3.187309    3.176996    0.103002
  H      3.177260    3.183189   -0.029363
  H     -1.343528   -5.080762   -0.009530
  H      1.349426   -5.078189    0.082157
  H     -1.354064    5.057708    0.060979
  H      1.340439    5.060262    0.011412
  Mg    -0.001641   -0.010087    0.036418

----------------------------
CARTESIAN COORDINATES (A.U.)
----------------------------
  NO LB      ZA    FRAG     MASS         X           Y           Z
   0 N     7.0000    0    14.007   -4.014871   -0.023249    0.037074
   1 N     7.0000    0    14.007    4.007547   -0.015462    0.100743
   2 N     7.0000    0    14.007    0.000102   -3.860643    0.068165
   3 N     7.0000    0    14.007   -0.007411    3.822241    0.069481
   4 C     6.0000    0    12.011   -8.249878   -1.458967   -0.223116
   5 C     6.0000    0    12.011    8.245265   -1.443005    0.361196
   6 C     6.0000    0    12.011   -8.255964    1.404693    0.233226
   7 C     6.0000    0    12.011    8.245904    1.420568   -0.095586
   8 C     6.0000    0    12.011   -5.467801   -2.130585   -0.063016
   9 C     6.0000    0    12.011    5.464575   -2.120065    0.200300
  10 C     6.0000    0    12.011   -5.472971    2.081430    0.115316
  11 C     6.0000    0    12.011    5.461648    2.092042    0.023034
  12 C     6.0000    0    12.011   -2.077234   -5.406851    0.000765
  13 C     6.0000    0    12.011    2.080367   -5.402857    0.135874
  14 C     6.0000    0    12.011   -2.088466    5.364367    0.104155
  15 C     6.0000    0    12.011    2.070710    5.368321    0.034251
  16 C     6.0000    0    12.011   -4.588949   -4.580981   -0.075870
  17 C     6.0000    0    12.011    4.590511   -4.572158    0.212586
  18 C     6.0000    0    12.011   -4.599348    4.533577    0.141797
  19 C     6.0000    0    12.011    4.583247    4.542477   -0.003006
  20 C     6.0000    0    12.011   -1.286820   -7.992681    0.024528
  21 C     6.0000    0    12.011    1.294910   -7.990210    0.112369
  22 C     6.0000    0    12.011   -1.302708    7.951855    0.092538
  23 C     6.0000    0    12.011    1.280014    7.954306    0.045220
  24 H     1.0000    0     1.008   -8.980427   -1.940064   -2.095508
  25 H     1.0000    0     1.008   -9.372970   -2.507465    1.149735
  26 H     1.0000    0     1.008    8.975803   -1.922168    2.234098
  27 H     1.0000    0     1.008    9.371070   -2.489590   -1.010871
  28 H     1.0000    0     1.008   -9.360049    2.451013   -1.156593
  29 H     1.0000    0     1.008   -9.015493    1.884737    2.094314
  30 H     1.0000    0     1.008    9.348264    2.469063    1.293968
  31 H     1.0000    0     1.008    9.004039    1.901874   -1.956899
  32 H     1.0000    0     1.008   -6.008887   -6.053850   -0.150357
  33 H     1.0000    0     1.008    6.013249   -6.042321    0.287037
  34 H     1.0000    0     1.008   -6.023141    6.003652    0.194646
  35 H     1.0000    0     1.008    6.004152    6.015356   -0.055489
  36 H     1.0000    0     1.008   -2.538900   -9.601249   -0.018009
  37 H     1.0000    0     1.008    2.550046   -9.596387    0.155255
  38 H     1.0000    0     1.008   -2.558811    9.557682    0.115234
  39 H     1.0000    0     1.008    2.533064    9.562509    0.021566
  40 Mg   12.0000    0    24.305   -0.003102   -0.019062    0.068819

--------------------------------
INTERNAL COORDINATES (ANGSTROEM)
--------------------------------
 N      0   0   0     0.000000000000     0.00000000     0.00000000
 N      1   0   0     4.245416085717     0.00000000     0.00000000
 N      2   1   0     2.939011375942    43.75967239     0.00000000
 N      1   2   3     2.939129070827    43.76187171   180.00255177
 C      1   2   3     2.370352009699   161.12036003   351.01820559
 C      2   1   3     2.370334321602   161.11898876   350.98604815
 C      5   1   2     1.534507198399    71.11414070   179.93485080
 C      6   2   1     1.534495241103    71.11492103   179.93600990
 C      1   2   3     1.355550048196   124.63056083   357.60358136
 C      2   1   3     1.355582128298   124.62977820   357.59599889
 C      1   2   3     1.355546123926   124.62160127   177.56972785
 C      2   1   3     1.355563808831   124.62364954   177.56200688
 C      3   2   1     1.370826670960   172.75333140     8.90847460
 C      3   2   1     1.370815363532    80.36235659   181.15564598
 C      4   1   2     1.370777821536    80.36358993   181.14305473
 C      4   1   2     1.370782906164   172.74430185     9.13892315
 C      9   1   2     1.377588111167   125.66613610     2.25390691
 C     10   2   1     1.377579558700   125.66739448     2.25241290
 C     11   1   2     1.377584022390   125.67739340     2.30114869
 C     12   2   1     1.377579356145   125.67503938     2.29624379
 C     13   3  14     1.430916519652   109.64262364   359.95276415
 C     21  13   3     1.366983719650   106.94919461     0.12079397
 C     15   4   1     1.430996176158   109.64179711   181.00446043
 C     23  15   4     1.366947587917   106.94825517     0.12005675
 H      5   1   2     1.093619998274   117.48119229   285.29610054
 H      5   1   2     1.090336727187   129.77292185    74.83365878
 H      6   2   1     1.093624260422   117.45243435   285.29735237
 H      6   2   1     1.090329122694   129.79853465    74.83293182
 H      7   5   1     1.090334418898   113.35711182   126.06534071
 H      7   5   1     1.093615512790   111.83148131   247.14860792
 H      8   6   2     1.090336113225   113.35342562   126.07482105
 H      8   6   2     1.093607292633   111.83547187   247.16406460
 H     17   9   1     1.083342905325   116.30988331   179.63283291
 H     18  10   2     1.083341733356   116.31217148   179.64366974
 H     19  11   1     1.083340715870   116.31275699   179.62575756
 H     20  12   2     1.083340310464   116.31350810   179.62687671
 H     21  13   3     1.078925603982   125.08340360   180.05189031
 H     22  21  13     1.078925857550   127.96702129   179.92425103
 H     23  15   4     1.078923414896   125.06844783   180.04988392
 H     24  23  15     1.078926070118   127.98362874   179.91361688
 Mg     4   1   2     2.032731255388    46.24671301     0.00000000

---------------------------
INTERNAL COORDINATES (A.U.)
---------------------------
 N      0   0   0     0.000000000000     0.00000000     0.00000000
 N      1   0   0     8.022673726548     0.00000000     0.00000000
 N      2   1   0     5.553926605009    43.75967239     0.00000000
 N      1   2   3     5.554149016110    43.76187171   180.00255177
 C      1   2   3     4.479316139321   161.12036003   351.01820559
 C      2   1   3     4.479282713662   161.11898876   350.98604815
 C      5   1   2     2.899798355505    71.11414070   179.93485080
 C      6   2   1     2.899775759491    71.11492103   179.93600990
 C      1   2   3     2.561618351915   124.63056083   357.60358136
 C      2   1   3     2.561678974521   124.62977820   357.59599889
 C      1   2   3     2.561610936119   124.62160127   177.56972785
 C      2   1   3     2.561644355746   124.62364954   177.56200688
 C      3   2   1     2.590486985190   172.75333140     8.90847460
 C      3   2   1     2.590465617247    80.36235659   181.15564598
 C      4   1   2     2.590394673157    80.36358993   181.14305473
 C      4   1   2     2.590404281711   172.74430185     9.13892315
 C      9   1   2     2.603264255451   125.66613610     2.25390691
 C     10   2   1     2.603248093630   125.66739448     2.25241290
 C     11   1   2     2.603256528784   125.67739340     2.30114869
 C     12   2   1     2.603247710858   125.67503938     2.29624379
 C     13   3  14     2.704040342647   109.64262364   359.95276415
 C     21  13   3     2.583224859667   106.94919461     0.12079397
 C     15   4   1     2.704190871627   109.64179711   181.00446043
 C     23  15   4     2.583156580588   106.94825517     0.12005675
 H      5   1   2     2.066642291317   117.48119229   285.29610054
 H      5   1   2     2.060437808139   129.77292185    74.83365878
 H      6   2   1     2.066650345610   117.45243435   285.29735237
 H      6   2   1     2.060423437730   129.79853465    74.83293182
 H      7   5   1     2.060433446106   113.35711182   126.06534071
 H      7   5   1     2.066633814981   111.83148131   247.14860792
 H      8   6   2     2.060436647919   113.35342562   126.07482105
 H      8   6   2     2.066618281135   111.83547187   247.16406460
 H     17   9   1     2.047221400191   116.30988331   179.63283291
 H     18  10   2     2.047219185490   116.31217148   179.64366974
 H     19  11   1     2.047217262721   116.31275699   179.62575756
 H     20  12   2     2.047216496614   116.31350810   179.62687671
 H     21  13   3     2.038873910402   125.08340360   180.05189031
 H     22  21  13     2.038874389575   127.96702129   179.92425103
 H     23  15   4     2.038869773628   125.06844783   180.04988392
 H     24  23  15     2.038874791271   127.98362874   179.91361688
 Mg     4   1   2     3.841305376545    46.24671301     0.00000000

---------------------
BASIS SET INFORMATION
---------------------
There are 4 groups of distinct atoms

 Group   1 Type N   : 11s6p2d1f contracted to 5s3p2d1f pattern {62111/411/11/1}
 Group   2 Type C   : 11s6p2d1f contracted to 5s3p2d1f pattern {62111/411/11/1}
 Group   3 Type H   : 5s1p contracted to 3s1p pattern {311/1}
 Group   4 Type Mg  : 14s8p3d contracted to 5s4p3d pattern {73211/5111/111}

Atom   0N    basis set group =>   1
Atom   1N    basis set group =>   1
Atom   2N    basis set group =>   1
Atom   3N    basis set group =>   1
Atom   4C    basis set group =>   2
Atom   5C    basis set group =>   2
Atom   6C    basis set group =>   2
Atom   7C    basis set group =>   2
Atom   8C    basis set group =>   2
Atom   9C    basis set group =>   2
Atom  10C    basis set group =>   2
Atom  11C    basis set group =>   2
Atom  12C    basis set group =>   2
Atom  13C    basis set group =>   2
Atom  14C    basis set group =>   2
Atom  15C    basis set group =>   2
Atom  16C    basis set group =>   2
Atom  17C    basis set group =>   2
Atom  18C    basis set group =>   2
Atom  19C    basis set group =>   2
Atom  20C    basis set group =>   2
Atom  21C    basis set group =>   2
Atom  22C    basis set group =>   2
Atom  23C    basis set group =>   2
Atom  24H    basis set group =>   3
Atom  25H    basis set group =>   3
Atom  26H    basis set group =>   3
Atom  27H    basis set group =>   3
Atom  28H    basis set group =>   3
Atom  29H    basis set group =>   3
Atom  30H    basis set group =>   3
Atom  31H    basis set group =>   3
Atom  32H    basis set group =>   3
Atom  33H    basis set group =>   3
Atom  34H    basis set group =>   3
Atom  35H    basis set group =>   3
Atom  36H    basis set group =>   3
Atom  37H    basis set group =>   3
Atom  38H    basis set group =>   3
Atom  39H    basis set group =>   3
Atom  40Mg   basis set group =>   4
---------------------------------
AUXILIARY/J BASIS SET INFORMATION
---------------------------------
There are 4 groups of distinct atoms

 Group   1 Type N   : 12s5p4d2f1g contracted to 6s4p3d1f1g pattern {711111/2111/211/2/1}
 Group   2 Type C   : 12s5p4d2f1g contracted to 6s4p3d1f1g pattern {711111/2111/211/2/1}
 Group   3 Type H   : 5s2p1d contracted to 3s1p1d pattern {311/2/1}
 Group   4 Type Mg  : 14s5p5d2f1g contracted to 8s4p4d1f1g pattern {71111111/2111/2111/2/1}

Atom   0N    basis set group =>   1
Atom   1N    basis set group =>   1
Atom   2N    basis set group =>   1
Atom   3N    basis set group =>   1
Atom   4C    basis set group =>   2
Atom   5C    basis set group =>   2
Atom   6C    basis set group =>   2
Atom   7C    basis set group =>   2
Atom   8C    basis set group =>   2
Atom   9C    basis set group =>   2
Atom  10C    basis set group =>   2
Atom  11C    basis set group =>   2
Atom  12C    basis set group =>   2
Atom  13C    basis set group =>   2
Atom  14C    basis set group =>   2
Atom  15C    basis set group =>   2
Atom  16C    basis set group =>   2
Atom  17C    basis set group =>   2
Atom  18C    basis set group =>   2
Atom  19C    basis set group =>   2
Atom  20C    basis set group =>   2
Atom  21C    basis set group =>   2
Atom  22C    basis set group =>   2
Atom  23C    basis set group =>   2
Atom  24H    basis set group =>   3
Atom  25H    basis set group =>   3
Atom  26H    basis set group =>   3
Atom  27H    basis set group =>   3
Atom  28H    basis set group =>   3
Atom  29H    basis set group =>   3
Atom  30H    basis set group =>   3
Atom  31H    basis set group =>   3
Atom  32H    basis set group =>   3
Atom  33H    basis set group =>   3
Atom  34H    basis set group =>   3
Atom  35H    basis set group =>   3
Atom  36H    basis set group =>   3
Atom  37H    basis set group =>   3
Atom  38H    basis set group =>   3
Atom  39H    basis set group =>   3
Atom  40Mg   basis set group =>   4


           ************************************************************
           *        Program running with 4 parallel MPI-processes     *
           *              working on a common directory               *
           ************************************************************
------------------------------------------------------------------------------
                             ORCA STARTUP CALCULATIONS
                           -- RI-GTO INTEGRALS CHOSEN --
------------------------------------------------------------------------------
------------------------------------------------------------------------------
                   ___                                                        
                  /   \      - P O W E R E D   B Y -                         
                 /     \                                                     
                 |  |  |   _    _      __       _____    __    __             
                 |  |  |  | |  | |    /  \     |  _  \  |  |  /  |          
                  \  \/   | |  | |   /    \    | | | |  |  | /  /          
                 / \  \   | |__| |  /  /\  \   | |_| |  |  |/  /          
                |  |  |   |  __  | /  /__\  \  |    /   |      \           
                |  |  |   | |  | | |   __   |  |    \   |  |\   \          
                \     /   | |  | | |  |  |  |  | |\  \  |  | \   \       
                 \___/    |_|  |_| |__|  |__|  |_| \__\ |__|  \__/        
                                                                              
                      - O R C A' S   B I G   F R I E N D -                    
                                      &                                       
                       - I N T E G R A L  F E E D E R -                       
                                                                              
 v1 FN, 2020, v2 2021, v3 2022-2024                                           
------------------------------------------------------------------------------


----------------------
SHARK INTEGRAL PACKAGE
----------------------

Number of atoms                             ...     41
Number of basis functions                   ...    872
Number of shells                            ...    340
Maximum angular momentum                    ...      3
Integral batch strategy                     ... SHARK/LIBINT Hybrid
RI-J (if used) integral strategy            ... SPLIT-RIJ (Revised 2003 algorithm where possible)
Printlevel                                  ...      1
Contraction scheme used                     ... SEGMENTED contraction
Prescreening option                         ... SCHWARTZ
   Thresh                                   ... 2.500e-11
   Tcut                                     ... 2.500e-12
   Tpresel                                  ... 2.500e-12 
Coulomb Range Separation                    ... NOT USED
Exchange Range Separation                   ... Long Range
   Mu parameter                             ... 3.300e-01
   Scaling (regular/separated)              ... 1.900e-01 4.600e-01
Robust (split-)RI terms used:
  metric    (central integrals)             ... YES
  density   (r.h.s.  integrals)             ... YES
  potential (l.h.s.  integrals)             ... YES
Multipole approximations                    ... NOT USED
Finite Nucleus Model                        ... NOT USED
CABS basis                                  ... NOT available
Auxiliary Coulomb fitting basis             ... AVAILABLE
   # of basis functions in Aux-J            ...   1408
   # of shells in Aux-J                     ...    458
   Maximum angular momentum in Aux-J        ...      4
Auxiliary J/K fitting basis                 ... NOT available
Auxiliary Correlation fitting basis         ... NOT available
Auxiliary 'external' fitting basis          ... NOT available

Checking pre-screening integrals            ... done (  0.0 sec) Dimension = 340
   => SHARK Basis and OBASIS are compatible. Storing Pre-screening
Shell pair information
Shell pair cut-off parameter TPreSel        ...   2.5e-12
Total number of shell pairs                 ...     57970
Shell pairs after pre-screening             ...     40545
Total number of primitive shell pairs       ...    181512
Primitive shell pairs kept                  ...     83416
          la=0 lb=0:   9964 shell pairs
          la=1 lb=0:  11660 shell pairs
          la=1 lb=1:   3400 shell pairs
          la=2 lb=0:   5941 shell pairs
          la=2 lb=1:   3556 shell pairs
          la=2 lb=2:    970 shell pairs
          la=3 lb=0:   2548 shell pairs
          la=3 lb=1:   1556 shell pairs
          la=3 lb=2:    780 shell pairs
          la=3 lb=3:    170 shell pairs

Checking whether 4 symmetric matrices of dimension 872 fit in memory
:Max Core in MB      =   3000.00
 MB in use           =     52.70
 MB left             =   2947.30
 MB needed           =     11.62
 Data fit in memory  = YES
Calculating RI/J V-Matrix + Cholesky decomp.... done (  1.2 sec)
Calculating Nuclear repulsion               ... done (  0.0 sec) ENN=   2190.086224452672 Eh

Diagonalization of the overlap matrix:
Smallest eigenvalue                        ... 1.019e-05
Time for diagonalization                   ...    0.684 sec
Threshold for overlap eigenvalues          ... 1.000e-07
Number of eigenvalues below threshold      ... 0
Time for construction of square roots      ...    0.139 sec
Total time needed                          ...    0.860 sec

-------------------
DFT GRID GENERATION
-------------------

General Integration Accuracy     IntAcc      ... 4.959
Radial Grid Type                 RadialGrid  ... OptM3 with GC (2021)
Angular Grid (max. ang.)         AngularGrid ... 6 (Lebedev-590)
Angular grid pruning method      GridPruning ... 4 (adaptive)
Weight generation scheme         WeightScheme... mBecke (2022)
Basis function cutoff            BFCut       ... 1.0000e-11
Integration weight cutoff        WCut        ... 1.0000e-14
Partially contracted basis set               ... off
Rotationally invariant grid construction     ... off
Angular grids for H and He will be reduced by one unit

Total number of grid points                  ...   489901
Total number of batches                      ...     7676
Average number of points per batch           ...       63
Average number of grid points per atom       ...    11949

--------------------
COSX GRID GENERATION
--------------------

GRIDX 1
-------
General Integration Accuracy     IntAcc      ... 4.020
Radial Grid Type                 RadialGrid  ... OptM3 with GC (2021)
Angular Grid (max. ang.)         AngularGrid ... 2 (Lebedev-110)
Angular grid pruning method      GridPruning ... 4 (adaptive)
Weight generation scheme         WeightScheme... mBecke (2022)
Basis function cutoff            BFCut       ... 1.0000e-11
Integration weight cutoff        WCut        ... 1.0000e-14
Partially contracted basis set               ... on
Rotationally invariant grid construction     ... off
Angular grids for H and He will be reduced by one unit

Total number of grid points                  ...    55413
Total number of batches                      ...      455
Average number of points per batch           ...      121
Average number of grid points per atom       ...     1352
UseSFitting                                  ... on

GRIDX 2
-------
General Integration Accuracy     IntAcc      ... 4.338
Radial Grid Type                 RadialGrid  ... OptM3 with GC (2021)
Angular Grid (max. ang.)         AngularGrid ... 3 (Lebedev-194)
Angular grid pruning method      GridPruning ... 4 (adaptive)
Weight generation scheme         WeightScheme... mBecke (2022)
Basis function cutoff            BFCut       ... 1.0000e-11
Integration weight cutoff        WCut        ... 1.0000e-14
Partially contracted basis set               ... on
Rotationally invariant grid construction     ... off
Angular grids for H and He will be reduced by one unit

Total number of grid points                  ...   121895
Total number of batches                      ...      972
Average number of points per batch           ...      125
Average number of grid points per atom       ...     2973
UseSFitting                                  ... on

GRIDX 3
-------
General Integration Accuracy     IntAcc      ... 4.871
Radial Grid Type                 RadialGrid  ... OptM3 with GC (2021)
Angular Grid (max. ang.)         AngularGrid ... 4 (Lebedev-302)
Angular grid pruning method      GridPruning ... 4 (adaptive)
Weight generation scheme         WeightScheme... mBecke (2022)
Basis function cutoff            BFCut       ... 1.0000e-11
Integration weight cutoff        WCut        ... 1.0000e-14
Partially contracted basis set               ... on
Rotationally invariant grid construction     ... off
Angular grids for H and He will be reduced by one unit

Total number of grid points                  ...   225543
Total number of batches                      ...     1784
Average number of points per batch           ...      126
Average number of grid points per atom       ...     5501
UseSFitting                                  ... on
Grids setup in  25.5 sec
Initializing property integral containers    ... done (  0.0 sec)

SHARK setup successfully completed in  31.4 seconds

Maximum memory used throughout the entire STARTUP-calculation: 159.8 MB


           ************************************************************
           *        Program running with 4 parallel MPI-processes     *
           *              working on a common directory               *
           ************************************************************
-------------------------------------------------------------------------------
                                 ORCA GUESS
                   Start orbitals & Density for SCF / CASSCF
-------------------------------------------------------------------------------

------------
SCF SETTINGS
------------
Hamiltonian:
 Density Functional     Method          .... DFT(GTOs)
 Exchange Functional    Exchange        .... WB88
 Correlation Functional Correlation     .... LYP
 LDA part of GGA corr.  LDAOpt          .... VWN-5
 Gradients option       PostSCFGGA      .... off
 Hybrid DFT is turned on
   Fraction HF Exchange ScalHFX         ....  0.190000
   Scaling of DF-GGA-X  ScalDFX         ....  0.350000
   Scaling of DF-GGA-C  ScalDFC         ....  0.810000
   Scaling of DF-LDA-C  ScalLDAC        ....  1.000000
   Perturbative correction              ....  0.000000
 Long-range corrected/Screened/Range-Separated Hybrid DFT is turned on
   Amount of maximum screened exact exchange              ....  0.460000
   Range separation parameter mu (erf(mu*r12)/r12)        ....  0.330000
 RI-approximation to the Coulomb term is turned on
   Number of AuxJ basis functions       .... 1408
   RIJ-COSX (HFX calculated with COS-X)).... on


General Settings:
 Integral files         IntName         .... tddft
 Hartree-Fock type      HFTyp           .... RHF
 Total Charge           Charge          ....    0
 Multiplicity           Mult            ....    1
 Number of Electrons    NEL             ....  176
 Basis Dimension        Dim             ....  872
 Nuclear Repulsion      ENuc            ....   2190.0862244527 Eh

Convergence Acceleration:
 AO-DIIS                CNVDIIS         .... on
   Start iteration      DIISMaxIt       ....    12
   Startup error        DIISStart       ....  0.200000
   # of expansion vecs  DIISMaxEq       ....     5
   Bias factor          DIISBfac        ....   1.050
   Max. coefficient     DIISMaxC        ....  10.000
 MO-DIIS                CNVKDIIS        .... off
 Trust-Rad. Augm. Hess. CNVTRAH         .... auto
   Auto Start mean grad. ratio tolernc. ....  1.125000
   Auto Start start iteration           ....    50
   Auto Start num. interpolation iter.  ....    10
   Max. Number of Micro iterations      ....    24
   Max. Number of Macro iterations      .... Maxiter - #DIIS iter
   Number of Davidson start vectors     ....     2
   Converg. threshold    (grad. norm)   ....   1.000e-05
   Grad. Scal. Fac. for Micro threshold ....   0.100
   Minimum threshold for Micro iter.    ....   1.000e-02
   NR start threshold (gradient norm)   ....   1.000e-04
   Initial trust radius                 ....   0.400
   Minimum AH scaling param. (alpha)    ....   1.000
   Maximum AH scaling param. (alpha)    .... 1000.000
   Quad. conv. algorithm                .... NR
   White noise on init. David. guess    .... on
   Maximum white noise                  ....   0.010
   Pseudo random numbers                .... off
   Inactive MOs                         .... canonical
   Orbital update algorithm             .... Taylor
   Preconditioner                       .... Diag
   Full preconditioner red. dimension   ....   250
 SOSCF                 CNVSOSCF           .... on
   Start iteration     SOSCFMaxIt         ....   150
   Startup grad/error  SOSCFStart         ....  0.003300
   Hessian update      SOSCFHessUp        .... L-BFGS
   Autom. constraints  SOSCFAutoConstrain .... off
 Level Shifting         CNVShift        .... on
   Level shift para.    LevelShift      ....    0.2500
   Turn off err/grad.   ShiftErr        ....    0.0010
 Zerner damping         CNVZerner       .... off
 Static damping         CNVDamp         .... on
   Fraction old density DampFac         ....    0.7000
   Max. Damping (<1)    DampMax         ....    0.9800
   Min. Damping (>=0)   DampMin         ....    0.0000
   Turn off err/grad.   DampErr         ....    0.1000

SCF Procedure:
 Maximum # iterations   MaxIter         ....   125
 SCF integral mode      SCFMode         .... Direct
   Integral package                     .... SHARK and LIBINT hybrid scheme
 Reset frequency        DirectResetFreq ....    20
 Integral Threshold     Thresh          ....  2.500e-11 Eh
 Primitive CutOff       TCut            ....  2.500e-12 Eh

Convergence Tolerance:
 Convergence Check Mode ConvCheckMode   .... Total+1el-Energy
 Convergence forced     ConvForced      .... 1
 Energy Change          TolE            ....  1.000e-08 Eh
 1-El. energy change                    ....  1.000e-05 Eh
 Orbital Gradient       TolG            ....  1.000e-05
 Orbital Rotation angle TolX            ....  1.000e-05
 DIIS Error             TolErr          ....  5.000e-07

------------------------------
INITIAL GUESS: MODEL POTENTIAL
------------------------------
Loading Hartree-Fock densities                     ... done
Calculating cut-offs                               ... done
Initializing the effective Hamiltonian             ... done
Setting up the integral package (SHARK)            ... done
Starting the Coulomb interaction                   ... done (   2.7 sec)
Making the grid                                    ... done (   1.1 sec)
Mapping shells                                     ... done
Starting the XC term evaluation                    ... done (   2.7 sec)
  promolecular density results
     # of electrons  =    176.013752315
     EX              =   -149.316411799
     EC              =     -5.985031575
     EX+EC           =   -155.301443373
Transforming the Hamiltonian                       ... done (   0.2 sec)
Diagonalizing the Hamiltonian                      ... done (   0.3 sec)
Back transforming the eigenvectors                 ... done (   0.1 sec)
Now organizing SCF variables                       ... done
                      ------------------
                      INITIAL GUESS DONE (   7.2 sec)
                      ------------------
             **** ENERGY FILE WAS UPDATED (tddft.en.tmp) ****
Finished Guess after   7.8 sec
Maximum memory used throughout the entire GUESS-calculation: 88.7 MB


           ************************************************************
           *        Program running with 4 parallel MPI-processes     *
           *              working on a common directory               *
           ************************************************************

-------------------------------------------------------------------------------------------
                                      ORCA LEAN-SCF
                              memory conserving SCF solver
-------------------------------------------------------------------------------------------

----------------------------------------D-I-I-S--------------------------------------------
Iteration    Energy (Eh)           Delta-E    RMSDP     MaxDP     DIISErr   Damp  Time(sec)
-------------------------------------------------------------------------------------------
               ***  Starting incremental Fock matrix formation  ***
    1    -1190.2599025693371004     0.00e+00  2.12e-03  4.24e-02  2.18e-01  0.700 250.4
    2    -1190.4883717361553863    -2.28e-01  1.62e-03  3.10e-02  1.11e-01  0.700 104.1
                               ***Turning on AO-DIIS***
    3    -1190.5997504799975104    -1.11e-01  9.57e-04  2.53e-02  4.37e-02  0.700 100.0
    4    -1190.6654853523014026    -6.57e-02  2.12e-03  6.18e-02  2.98e-02  0.000  92.9
    5    -1190.8057244910564805    -1.40e-01  1.91e-04  4.33e-03  3.81e-03  0.000 109.7
                              *** Initializing SOSCF ***
---------------------------------------S-O-S-C-F--------------------------------------
Iteration    Energy (Eh)           Delta-E    RMSDP     MaxDP     MaxGrad    Time(sec)
--------------------------------------------------------------------------------------
    6    -1190.8061592978447152    -4.35e-04  8.43e-05  1.48e-03  2.51e-03    60.0
               *** Restarting incremental Fock matrix formation ***
    7    -1190.8062151058875315    -5.58e-05  6.44e-05  1.13e-03  6.55e-04   203.0
    8    -1190.8062299172829626    -1.48e-05  4.20e-05  7.65e-04  2.55e-04   150.8
    9    -1190.8062305865460075    -6.69e-07  2.17e-05  3.89e-04  1.72e-04   126.8
   10    -1190.8062328222431461    -2.24e-06  4.87e-06  1.31e-04  1.81e-05   105.0
   11    -1190.8062328617224921    -3.95e-08  2.86e-06  7.50e-05  1.72e-05    85.5
   12    -1190.8062328670266652    -5.30e-09  4.28e-06  1.16e-04  6.30e-06    79.8
                 **** Energy Check signals convergence ****

               *****************************************************
               *                     SUCCESS                       *
               *           SCF CONVERGED AFTER  12 CYCLES          *
               *****************************************************

Recomputing exchange energy using gridx3       ... done (  286.238 sec)
Old exchange energy                            :    -42.672200041 Eh
New exchange energy                            :    -42.672198588 Eh
Exchange energy change after final integration :      0.000001453 Eh
Total energy after final integration           :  -1190.806231428 Eh
             **** ENERGY FILE WAS UPDATED (tddft.en.tmp) ****

----------------
TOTAL SCF ENERGY
----------------

Total Energy       :      -1190.80623142818376 Eh          -32403.48492 eV

Components:
Nuclear Repulsion  :       2190.08622445267247 Eh           59595.27593 eV
Electronic Energy  :      -3380.89245733364169 Eh          -91998.76089 eV
One Electron Energy:      -5978.29851788664200 Eh         -162677.77305 eV
Two Electron Energy:       2597.40606055300032 Eh           70679.01216 eV

Virial components:
Potential Energy   :      -2376.33457027464829 Eh          -64663.35108 eV
Kinetic Energy     :       1185.52833884646475 Eh           32259.86616 eV
Virial Ratio       :          2.00445193287143

DFT components:
N(Alpha)           :       87.999995616272 electrons
N(Beta)            :       87.999995616272 electrons
N(Total)           :      175.999991232544 electrons
E(XC)              :     -115.948428931162 Eh       

---------------
SCF CONVERGENCE
---------------

  Last Energy change         ...    5.3042e-09  Tolerance :   1.0000e-08
  Last MAX-Density change    ...    1.1632e-04  Tolerance :   1.0000e-07
  Last RMS-Density change    ...    4.2826e-06  Tolerance :   5.0000e-09
  Last DIIS Error            ...    2.5100e-03  Tolerance :   5.0000e-07
  Last Orbital Gradient      ...    6.2999e-06  Tolerance :   1.0000e-05
  Last Orbital Rotation      ...    2.7249e-05  Tolerance :   1.0000e-05


----------------
ORBITAL ENERGIES
----------------

  NO   OCC          E(Eh)            E(eV) 
   0   2.0000     -46.842640     -1274.6530 
   1   2.0000     -14.396101      -391.7378 
   2   2.0000     -14.396096      -391.7377 
   3   2.0000     -14.366549      -390.9337 
   4   2.0000     -14.366530      -390.9332 
   5   2.0000     -10.282874      -279.8112 
   6   2.0000     -10.282864      -279.8110 
   7   2.0000     -10.282827      -279.8100 
   8   2.0000     -10.282818      -279.8097 
   9   2.0000     -10.269694      -279.4526 
  10   2.0000     -10.269671      -279.4519 
  11   2.0000     -10.269647      -279.4513 
  12   2.0000     -10.269624      -279.4507 
  13   2.0000     -10.252004      -278.9712 
  14   2.0000     -10.251999      -278.9711 
  15   2.0000     -10.251801      -278.9657 
  16   2.0000     -10.251796      -278.9655 
  17   2.0000     -10.239266      -278.6246 
  18   2.0000     -10.239259      -278.6244 
  19   2.0000     -10.239259      -278.6244 
  20   2.0000     -10.239253      -278.6242 
  21   2.0000     -10.234618      -278.4981 
  22   2.0000     -10.234581      -278.4971 
  23   2.0000     -10.233917      -278.4790 
  24   2.0000     -10.233881      -278.4781 
  25   2.0000      -3.130188       -85.1768 
  26   2.0000      -1.877693       -51.0946 
  27   2.0000      -1.872427       -50.9513 
  28   2.0000      -1.871289       -50.9204 
  29   2.0000      -1.043530       -28.3959 
  30   2.0000      -1.038789       -28.2669 
  31   2.0000      -1.026961       -27.9450 
  32   2.0000      -1.021300       -27.7910 
  33   2.0000      -0.892992       -24.2995 
  34   2.0000      -0.869961       -23.6729 
  35   2.0000      -0.859998       -23.4017 
  36   2.0000      -0.855207       -23.2714 
  37   2.0000      -0.854079       -23.2407 
  38   2.0000      -0.834487       -22.7075 
  39   2.0000      -0.834452       -22.7066 
  40   2.0000      -0.810758       -22.0618 
  41   2.0000      -0.795197       -21.6384 
  42   2.0000      -0.736673       -20.0459 
  43   2.0000      -0.725612       -19.7449 
  44   2.0000      -0.693907       -18.8822 
  45   2.0000      -0.671721       -18.2784 
  46   2.0000      -0.641012       -17.4428 
  47   2.0000      -0.640962       -17.4415 
  48   2.0000      -0.636907       -17.3311 
  49   2.0000      -0.626620       -17.0512 
  50   2.0000      -0.603718       -16.4280 
  51   2.0000      -0.587972       -15.9995 
  52   2.0000      -0.580535       -15.7972 
  53   2.0000      -0.572645       -15.5824 
  54   2.0000      -0.567013       -15.4292 
  55   2.0000      -0.553792       -15.0695 
  56   2.0000      -0.550430       -14.9780 
  57   2.0000      -0.547958       -14.9107 
  58   2.0000      -0.505013       -13.7421 
  59   2.0000      -0.504594       -13.7307 
  60   2.0000      -0.483484       -13.1563 
  61   2.0000      -0.480096       -13.0641 
  62   2.0000      -0.479146       -13.0382 
  63   2.0000      -0.470167       -12.7939 
  64   2.0000      -0.469242       -12.7687 
  65   2.0000      -0.466018       -12.6810 
  66   2.0000      -0.452303       -12.3078 
  67   2.0000      -0.448822       -12.2131 
  68   2.0000      -0.443355       -12.0643 
  69   2.0000      -0.441038       -12.0013 
  70   2.0000      -0.440179       -11.9779 
  71   2.0000      -0.428838       -11.6693 
  72   2.0000      -0.428109       -11.6494 
  73   2.0000      -0.425622       -11.5818 
  74   2.0000      -0.424512       -11.5515 
  75   2.0000      -0.424269       -11.5450 
  76   2.0000      -0.422727       -11.5030 
  77   2.0000      -0.415854       -11.3160 
  78   2.0000      -0.374485       -10.1902 
  79   2.0000      -0.374477       -10.1900 
  80   2.0000      -0.366026        -9.9601 
  81   2.0000      -0.345432        -9.3997 
  82   2.0000      -0.326101        -8.8737 
  83   2.0000      -0.313378        -8.5274 
  84   2.0000      -0.303066        -8.2469 
  85   2.0000      -0.295611        -8.0440 
  86   2.0000      -0.236871        -6.4456 
  87   2.0000      -0.197634        -5.3779 
  88   0.0000      -0.067476        -1.8361 
  89   0.0000      -0.002757        -0.0750 
  90   0.0000       0.036187         0.9847 
  91   0.0000       0.057887         1.5752 
  92   0.0000       0.066406         1.8070 
  93   0.0000       0.069168         1.8821 
  94   0.0000       0.076704         2.0872 
  95   0.0000       0.082050         2.2327 
  96   0.0000       0.084917         2.3107 
  97   0.0000       0.090983         2.4758 
  98   0.0000       0.096246         2.6190 
*Only the first 10 virtual orbitals were printed.

                    ********************************
                    * MULLIKEN POPULATION ANALYSIS *
                    ********************************

-----------------------
MULLIKEN ATOMIC CHARGES
-----------------------
   0 N :   -0.338202
   1 N :   -0.338077
   2 N :   -0.387132
   3 N :   -0.387082
   4 C :   -0.198041
   5 C :   -0.198318
   6 C :   -0.198322
   7 C :   -0.198072
   8 C :    0.167415
   9 C :    0.167612
  10 C :    0.167519
  11 C :    0.167437
  12 C :    0.255821
  13 C :    0.255837
  14 C :    0.255826
  15 C :    0.255776
  16 C :   -0.285058
  17 C :   -0.285144
  18 C :   -0.285002
  19 C :   -0.285103
  20 C :   -0.211107
  21 C :   -0.210902
  22 C :   -0.211099
  23 C :   -0.210876
  24 H :    0.110344
  25 H :    0.121878
  26 H :    0.110338
  27 H :    0.121917
  28 H :    0.121894
  29 H :    0.110368
  30 H :    0.121882
  31 H :    0.110361
  32 H :    0.115216
  33 H :    0.115204
  34 H :    0.115220
  35 H :    0.115221
  36 H :    0.120330
  37 H :    0.120356
  38 H :    0.120379
  39 H :    0.120371
  40 Mg:    0.663015
Sum of atomic charges:    0.0000000

--------------------------------
MULLIKEN REDUCED ORBITAL CHARGES
--------------------------------
  0 N s       :     3.684271  s :     3.684271
      pz      :     1.277343  p :     3.593258
      px      :     1.301280
      py      :     1.014635
      dz2     :     0.003767  d :     0.057187
      dxz     :     0.005620
      dyz     :     0.016314
      dx2y2   :     0.015621
      dxy     :     0.015864
      f0      :     0.000641  f :     0.003487
      f+1     :     0.000244
      f-1     :     0.000347
      f+2     :     0.000094
      f-2     :     0.000567
      f+3     :     0.000588
      f-3     :     0.001006

  1 N s       :     3.684231  s :     3.684231
      pz      :     1.277492  p :     3.593176
      px      :     1.301073
      py      :     1.014611
      dz2     :     0.003766  d :     0.057182
      dxz     :     0.005616
      dyz     :     0.016315
      dx2y2   :     0.015624
      dxy     :     0.015861
      f0      :     0.000641  f :     0.003487
      f+1     :     0.000244
      f-1     :     0.000347
      f+2     :     0.000094
      f-2     :     0.000567
      f+3     :     0.000588
      f-3     :     0.001006

  2 N s       :     3.680332  s :     3.680332
      pz      :     1.396498  p :     3.649860
      px      :     1.011561
      py      :     1.241801
      dz2     :     0.003958  d :     0.053419
      dxz     :     0.013902
      dyz     :     0.005043
      dx2y2   :     0.015459
      dxy     :     0.015057
      f0      :     0.000654  f :     0.003521
      f+1     :     0.000389
      f-1     :     0.000315
      f+2     :     0.000066
      f-2     :     0.000605
      f+3     :     0.000918
      f-3     :     0.000573

  3 N s       :     3.680357  s :     3.680357
      pz      :     1.396821  p :     3.649784
      px      :     1.011201
      py      :     1.241762
      dz2     :     0.003936  d :     0.053421
      dxz     :     0.013922
      dyz     :     0.005035
      dx2y2   :     0.015466
      dxy     :     0.015062
      f0      :     0.000656  f :     0.003521
      f+1     :     0.000388
      f-1     :     0.000315
      f+2     :     0.000065
      f-2     :     0.000605
      f+3     :     0.000919
      f-3     :     0.000573

  4 C s       :     3.228668  s :     3.228668
      pz      :     1.046989  p :     2.890070
      px      :     0.911307
      py      :     0.931775
      dz2     :     0.004465  d :     0.073471
      dxz     :     0.015083
      dyz     :     0.015247
      dx2y2   :     0.015433
      dxy     :     0.023244
      f0      :     0.000750  f :     0.005832
      f+1     :     0.000694
      f-1     :     0.000561
      f+2     :     0.000779
      f-2     :     0.000349
      f+3     :     0.001546
      f-3     :     0.001153

  5 C s       :     3.229011  s :     3.229011
      pz      :     1.046973  p :     2.889998
      px      :     0.911415
      py      :     0.931609
      dz2     :     0.004477  d :     0.073477
      dxz     :     0.015070
      dyz     :     0.015249
      dx2y2   :     0.015433
      dxy     :     0.023248
      f0      :     0.000751  f :     0.005832
      f+1     :     0.000695
      f-1     :     0.000559
      f+2     :     0.000778
      f-2     :     0.000350
      f+3     :     0.001547
      f-3     :     0.001152

  6 C s       :     3.228959  s :     3.228959
      pz      :     1.046811  p :     2.890055
      px      :     0.911606
      py      :     0.931637
      dz2     :     0.004336  d :     0.073477
      dxz     :     0.015215
      dyz     :     0.015272
      dx2y2   :     0.015425
      dxy     :     0.023229
      f0      :     0.000724  f :     0.005832
      f+1     :     0.000713
      f-1     :     0.000569
      f+2     :     0.000783
      f-2     :     0.000346
      f+3     :     0.001550
      f-3     :     0.001147

  7 C s       :     3.228681  s :     3.228681
      pz      :     1.046823  p :     2.890077
      px      :     0.911509
      py      :     0.931746
      dz2     :     0.004345  d :     0.073482
      dxz     :     0.015217
      dyz     :     0.015264
      dx2y2   :     0.015424
      dxy     :     0.023232
      f0      :     0.000724  f :     0.005832
      f+1     :     0.000711
      f-1     :     0.000571
      f+2     :     0.000784
      f-2     :     0.000345
      f+3     :     0.001549
      f-3     :     0.001148

  8 C s       :     3.173022  s :     3.173022
      pz      :     0.903836  p :     2.492458
      px      :     0.822354
      py      :     0.766268
      dz2     :     0.003231  d :     0.152967
      dxz     :     0.021058
      dyz     :     0.041922
      dx2y2   :     0.044714
      dxy     :     0.042043
      f0      :     0.001981  f :     0.014138
      f+1     :     0.000902
      f-1     :     0.000910
      f+2     :     0.001240
      f-2     :     0.001565
      f+3     :     0.002807
      f-3     :     0.004733

  9 C s       :     3.172947  s :     3.172947
      pz      :     0.903830  p :     2.492325
      px      :     0.821892
      py      :     0.766603
      dz2     :     0.003233  d :     0.152977
      dxz     :     0.021068
      dyz     :     0.041920
      dx2y2   :     0.044731
      dxy     :     0.042026
      f0      :     0.001981  f :     0.014138
      f+1     :     0.000903
      f-1     :     0.000909
      f+2     :     0.001237
      f-2     :     0.001567
      f+3     :     0.002817
      f-3     :     0.004723

 10 C s       :     3.172947  s :     3.172947
      pz      :     0.904135  p :     2.492428
      px      :     0.821615
      py      :     0.766678
      dz2     :     0.003059  d :     0.152968
      dxz     :     0.021134
      dyz     :     0.041914
      dx2y2   :     0.044835
      dxy     :     0.042026
      f0      :     0.001987  f :     0.014138
      f+1     :     0.000896
      f-1     :     0.000907
      f+2     :     0.001238
      f-2     :     0.001567
      f+3     :     0.002819
      f-3     :     0.004725

 11 C s       :     3.173013  s :     3.173013
      pz      :     0.904128  p :     2.492430
      px      :     0.821999
      py      :     0.766302
      dz2     :     0.003059  d :     0.152982
      dxz     :     0.021125
      dyz     :     0.041929
      dx2y2   :     0.044815
      dxy     :     0.042055
      f0      :     0.001987  f :     0.014139
      f+1     :     0.000895
      f-1     :     0.000908
      f+2     :     0.001240
      f-2     :     0.001564
      f+3     :     0.002809
      f-3     :     0.004736

 12 C s       :     3.154532  s :     3.154532
      pz      :     0.901009  p :     2.421333
      px      :     0.740667
      py      :     0.779657
      dz2     :     0.004099  d :     0.153757
      dxz     :     0.038870
      dyz     :     0.030711
      dx2y2   :     0.040956
      dxy     :     0.039120
      f0      :     0.002177  f :     0.014557
      f+1     :     0.001033
      f-1     :     0.000808
      f+2     :     0.000870
      f-2     :     0.002168
      f+3     :     0.004416
      f-3     :     0.003085

 13 C s       :     3.154482  s :     3.154482
      pz      :     0.900996  p :     2.421366
      px      :     0.740442
      py      :     0.779929
      dz2     :     0.004101  d :     0.153758
      dxz     :     0.038878
      dyz     :     0.030704
      dx2y2   :     0.040923
      dxy     :     0.039151
      f0      :     0.002176  f :     0.014557
      f+1     :     0.001034
      f-1     :     0.000808
      f+2     :     0.000875
      f-2     :     0.002164
      f+3     :     0.004428
      f-3     :     0.003073

 14 C s       :     3.154563  s :     3.154563
      pz      :     0.901165  p :     2.421286
      px      :     0.740246
      py      :     0.779875
      dz2     :     0.004018  d :     0.153766
      dxz     :     0.038993
      dyz     :     0.030691
      dx2y2   :     0.040906
      dxy     :     0.039159
      f0      :     0.002183  f :     0.014558
      f+1     :     0.001026
      f-1     :     0.000806
      f+2     :     0.000871
      f-2     :     0.002164
      f+3     :     0.004433
      f-3     :     0.003075

 15 C s       :     3.154489  s :     3.154489
      pz      :     0.901161  p :     2.421416
      px      :     0.740517
      py      :     0.779737
      dz2     :     0.004017  d :     0.153762
      dxz     :     0.038985
      dyz     :     0.030699
      dx2y2   :     0.040923
      dxy     :     0.039138
      f0      :     0.002183  f :     0.014558
      f+1     :     0.001025
      f-1     :     0.000807
      f+2     :     0.000867
      f-2     :     0.002168
      f+3     :     0.004421
      f-3     :     0.003087

 16 C s       :     3.264136  s :     3.264136
      pz      :     1.066990  p :     2.948846
      px      :     0.933120
      py      :     0.948736
      dz2     :     0.003464  d :     0.064983
      dxz     :     0.015273
      dyz     :     0.015910
      dx2y2   :     0.007319
      dxy     :     0.023017
      f0      :     0.001484  f :     0.007093
      f+1     :     0.000564
      f-1     :     0.000544
      f+2     :     0.000833
      f-2     :     0.000404
      f+3     :     0.001559
      f-3     :     0.001705

 17 C s       :     3.264240  s :     3.264240
      pz      :     1.067020  p :     2.948822
      px      :     0.933322
      py      :     0.948481
      dz2     :     0.003465  d :     0.064989
      dxz     :     0.015222
      dyz     :     0.015958
      dx2y2   :     0.007325
      dxy     :     0.023019
      f0      :     0.001484  f :     0.007093
      f+1     :     0.000565
      f-1     :     0.000544
      f+2     :     0.000833
      f-2     :     0.000403
      f+3     :     0.001563
      f-3     :     0.001701

 18 C s       :     3.264087  s :     3.264087
      pz      :     1.067325  p :     2.948854
      px      :     0.932997
      py      :     0.948532
      dz2     :     0.003449  d :     0.064968
      dxz     :     0.015245
      dyz     :     0.015952
      dx2y2   :     0.007308
      dxy     :     0.023014
      f0      :     0.001487  f :     0.007093
      f+1     :     0.000561
      f-1     :     0.000546
      f+2     :     0.000833
      f-2     :     0.000400
      f+3     :     0.001564
      f-3     :     0.001703

 19 C s       :     3.264100  s :     3.264100
      pz      :     1.067360  p :     2.948951
      px      :     0.932870
      py      :     0.948720
      dz2     :     0.003451  d :     0.064960
      dxz     :     0.015295
      dyz     :     0.015901
      dx2y2   :     0.007294
      dxy     :     0.023019
      f0      :     0.001487  f :     0.007093
      f+1     :     0.000561
      f-1     :     0.000546
      f+2     :     0.000833
      f-2     :     0.000400
      f+3     :     0.001560
      f-3     :     0.001707

 20 C s       :     3.248604  s :     3.248604
      pz      :     1.017864  p :     2.881210
      px      :     0.945743
      py      :     0.917602
      dz2     :     0.004920  d :     0.073520
      dxz     :     0.019787
      dyz     :     0.010767
      dx2y2   :     0.013455
      dxy     :     0.024592
      f0      :     0.001505  f :     0.007773
      f+1     :     0.000508
      f-1     :     0.000679
      f+2     :     0.001195
      f-2     :     0.000226
      f+3     :     0.001397
      f-3     :     0.002262

 21 C s       :     3.248418  s :     3.248418
      pz      :     1.017877  p :     2.881197
      px      :     0.945856
      py      :     0.917464
      dz2     :     0.004920  d :     0.073514
      dxz     :     0.019757
      dyz     :     0.010796
      dx2y2   :     0.013456
      dxy     :     0.024585
      f0      :     0.001505  f :     0.007772
      f+1     :     0.000509
      f-1     :     0.000678
      f+2     :     0.001199
      f-2     :     0.000222
      f+3     :     0.001399
      f-3     :     0.002261

 22 C s       :     3.248568  s :     3.248568
      pz      :     1.017879  p :     2.881239
      px      :     0.945851
      py      :     0.917508
      dz2     :     0.004884  d :     0.073520
      dxz     :     0.019797
      dyz     :     0.010783
      dx2y2   :     0.013457
      dxy     :     0.024597
      f0      :     0.001511  f :     0.007772
      f+1     :     0.000500
      f-1     :     0.000679
      f+2     :     0.001202
      f-2     :     0.000218
      f+3     :     0.001398
      f-3     :     0.002264

 23 C s       :     3.248355  s :     3.248355
      pz      :     1.017884  p :     2.881230
      px      :     0.945715
      py      :     0.917632
      dz2     :     0.004883  d :     0.073519
      dxz     :     0.019826
      dyz     :     0.010755
      dx2y2   :     0.013449
      dxy     :     0.024606
      f0      :     0.001511  f :     0.007772
      f+1     :     0.000500
      f-1     :     0.000680
      f+2     :     0.001198
      f-2     :     0.000222
      f+3     :     0.001397
      f-3     :     0.002265

 24 H s       :     0.868254  s :     0.868254
      pz      :     0.011321  p :     0.021403
      px      :     0.005454
      py      :     0.004628

 25 H s       :     0.856836  s :     0.856836
      pz      :     0.007773  p :     0.021286
      px      :     0.006993
      py      :     0.006520

 26 H s       :     0.868259  s :     0.868259
      pz      :     0.011325  p :     0.021403
      px      :     0.005455
      py      :     0.004623

 27 H s       :     0.856798  s :     0.856798
      pz      :     0.007768  p :     0.021285
      px      :     0.007006
      py      :     0.006511

 28 H s       :     0.856821  s :     0.856821
      pz      :     0.007871  p :     0.021285
      px      :     0.006905
      py      :     0.006510

 29 H s       :     0.868229  s :     0.868229
      pz      :     0.011226  p :     0.021403
      px      :     0.005552
      py      :     0.004625

 30 H s       :     0.856833  s :     0.856833
      pz      :     0.007869  p :     0.021285
      px      :     0.006896
      py      :     0.006520

 31 H s       :     0.868236  s :     0.868236
      pz      :     0.011228  p :     0.021403
      px      :     0.005546
      py      :     0.004628

 32 H s       :     0.862496  s :     0.862496
      pz      :     0.005393  p :     0.022288
      px      :     0.008247
      py      :     0.008648

 33 H s       :     0.862508  s :     0.862508
      pz      :     0.005393  p :     0.022288
      px      :     0.008267
      py      :     0.008628

 34 H s       :     0.862492  s :     0.862492
      pz      :     0.005389  p :     0.022288
      px      :     0.008273
      py      :     0.008627

 35 H s       :     0.862491  s :     0.862491
      pz      :     0.005389  p :     0.022288
      px      :     0.008252
      py      :     0.008648

 36 H s       :     0.857625  s :     0.857625
      pz      :     0.004867  p :     0.022045
      px      :     0.007168
      py      :     0.010009

 37 H s       :     0.857600  s :     0.857600
      pz      :     0.004868  p :     0.022045
      px      :     0.007187
      py      :     0.009990

 38 H s       :     0.857576  s :     0.857576
      pz      :     0.004865  p :     0.022045
      px      :     0.007192
      py      :     0.009987

 39 H s       :     0.857585  s :     0.857585
      pz      :     0.004865  p :     0.022045
      px      :     0.007173
      py      :     0.010006

 40 Mgs       :     4.600896  s :     4.600896
      pz      :     2.088275  p :     6.471855
      px      :     2.173646
      py      :     2.209934
      dz2     :     0.032430  d :     0.264234
      dxz     :     0.013137
      dyz     :     0.034431
      dx2y2   :     0.174570
      dxy     :     0.009665



                     *******************************
                     * LOEWDIN POPULATION ANALYSIS *
                     *******************************

----------------------
LOEWDIN ATOMIC CHARGES
----------------------
   0 N :    0.200550
   1 N :    0.200535
   2 N :    0.159546
   3 N :    0.159576
   4 C :   -0.196883
   5 C :   -0.196883
   6 C :   -0.196876
   7 C :   -0.196871
   8 C :   -0.199556
   9 C :   -0.199530
  10 C :   -0.199526
  11 C :   -0.199504
  12 C :   -0.200211
  13 C :   -0.200209
  14 C :   -0.200203
  15 C :   -0.200192
  16 C :   -0.122574
  17 C :   -0.122586
  18 C :   -0.122602
  19 C :   -0.122615
  20 C :   -0.124556
  21 C :   -0.124560
  22 C :   -0.124521
  23 C :   -0.124525
  24 H :    0.144737
  25 H :    0.141274
  26 H :    0.144751
  27 H :    0.141269
  28 H :    0.141272
  29 H :    0.144736
  30 H :    0.141276
  31 H :    0.144735
  32 H :    0.157520
  33 H :    0.157520
  34 H :    0.157525
  35 H :    0.157526
  36 H :    0.138061
  37 H :    0.138060
  38 H :    0.138062
  39 H :    0.138063
  40 Mg:    0.328389

-------------------------------
LOEWDIN REDUCED ORBITAL CHARGES
-------------------------------
  0 N s       :     2.973771  s :     2.973771
      pz      :     1.119850  p :     3.595757
      px      :     1.352841
      py      :     1.123066
      dz2     :     0.016090  d :     0.211255
      dxz     :     0.009425
      dyz     :     0.049704
      dx2y2   :     0.063210
      dxy     :     0.072827
      f0      :     0.001095  f :     0.018666
      f+1     :     0.000787
      f-1     :     0.001819
      f+2     :     0.000320
      f-2     :     0.003503
      f+3     :     0.003859
      f-3     :     0.007284

  1 N s       :     2.973738  s :     2.973738
      pz      :     1.119947  p :     3.595814
      px      :     1.352806
      py      :     1.123061
      dz2     :     0.016089  d :     0.211248
      dxz     :     0.009423
      dyz     :     0.049701
      dx2y2   :     0.063212
      dxy     :     0.072822
      f0      :     0.001095  f :     0.018665
      f+1     :     0.000787
      f-1     :     0.001819
      f+2     :     0.000320
      f-2     :     0.003502
      f+3     :     0.003858
      f-3     :     0.007283

  2 N s       :     2.971085  s :     2.971085
      pz      :     1.218932  p :     3.653124
      px      :     1.105409
      py      :     1.328782
      dz2     :     0.015812  d :     0.197900
      dxz     :     0.043111
      dyz     :     0.010807
      dx2y2   :     0.060351
      dxy     :     0.067819
      f0      :     0.001080  f :     0.018344
      f+1     :     0.001765
      f-1     :     0.000864
      f+2     :     0.000190
      f-2     :     0.003693
      f+3     :     0.006792
      f-3     :     0.003960

  3 N s       :     2.971032  s :     2.971032
      pz      :     1.218992  p :     3.653123
      px      :     1.105351
      py      :     1.328780
      dz2     :     0.015768  d :     0.197923
      dxz     :     0.043132
      dyz     :     0.010765
      dx2y2   :     0.060392
      dxy     :     0.067867
      f0      :     0.001078  f :     0.018347
      f+1     :     0.001768
      f-1     :     0.000860
      f+2     :     0.000184
      f-2     :     0.003695
      f+3     :     0.006800
      f-3     :     0.003963

  4 C s       :     2.764076  s :     2.764076
      pz      :     1.034638  p :     3.028383
      px      :     0.994025
      py      :     0.999721
      dz2     :     0.048348  d :     0.363880
      dxz     :     0.071862
      dyz     :     0.067370
      dx2y2   :     0.085415
      dxy     :     0.090885
      f0      :     0.004464  f :     0.040543
      f+1     :     0.003645
      f-1     :     0.003576
      f+2     :     0.005438
      f-2     :     0.004784
      f+3     :     0.011194
      f-3     :     0.007441

  5 C s       :     2.764072  s :     2.764072
      pz      :     1.034628  p :     3.028372
      px      :     0.994048
      py      :     0.999696
      dz2     :     0.048402  d :     0.363894
      dxz     :     0.071905
      dyz     :     0.067271
      dx2y2   :     0.085365
      dxy     :     0.090951
      f0      :     0.004468  f :     0.040544
      f+1     :     0.003643
      f-1     :     0.003574
      f+2     :     0.005438
      f-2     :     0.004787
      f+3     :     0.011204
      f-3     :     0.007431

  6 C s       :     2.764082  s :     2.764082
      pz      :     1.034679  p :     3.028377
      px      :     0.994001
      py      :     0.999697
      dz2     :     0.047297  d :     0.363875
      dxz     :     0.072887
      dyz     :     0.067635
      dx2y2   :     0.085455
      dxy     :     0.090601
      f0      :     0.004380  f :     0.040542
      f+1     :     0.003733
      f-1     :     0.003634
      f+2     :     0.005384
      f-2     :     0.004727
      f+3     :     0.011251
      f-3     :     0.007432

  7 C s       :     2.764081  s :     2.764081
      pz      :     1.034675  p :     3.028369
      px      :     0.993972
      py      :     0.999723
      dz2     :     0.047329  d :     0.363879
      dxz     :     0.072791
      dyz     :     0.067704
      dx2y2   :     0.085496
      dxy     :     0.090559
      f0      :     0.004381  f :     0.040542
      f+1     :     0.003731
      f-1     :     0.003635
      f+2     :     0.005387
      f-2     :     0.004726
      f+3     :     0.011240
      f-3     :     0.007442

  8 C s       :     2.709873  s :     2.709873
      pz      :     0.836653  p :     2.790454
      px      :     0.960792
      py      :     0.993009
      dz2     :     0.041700  d :     0.622083
      dxz     :     0.067911
      dyz     :     0.121298
      dx2y2   :     0.200960
      dxy     :     0.190215
      f0      :     0.005286  f :     0.077145
      f+1     :     0.004558
      f-1     :     0.006142
      f+2     :     0.006716
      f-2     :     0.010471
      f+3     :     0.015604
      f-3     :     0.028368

  9 C s       :     2.709867  s :     2.709867
      pz      :     0.836651  p :     2.790439
      px      :     0.960635
      py      :     0.993153
      dz2     :     0.041702  d :     0.622080
      dxz     :     0.067936
      dyz     :     0.121283
      dx2y2   :     0.200924
      dxy     :     0.190235
      f0      :     0.005286  f :     0.077144
      f+1     :     0.004562
      f-1     :     0.006138
      f+2     :     0.006704
      f-2     :     0.010483
      f+3     :     0.015673
      f-3     :     0.028297

 10 C s       :     2.709870  s :     2.709870
      pz      :     0.836434  p :     2.790424
      px      :     0.960821
      py      :     0.993169
      dz2     :     0.041432  d :     0.622087
      dxz     :     0.068031
      dyz     :     0.121223
      dx2y2   :     0.201118
      dxy     :     0.190284
      f0      :     0.005294  f :     0.077144
      f+1     :     0.004533
      f-1     :     0.006122
      f+2     :     0.006710
      f-2     :     0.010475
      f+3     :     0.015689
      f-3     :     0.028321

 11 C s       :     2.709868  s :     2.709868
      pz      :     0.836429  p :     2.790408
      px      :     0.960964
      py      :     0.993015
      dz2     :     0.041433  d :     0.622085
      dxz     :     0.068001
      dyz     :     0.121260
      dx2y2   :     0.201126
      dxy     :     0.190265
      f0      :     0.005294  f :     0.077143
      f+1     :     0.004530
      f-1     :     0.006125
      f+2     :     0.006719
      f-2     :     0.010466
      f+3     :     0.015620
      f-3     :     0.028388

 12 C s       :     2.694885  s :     2.694885
      pz      :     0.838530  p :     2.787936
      px      :     0.971547
      py      :     0.977859
      dz2     :     0.042315  d :     0.637346
      dxz     :     0.111786
      dyz     :     0.093275
      dx2y2   :     0.196914
      dxy     :     0.193056
      f0      :     0.005052  f :     0.080043
      f+1     :     0.006079
      f-1     :     0.004784
      f+2     :     0.006171
      f-2     :     0.013509
      f+3     :     0.026329
      f-3     :     0.018118

 13 C s       :     2.694885  s :     2.694885
      pz      :     0.838516  p :     2.787926
      px      :     0.971397
      py      :     0.978014
      dz2     :     0.042317  d :     0.637354
      dxz     :     0.111845
      dyz     :     0.093222
      dx2y2   :     0.196887
      dxy     :     0.193083
      f0      :     0.005052  f :     0.080044
      f+1     :     0.006082
[...]
     Transition      Energy     Energy  Wavelength fosc(P2)      P2        PX        PY        PZ   
                      (eV)      (cm-1)    (nm)                 (au**2)    (au)      (au)      (au)  
----------------------------------------------------------------------------------------------------
  0-1A  ->  1-1A    2.142929   17283.9   578.6   0.589078312   0.06959  -0.00025   0.26379   0.00002
  0-1A  ->  2-1A    2.600941   20978.0   476.7   0.006130905   0.00088   0.02965   0.00003   0.00026
  0-1A  ->  3-1A    3.796728   30622.7   326.6   0.000030725   0.00001   0.00007   0.00002  -0.00253
  0-1A  ->  4-1A    3.995408   32225.1   310.3   0.005209074   0.00115   0.03387   0.00004   0.00027
  0-1A  ->  5-1A    4.120752   33236.1   300.9   0.000000000   0.00000   0.00001   0.00000   0.00000
  0-1A  ->  6-1A    4.454633   35929.0   278.3   0.002408473   0.00059  -0.02432  -0.00003  -0.00014
  0-1A  ->  7-1A    4.593103   37045.9   269.9   0.000095174   0.00002   0.00002  -0.00001  -0.00491
  0-1A  ->  8-1A    4.706836   37963.2   263.4   0.000040592   0.00001  -0.00000  -0.00003   0.00325
  0-1A  ->  9-1A    4.753946   38343.2   260.8   0.000495491   0.00013   0.00001  -0.01139  -0.00004
  0-1A  -> 10-1A    4.807970   38778.9   257.9   0.000472780   0.00013   0.00002  -0.01119  -0.00001
  0-1A  -> 11-1A    5.033067   40594.4   246.3   0.000000000   0.00000   0.00001   0.00000   0.00000
  0-1A  -> 12-1A    5.053481   40759.1   245.3   0.000006100   0.00000  -0.00000  -0.00001   0.00130
  0-1A  -> 13-1A    5.206445   41992.8   238.1   0.000000001   0.00000  -0.00001  -0.00001   0.00000
  0-1A  -> 14-1A    5.215472   42065.6   237.7   0.000003647   0.00000   0.00013   0.00003  -0.00102
  0-1A  -> 15-1A    5.252709   42366.0   236.0   0.000416553   0.00012  -0.01098  -0.00002  -0.00010
  0-1A  -> 16-1A    5.520625   44526.8   224.6   0.000001459   0.00000  -0.00002   0.00067   0.00001
  0-1A  -> 17-1A    5.525209   44563.8   224.4   0.039540674   0.01204   0.00011  -0.10974  -0.00003
  0-1A  -> 18-1A    5.568436   44912.5   222.7   0.000000054   0.00000   0.00002  -0.00013  -0.00000
  0-1A  -> 19-1A    5.588493   45074.2   221.9   0.007640377   0.00235   0.00038   0.00005  -0.04851
  0-1A  -> 20-1A    5.701117   45982.6   217.5   0.000000020   0.00000  -0.00003   0.00007  -0.00000
  0-1A  -> 21-1A    5.813056   46885.5   213.3   0.000000016   0.00000   0.00001  -0.00007   0.00000
  0-1A  -> 22-1A    5.846234   47153.1   212.1   0.000056778   0.00002   0.00000  -0.00428  -0.00000
  0-1A  -> 23-1A    5.972990   48175.4   207.6   0.001370421   0.00045   0.00002  -0.02124   0.00001
  0-1A  -> 24-1A    6.092838   49142.1   203.5   0.001826005   0.00061   0.00019   0.00006  -0.02476
  0-1A  -> 25-1A    6.108327   49267.0   203.0   0.026255683   0.00884  -0.00009   0.09402   0.00005
  0-1A  -> 26-1A    6.223074   50192.5   199.2   0.000260568   0.00009   0.00001   0.00003   0.00945
  0-1A  -> 27-1A    6.244134   50362.3   198.6   0.000261919   0.00009   0.00003  -0.00949   0.00005
  0-1A  -> 28-1A    6.248312   50396.0   198.4   0.000000051   0.00000   0.00003   0.00013  -0.00000
  0-1A  -> 29-1A    6.329652   51052.1   195.9   0.000000025   0.00000   0.00009  -0.00002   0.00001
  0-1A  -> 30-1A    6.357681   51278.2   195.0   0.000065530   0.00002  -0.00479   0.00000  -0.00006

------------------------------------------------------------------------------------------
                     CD SPECTRUM VIA TRANSITION ELECTRIC DIPOLE MOMENTS    
------------------------------------------------------------------------------------------
     Transition      Energy     Energy  Wavelength    R        MX        MY        MZ   
                      (eV)      (cm-1)    (nm)   (1e40*cgs)   (au)      (au)      (au)  
------------------------------------------------------------------------------------------
  0-1A  ->  1-1A    2.142929   17283.9   578.6  -52.96349  -0.00005   0.03802   0.00027
  0-1A  ->  2-1A    2.600941   20978.0   476.7   -1.83756   0.00505   0.00000   0.00057
  0-1A  ->  3-1A    3.796728   30622.7   326.6   -0.34357   0.00037  -0.00008  -0.04248
  0-1A  ->  4-1A    3.995408   32225.1   310.3    1.90874   0.00582   0.00001   0.00008
  0-1A  ->  5-1A    4.120752   33236.1   300.9   -0.00001  -0.00001   0.00001  -0.00005
  0-1A  ->  6-1A    4.454633   35929.0   278.3  -36.76433   0.01767   0.00003  -0.00043
  0-1A  ->  7-1A    4.593103   37045.9   269.9    1.81665   0.00135   0.00016  -0.16574
  0-1A  ->  8-1A    4.706836   37963.2   263.4   55.07691   0.01081  -0.00009  -1.38859
  0-1A  ->  9-1A    4.753946   38343.2   260.8  -261.06382   0.00029  -0.32485   0.00117
  0-1A  -> 10-1A    4.807970   38778.9   257.9  229.76362  -0.00016   0.14104   0.00062
  0-1A  -> 11-1A    5.033067   40594.4   246.3   -0.00009   0.00003  -0.00015  -0.00002
  0-1A  -> 12-1A    5.053481   40759.1   245.3    0.77634  -0.00022   0.00004   0.02390
  0-1A  -> 13-1A    5.206445   41992.8   238.1    0.00001  -0.00001  -0.00009  -0.00083
  0-1A  -> 14-1A    5.215472   42065.6   237.7   14.85939  -0.00643  -0.00003   0.83845
  0-1A  -> 15-1A    5.252709   42366.0   236.0   -0.95417  -0.01185  -0.00001   0.00576
  0-1A  -> 16-1A    5.520625   44526.8   224.6    0.00076  -0.00007   0.00023   0.00005
  0-1A  -> 17-1A    5.525209   44563.8   224.4   12.94385   0.00004  -0.02304   0.00015
  0-1A  -> 18-1A    5.568436   44912.5   222.7    0.00007   0.00006  -0.00009   0.00003
  0-1A  -> 19-1A    5.588493   45074.2   221.9   -2.53498   0.00059   0.00011  -0.08297
  0-1A  -> 20-1A    5.701117   45982.6   217.5   -0.00000  -0.00002   0.00002   0.00007
  0-1A  -> 21-1A    5.813056   46885.5   213.3    0.00020   0.00008  -0.00010   0.00002
  0-1A  -> 22-1A    5.846234   47153.1   212.1    6.03274  -0.00013   0.14471   0.00017
  0-1A  -> 23-1A    5.972990   48175.4   207.6  -18.80618   0.00005  -0.03213  -0.00007
  0-1A  -> 24-1A    6.092838   49142.1   203.5    1.25348   0.00027  -0.00005  -0.03823
  0-1A  -> 25-1A    6.108327   49267.0   203.0   15.79922  -0.00001   0.02116  -0.00003
  0-1A  -> 26-1A    6.223074   50192.5   199.2  -11.49186   0.00188  -0.00105  -0.22367
  0-1A  -> 27-1A    6.244134   50362.3   198.6  -15.65801  -0.00014   0.19216  -0.00145
  0-1A  -> 28-1A    6.248312   50396.0   198.4   -0.00394   0.00004  -0.00361   0.00009
  0-1A  -> 29-1A    6.329652   51052.1   195.9   -0.00004  -0.00022  -0.00044   0.00001
  0-1A  -> 30-1A    6.357681   51278.2   195.0   -9.12739   0.36896   0.00036   0.00308

------------------------------------------------------------------------------------------
                     CD SPECTRUM VIA TRANSITION VELOCITY DIPOLE MOMENTS    
------------------------------------------------------------------------------------------
     Transition      Energy     Energy  Wavelength    R        MX        MY        MZ   
                      (eV)      (cm-1)    (nm)   (1e40*cgs)   (au)      (au)      (au)  
------------------------------------------------------------------------------------------
  0-1A  ->  1-1A    2.142929   17283.9   578.6   60.03850  -0.00005   0.03802   0.00027
  0-1A  ->  2-1A    2.600941   20978.0   476.7    0.73963   0.00505   0.00000   0.00057
  0-1A  ->  3-1A    3.796728   30622.7   326.6    0.36388   0.00037  -0.00008  -0.04248
  0-1A  ->  4-1A    3.995408   32225.1   310.3    0.63258   0.00582   0.00001   0.00008
  0-1A  ->  5-1A    4.120752   33236.1   300.9   -0.00000  -0.00001   0.00001  -0.00005
  0-1A  ->  6-1A    4.454633   35929.0   278.3   -1.23737   0.01767   0.00003  -0.00043
  0-1A  ->  7-1A    4.593103   37045.9   269.9    2.27245   0.00135   0.00016  -0.16574
  0-1A  ->  8-1A    4.706836   37963.2   263.4  -12.28197   0.01081  -0.00009  -1.38859
  0-1A  ->  9-1A    4.753946   38343.2   260.8    9.98890   0.00029  -0.32485   0.00117
  0-1A  -> 10-1A    4.807970   38778.9   257.9   -4.21268  -0.00016   0.14104   0.00062
  0-1A  -> 11-1A    5.033067   40594.4   246.3   -0.00000   0.00003  -0.00015  -0.00002
  0-1A  -> 12-1A    5.053481   40759.1   245.3    0.07907  -0.00022   0.00004   0.02390
  0-1A  -> 13-1A    5.206445   41992.8   238.1    0.00000  -0.00001  -0.00009  -0.00083
  0-1A  -> 14-1A    5.215472   42065.6   237.7   -2.09646  -0.00643  -0.00003   0.83845
  0-1A  -> 15-1A    5.252709   42366.0   236.0    0.31642  -0.01185  -0.00001   0.00576
  0-1A  -> 16-1A    5.520625   44526.8   224.6    0.00036  -0.00007   0.00023   0.00005
  0-1A  -> 17-1A    5.525209   44563.8   224.4    5.86964   0.00004  -0.02304   0.00015
  0-1A  -> 18-1A    5.568436   44912.5   222.7    0.00003   0.00006  -0.00009   0.00003
  0-1A  -> 19-1A    5.588493   45074.2   221.9    9.24109   0.00059   0.00011  -0.08297
  0-1A  -> 20-1A    5.701117   45982.6   217.5    0.00000  -0.00002   0.00002   0.00007
  0-1A  -> 21-1A    5.813056   46885.5   213.3    0.00002   0.00008  -0.00010   0.00002
  0-1A  -> 22-1A    5.846234   47153.1   212.1   -1.35830  -0.00013   0.14471   0.00017
  0-1A  -> 23-1A    5.972990   48175.4   207.6    1.46608   0.00005  -0.03213  -0.00007
  0-1A  -> 24-1A    6.092838   49142.1   203.5    1.99339   0.00027  -0.00005  -0.03823
  0-1A  -> 25-1A    6.108327   49267.0   203.0    4.17839  -0.00001   0.02116  -0.00003
  0-1A  -> 26-1A    6.223074   50192.5   199.2   -4.35938   0.00188  -0.00105  -0.22367
  0-1A  -> 27-1A    6.244134   50362.3   198.6   -3.74875  -0.00014   0.19216  -0.00145
  0-1A  -> 28-1A    6.248312   50396.0   198.4   -0.00096   0.00004  -0.00361   0.00009
  0-1A  -> 29-1A    6.329652   51052.1   195.9   -0.00003  -0.00022  -0.00044   0.00001
  0-1A  -> 30-1A    6.357681   51278.2   195.0   -3.56798   0.36896   0.00036   0.00308

Total run time:     3407.373 sec

           *** ORCA-CIS/TD-DFT FINISHED WITHOUT ERROR ***
-----------------------
CIS/TD-DFT TOTAL ENERGY
-----------------------

    E(SCF)  =  -1190.806231428 Eh
    DE(CIS) =      0.078751192 Eh (Root  1)
    ----------------------------- ---------
    E(tot)  =  -1190.727480236 Eh


Maximum memory used throughout the entire CIS-calculation: 2696.1 MB
=> NOW LEAVING ORCA_CIS

-------------------------   --------------------
FINAL SINGLE POINT ENERGY     -1190.727480235796
-------------------------   --------------------



           ************************************************************
           *        Program running with 4 parallel MPI-processes     *
           *              working on a common directory               *
           ************************************************************

------------------------------------------------------------------------------
                              ORCA PROPERTY CALCULATIONS
------------------------------------------------------------------------------

GBWName                                 ... tddft.gbw
Number of atoms                         ...     41
Number of basis functions               ...    872
Max core memory                         ...   3000 MB

Electric properties:
Dipole moment                           ... YES
Quadrupole moment                       ...  NO
Static polarizability (Dipole/Dipole)   ...  NO
Static polarizability (Dipole/Quad.)    ...  NO
Static polarizability (Quad./Quad.)     ...  NO
Static polarizability (Velocity)        ...  NO
Static hyperpolarizability              ...  NO

Atomic electric properties:
Dipole moment                           ...  NO
Quadrupole moment                       ...  NO
Static polarizability                   ...  NO

Choice of electric origin               ... Center of mass
Position of electric origin             ...    -0.003613    -0.019229     0.068836

General magnetic properties:
Magnetizability                         ...  NO

EPR properties:
g-Tensor (aka g-matrix)                 ...  NO
Zero-Field splitting spin-orbit         ...  NO
Zero-field splitting spin-spin          ...  NO
Hyperfine couplings                     ...  NO (   0 nuclei)
Quadrupole couplings                    ...  NO (   0 nuclei)
Contact density                         ...  NO (   0 nuclei)

NMR properties:
Chemical shifts                         ...  NO (   0 nuclei)
Spin-rotation constants                 ...  NO (   0 nuclei)
Spin-spin couplings                     ...  NO (   0 nuclei,    0 pairs)

Choice of magnetic origin               ... GIAO
Position of magnetic origin             ...     0.000000     0.000000     0.000000

Properties with geometric perturbations:
SCF Hessian                             ...  NO
IR spectrum                             ...  NO
VCD spectrum                            ...  NO
X-ray spectroscopy properties:
SCF XES/XAS/RIXS spectra                ...  NO

SCF SOC stabilization energy            ...  NO
Diagonal Born-Oppenheimer correction    ...  NO

-------------
DIPOLE MOMENT
-------------

Method             : SCF
Type of density    : Electron Density
Multiplicity       :   1
Irrep              :   0
Energy             : -1190.8062314281837644 Eh
Basis              : AO
                                X                 Y                 Z
Electronic contribution:      0.000799045       0.000674090      -0.000408826
Nuclear contribution   :     -0.000660183       0.000201001       0.000373176
                        -----------------------------------------
Total Dipole Moment    :      0.000138862       0.000875091      -0.000035650
                        -----------------------------------------
Magnitude (a.u.)       :      0.000886757
Magnitude (Debye)      :      0.002253958



--------------------
Rotational spectrum 
--------------------
 
Rotational constants in cm-1:             0.008915             0.008207             0.004290 
Rotational constants in MHz :           267.260438           246.047427           128.597541 

Dipole components along the rotational axes: 
x,y,z [a.u.] :     0.000139    -0.000875    -0.000037 
x,y,z [Debye]:     0.000354    -0.002224    -0.000094 

 

Dipole moment calculation done in   0.0 sec 

Maximum memory used throughout the entire PROP-calculation: 90.9 MB

--------------------------------
SUGGESTED CITATIONS FOR THIS RUN
--------------------------------

Below you find a list of papers that are relevant to this ORCA run
We neither can nor want to force you to cite these papers, but we appreciate if you do
You receive ORCA, which is the product of decades of hard work by many enthusiastic individuals, for free
The only thing we kindly ask in return is that you cite our papers,
We deeply appreciate it, if you show your appreciation for ORCA by not just citing the generic ORCA reference.

Please note that relegating all ORCA citations to the supporting information does *not* help us.
SI sections are not indexed - citations you put there will not count into any citation statistics
But we need these citations in order to attract the funding resources that allow us to do what we are doing

Therefore, if you are a happy ORCA user, please consider citing a few of the papers listed below in the main body of your paper

In addition to the list printed below, the program has created the file tddft.bibtex that contains the list in bibtex format
You can import this file easily into all common literature databanks and citation aid programs

It goes without saying that in many instances, there are alternative algorithms to achieve similar
results as the ones you have gotten from ORCA. It is, of course, also the case that in some instances
ORCA just re-implements algorithms worked out by others. We are fully aware of that and we are also
fully appreciative of our colleagues work. Hence this citation list should not be read as indicating
that the listed papers, which are focused on our own work, are the only ones worth citing. It simply
meant to make it easier for users to cite ORCA specific papers. It is not a substitute for doing your
own literature research and citing the relevant literature in a scientifically appropriate manner.

List of essential papers. We consider these as the minimum necessary citations

  1. Neese, F.
     Software update: the ORCA program system, version 6.0
     WIRES Comput. Molec. Sci. 2025 15(1), e70019
     doi.org/10.1002/wcms.70019

List of papers to cite with high priority. The work reported in these papers was absolutely
necessary for this run to complete.
Our perspective: the developers of density functionals and basis sets usually get cited in chemistry papers
Good! But without the algorithms to do something with them, the functionals or basis sets would not do anything.
Hence, in our opinion, the algorithm design and method developments papers are equally worthy of getting cited

  1. Neese, F.; Olbrich, G.
     Efficient use of the resolution of the identity approximation in time-dependent density functional calculations with hybrid density functionals
     Chem. Phys. Lett. 2002 362 , 170-178
     doi.org/10.1016/s0009-2614(02)01053-9
  2. Neese, F.
     An improvement of the resolution of the identity approximation for the formation of the Coulomb matrix
     J. Comp. Chem. 2003 24(14), 1740-1747
     doi.org/10.1002/jcc.10318
  3. Neese, F.; Wennmohs, F.; Hansen, A.; Becker, U.
     Efficient, approximate and parallel Hartree-Fock and hybrid DFT calculations. A 'chain-of-spheres' algorithm for the Hartree-Fock exchange
     Chem. Phys. 2009 356(1-3), 98-109
     doi.org/10.1016/j.chemphys.2008.10.036
  4. Helmich-Paris, B.; de Souza, B.; Neese, F.; Izsák, R.
     An improved chain of spheres for exchange algorithm
     J. Chem. Phys. 2021 155(10), 104109
     doi.org/10.1063/5.0058766
  5. Neese, F.
     The SHARK Integral Generation and Digestion System
     J. Comp. Chem. 2022 44(3), 381
     doi.org/10.1002/jcc.26942

List of suggested additional citations. These are papers that are important in the 'surrounding' of 
of this run, or papers that preceded the highly important papers. If you like your results we are grateful for a citation.

  1. Izsak, R.; Neese, F.
     An overlap fitted chain of spheres exchange method
     J. Chem. Phys. 2011 135 , 144105
     doi.org/10.1063/1.3646921
  2. Izsak, R.; Hansen, A.; Neese, F.
     The resolution of identity and chain of spheres approximations for the LPNO-CCSD singles Fock term
     Molec. Phys. 2012 110 , 2413-2417
     doi.org/10.1080/00268976.2012.687466
  3. Neese, F.
     The ORCA program system
     WIRES Comput. Molec. Sci. 2012 2(1), 73-78
     doi.org/10.1002/wcms.81
  4. Izsak, R.; Neese, F.; Klopper, W.
     Robust fitting techniques in the chain of spheres approximation to the Fock exchange: The role of the complementary space
     J. Chem. Phys. 2013 139 , 
     doi.org/10.1063/1.4819264
  5. Neese, F.
     Software update: the ORCA program system, version 4.0
     WIRES Comput. Molec. Sci. 2018 8(1), 1-6
     doi.org/10.1002/wcms.1327
  6. Neese, F.; Wennmohs, F.; Becker, U.; Riplinger, C.
     The ORCA quantum chemistry program package
     J. Chem. Phys. 2020 152(22), 224108
     doi.org/10.1063/5.0004608
  7. Neese, F.
     Software update: The ORCA program system—Version 5.0
     WIRES Comput. Molec. Sci. 2022 12(1), e1606
     doi.org/10.1002/wcms.1606

List of optional additional citations

  1. Neese, F.
     Approximate second-order SCF convergence for spin unrestricted wavefunctions
     Chem. Phys. Lett. 2000 325(1-3), 93-98
     doi.org/10.1016/s0009-2614(00)00662-x

Timings for individual modules:

Sum of individual times          ...     5286.493 sec (=  88.108 min)
Startup calculation              ...       31.896 sec (=   0.532 min)   0.6 %
SCF iterations                   ...     1844.424 sec (=  30.740 min)  34.9 %
Property integrals               ...        1.891 sec (=   0.032 min)   0.0 %
Property calculations            ...        0.486 sec (=   0.008 min)   0.0 %
CIS module                       ...     3407.796 sec (=  56.797 min)  64.5 %
                             ****ORCA TERMINATED NORMALLY****
TOTAL RUN TIME: 0 days 1 hours 28 minutes 7 seconds 65 msec
