
                                 *****************
                                 * O   R   C   A *
                                 *****************

                                            #,                                       
                                            ###                                      
                                            ####                                     
                                            #####                                    
                                            ######                                   
                                           ########,                                 
                                     ,,################,,,,,                         
                               ,,#################################,,                 
                          ,,##########################################,,             
                       ,#########################################, ''#####,          
                    ,#############################################,,   '####,        
                  ,##################################################,,,,####,       
                ,###########''''           ''''###############################       
              ,#####''   ,,,,##########,,,,          '''####'''          '####       
            ,##' ,,,,###########################,,,                        '##       
           ' ,,###''''                  '''############,,,                           
         ,,##''                                '''############,,,,        ,,,,,,###''
      ,#''                                            '''#######################'''  
     '                                                          ''''####''''         
             ,#######,   #######,   ,#######,      ##                                
            ,#'     '#,  ##    ##  ,#'     '#,    #''#        ,####,    ,#,          
            ##       ##  ##   ,#'  ##            #'  '#       #'       ,# #          
            ##       ##  #######   ##           ,######,      #####,      #          
            '#,     ,#'  ##    ##  '#,     ,#' ,#      #,     #,   #      #          
             '#######'   ##     ##  '#######'  #'      '#     '####' #    #          



                #########################################################
                #                        -***-                          #
                #          Department of theory and spectroscopy        #
                #                                                       #
                #                      Frank Neese                      #
                #                                                       #
                #     Directorship, Architecture, Infrastructure        #
                #                    SHARK, DRIVERS                     #
                #        Core code/Algorithms in most modules           #
                #                                                       #
                #        Max Planck Institute fuer Kohlenforschung      #
                #                Kaiser Wilhelm Platz 1                 #
                #                 D-45470 Muelheim/Ruhr                 #
                #                      Germany                          #
                #                                                       #
                #                  All rights reserved                  #
                #                        -***-                          #
                #########################################################


                         Program Version 6.1.1  -  RELEASE   -
                                (GIT: $487d211c$)
                          ($2025-11-21 10:33:24 +0100$)


 With contributions from (in alphabetic order):
[Max-Planck-Institut fuer Kohlenforschung]                               
  Daniel Aravena         : Magnetic Suceptibility                        
  Michael Atanasov       : Ab Initio Ligand Field Theory (pilot matlab implementation)
  Alexander A. Auer      : GIAO ZORA, VPT2 properties, NMR spectrum      
  Ute Becker             : All parallelization in ORCA, NUMFREQ, NUMCALC 
  Giovanni Bistoni       : ED, misc. LED, open-shell LED, HFLD           
  Dmytro Bykov           : pre 5.0 version of the SCF Hessian            
  Marcos Casanova-Páez   : Triplet and SCS-CIS(D). UHF-(DLPNO)-IP/EA/STEOM-CCSD. UHF-CVS-IP/STEOM-CCSD   
  Vijay G. Chilkuri      : MRCI spin determinant printing, contributions to CSF-ICE 
  Pauline Colinet        : FMM embedding                                 
  Dipayan Datta          : RHF DLPNO-CCSD density                        
  Achintya Kumar Dutta   : EOM-CC, STEOM-CC                              
  Nicolas Foglia         : Exact transition moments, OPA infrastructure, MCD improvements    
  Dmitry Ganyushin       : Spin-Orbit,Spin-Spin,Magnetic field MRCI      
  Miquel Garcia-Rates    : C-PCM and meta-GGA Hessian, CCSD/C-PCM, Gaussian charge scheme 
  Tiago L. C. Gouveia    : GS-ROHF, GS-ROCIS                             
  Yang Guo               : DLPNO-NEVPT2, F12-NEVPT2, CIM, IAO-localization        
  Andreas Hansen         : Spin unrestricted coupled pair/coupled cluster methods 
  Ingolf Harden          : AUTO-CI MPn and infrastructure                
  Benjamin Helmich-Paris : MC-RPA, TRAH-(SCF,CASSCF), AVAS, COSX integrals, SCF dyn. polar., MC-PDFT, srDFT 
  Lee Huntington         : MR-EOM, pCC                                   
  Robert Izsak           : Overlap fitted RIJCOSX, COSX-SCS-MP3, EOM     
  Riya Kayal             : Wick's Theorem for AUTO-CI, AUTO-CI UHF-CCSDT 
  Emily Kempfer          : AUTO-CI RHF CISDT and CCSDT, approximate NEVPT4
  Christian Kollmar      : KDIIS, OOCD, Brueckner-CCSD(T), CCSD density, CASPT2, CASPT2-K, improved NEVPT2 
  Axel Koslowski         : Symmetry handling                             
  Simone Kossmann        : meta-GGA functionals, TD-DFT gradient, OOMP2, (MP2 Hessian; deprecated post 5.0) 
  Lucas Lang             : DCDCAS, Hyperfine gauge corrections, ICE-SOC+SSC
  Marvin Lechner         : AUTO-CI (C++ implementation), FIC-MRCC        
  Spencer Leger          : CASSCF response                               
  Dagmar Lenk            : GEPOL surface, SMD, ORCA-2-JSON               
  Dimitrios Liakos       : Extrapolation schemes; Compound Job, Property file
  Dimitrios Manganas     : Further ROCIS development; embedding schemes. LFT, Crystal Embedding 
  Dimitrios Pantazis     : SARC Basis sets                               
  Anastasios Papadopoulos: AUTO-CI, single reference methods and gradients 
  Taras Petrenko         : pre 6.0 DFT Hessian and TD-DFT gradient,  ECA, NRVS 
  Petra Pikulova         : Analytic Raman intensities                    
  Peter Pinski           : DLPNO-MP2, DLPNO-MP2 Gradient                 
  Shashank Vittal Rao    : ES-AILFT, MagRelax                            
  Christoph Reimann      : Effective Core Potentials                     
  Marius Retegan         : Local ZFS, SOC                                
  Christoph Riplinger    : Optimizer, TS searches, QM/MM, DLPNO-CCSD(T), (RO)-DLPNO pert. Triples 
  Michael Roemelt        : Original ROCIS implementation, recursive CI coupling coefficients
  Masaaki Saitow         : Open-shell DLPNO-CCSD energy and density      
  Barbara Sandhoefer     : DKH picture change effects                    
  Yorick L. A. Schmerwitz: GMF and freeze-and-release deltaSCF, NEB S-IDPP initial path                    
  Kantharuban Sivalingam : CASSCF convergence/infrastructure, NEVPT2, NEVPT3, NEVPT4(SD), FIC-MRCI and CEPA variants
  Bernardo de Souza      : ESD, SOC TD-DFT                               
  Georgi L. Stoychev     : AutoAux, RI-MP2 NMR, DLPNO-MP2 response, X2C  
  Van Anh Tran           : RI-MP2 g-tensors                              
  Willem Van den Heuvel  : Paramagnetic NMR                              
  Zikuan Wang            : NOTCH, Electric field optimization            
  Frank Wennmohs         : Technical directorship and infrastructure     
  Hang Xu                : AUTO-CI-Response properties                   
                                                                         
[FACCTs GmbH]                                                            
  Markus Bursch, Nicolas Foglia, Miquel Garcia-Rates, Ingolf Harden, Hagen Neugebauer, Anastasios Papadopoulos, 
  Christoph Riplinger, Bernardo de Souza, Georgi L. Stoychev                                                    
                                                                 
  APM, various basis sets, CI-OPT, improved COSX, DLPNO-Multilevel,           
  DOCKER, DRACO, updates on ESD, Fragmentator, GOAT, IRC, LR-CPCM, L-BFGS, MBIS, meta-GGA TD-DFT gradient, ML-optimized integration grids, 
  MM, NACMEs, nearIR, NEB, NEB-TS, NL-DFT gradient (VV10), 2- and 3-layer-ONIOM, interface openCOSMO-RS, QMMM,   
  Crystal-QMMM, RESP, rigid body optimization, SF, symmetry and pop. for TD-DFT, various functionals, SOLVATOR                                   
                                                                         
[Other institutions]                                                     
  V. Asgeirsson          : NEB                                           
  Christoph Bannwarth    : sTDA-DFT, sTD-DFT, PBEh-3c, B97-3c, D3        
  Giovanni Bistoni       : ETS/NOCV, ADLD/ADEX, COVALED                  
  Martin Brehm           : Molecular dynamics                            
  Ronald Cardenas        : ETS/NOCV                                      
  Martina Colucci        : COVALED                                       
  Sebastian Ehlert       : rSCAN, r2SCAN, r2SCAN-3c, D4, dhf basis sets  
  Marvin Friede          : D4 for Fr, Ra, Ac-Lr                          
  Lars Goerigk           : TD-DFT with DH, B97 family of functionals     
  Stefan Grimme          : VdW corrections, initial TS optimization, DFT functionals, gCP, sTDA/sTD-DF 
  Waldemar Hujo          : DFT-NL                                        
  H. Jonsson             : NEB                                           
  Holger Kruse           : gCP                                           
  Marcel Mueller         : wB97X-3c, vDZP basis set                      
  Hagen Neugebauer       : wr2SCAN, Native XTB                           
  Gianluca Regni         : ADLD/ADEX                                     
  Tobias Risthaus        : pre 6.0 range-separated hybrid DFT and stability analysis
  Lukas Wittmann         : regularized MP2, r2SCAN double-hybrids, wr2SCAN        
                                                                         
We gratefully acknowledge several colleagues who have allowed us to      
interface, adapt or use parts of their codes:                            
  Ed Valeev, F. Pavosevic, A. Kumar             : LibInt (2-el integral package), F12 methods 
  Garnet Chan, S. Sharma, J. Yang, R. Olivares  : DMRG                   
  Ulf Ekstrom                                   : XCFun DFT Library      
  Mihaly Kallay                                 : mrcc  (arbitrary order and MRCC methods)
  Frank Weinhold                                : gennbo (NPA and NBO analysis)           
  Simon Mueller                                 : openCOSMO-RS                            
  Christopher J. Cramer and Donald G. Truhlar   : smd solvation model                     
  S Lehtola, MJT Oliveira, MAL Marques          : LibXC Library                           
  Liviu Ungur et al                             : ANISO software                          


 Your calculation uses the libint2 library for the computation of 2-el integrals
 For citations please refer to: http://libint.valeyev.net

 Your ORCA version has been built with support for libXC version: 7.0.0
 For citations please refer to: https://libxc.gitlab.io

 This ORCA versions uses:
   CBLAS   interface :  Fast vector & matrix operations
   LAPACKE interface :  Fast linear algebra routines
   SCALAPACK package :  Parallel linear algebra routines
   Shared memory     :  Shared parallel matrices
   BLAS/LAPACK       :  OpenBLAS 0.3.29  USE64BITINT DYNAMIC_ARCH NO_AFFINITY Haswell SINGLE_THREADED
        Core in use  :  Haswell
   Copyright (c) 2011-2014, The OpenBLAS Project


  ***********************************
  * Starting time: Sun Jul  5 23:10:58 2026
  * Host name:     steezy
  * Process ID:    1309178
  * Working dir.:  /home/jannes/chlorophyll-ladder/007-mg-core-ladder/mgbacteriochlorin/03_tddft_ch2cl2/m062x
  ***********************************

NOTE: MaxCore=3000 MB was set to SCF,MP2,MDCI,CIPSI,MRCI,RASCI and CIS
      => If you want to overwrite this, your respective input block should be placed after the MaxCore statement


***************************************
The coordinates will be read from file: /home/jannes/chlorophyll-ladder/007-mg-core-ladder/mgbacteriochlorin/01_opt/mgbacteriochlorin_opt_b3lypd4_tzvp.xyz
***************************************


XCFun DFT library Copyright 2009-2010 Ulf Ekstrom and contributors.
See http://admol.org/xcfun for more information.
This is free software; see the source code for copying conditions.
There is ABSOLUTELY NO WARRANTY; not even for MERCHANTABILITY or FITNESS FOR A PARTICULAR PURPOSE.
For details see the documentation.
Scientific users of this library should cite U. Ekstrom, L. Visscher, R. Bast, A. J. Thorvaldsen and K. Ruud;
J.Chem.Theor.Comp. 2010, DOI: 10.1021/ct100117s
XCFun Version 0.99 

================================================================================

----- Orbital basis set information -----
Your calculation utilizes the basis: def2-TZVP
   F. Weigend and R. Ahlrichs, Phys. Chem. Chem. Phys. 7, 3297 (2005).

----- AuxJ basis set information -----
Your calculation utilizes the auxiliary basis: def2/J
   H-Rn: F. Weigend, Phys. Chem. Chem. Phys. 8, 1057 (2006).
   Fr-Lr: K. Eichkorn, F. Weigend, O. Treutler, R. Ahlrichs; Theor. Chem. Acc. 97, 119 (1997).

================================================================================
                                        WARNINGS
                       Please study these warnings very carefully!
================================================================================

WARNING: Functional chosen is sensitive to the integration grid.
         DEFGRID3 seems to be a minimum grid for robust results!

WARNING: CIS/ROCIS methods need fully converged wavefunctions
  ===> : Setting SCFConvForced true
         You can overwrite this default with %scf ConvForced false 


================================================================================
                                       INPUT FILE
================================================================================
NAME = tddft.inp
|  1> %pal nprocs 4 end
|  2> %maxcore 3000
|  3> ! M062X def2-TZVP def2/J RIJCOSX DefGrid3 TightSCF CPCM(CH2Cl2)
|  4> %tddft
|  5>   nroots 30
|  6>   tda false
|  7>   triplets false
|  8> end
|  9> * xyzfile 0 1 /home/jannes/chlorophyll-ladder/007-mg-core-ladder/mgbacteriochlorin/01_opt/mgbacteriochlorin_opt_b3lypd4_tzvp.xyz
| 10> 
| 11>                          ****END OF INPUT****
================================================================================

                       ****************************
                       * Single Point Calculation *
                       ****************************

---------------------------------
CARTESIAN COORDINATES (ANGSTROEM)
---------------------------------
  N     -2.124578   -0.012303    0.019619
  N      2.120702   -0.008182    0.053311
  N      0.000054   -2.042965    0.036072
  N     -0.003922    2.022643    0.036768
  C     -4.365647   -0.772052   -0.118068
  C      4.363206   -0.763605    0.191137
  C     -4.368868    0.743331    0.123418
  C      4.363545    0.751732   -0.050582
  C     -2.893435   -1.127457   -0.033347
  C      2.891729   -1.121890    0.105994
  C     -2.896171    1.101445    0.061023
  C      2.890180    1.107061    0.012189
  C     -1.099225   -2.861182    0.000405
  C      1.100883   -2.859069    0.071901
  C     -1.105169    2.838701    0.055116
  C      1.095772    2.840793    0.018125
  C     -2.428367   -2.424151   -0.040149
  C      2.429194   -2.419482    0.112495
  C     -2.433870    2.399066    0.075036
  C      2.425350    2.403775   -0.001591
  C     -0.680956   -4.229545    0.012980
  C      0.685237   -4.228237    0.059463
  C     -0.689363    4.207941    0.048969
  C      0.677354    4.209237    0.023929
  H     -4.752237   -1.026638   -1.108895
  H     -4.959962   -1.326894    0.608414
  H      4.749790   -1.017167    1.182234
  H      4.958957   -1.317434   -0.534930
  H     -4.953125    1.297020   -0.612043
  H     -4.770793    0.997360    1.108263
  H      4.946888    1.306572    0.684739
  H      4.764732    1.006428   -1.035547
  H     -3.179766   -3.203559   -0.079566
  H      3.182074   -3.197459    0.151893
  H     -3.187309    3.176996    0.103002
  H      3.177260    3.183189   -0.029363
  H     -1.343528   -5.080762   -0.009530
  H      1.349426   -5.078189    0.082157
  H     -1.354064    5.057708    0.060979
  H      1.340439    5.060262    0.011412
  Mg    -0.001641   -0.010087    0.036418

----------------------------
CARTESIAN COORDINATES (A.U.)
----------------------------
  NO LB      ZA    FRAG     MASS         X           Y           Z
   0 N     7.0000    0    14.007   -4.014871   -0.023249    0.037074
   1 N     7.0000    0    14.007    4.007547   -0.015462    0.100743
   2 N     7.0000    0    14.007    0.000102   -3.860643    0.068165
   3 N     7.0000    0    14.007   -0.007411    3.822241    0.069481
   4 C     6.0000    0    12.011   -8.249878   -1.458967   -0.223116
   5 C     6.0000    0    12.011    8.245265   -1.443005    0.361196
   6 C     6.0000    0    12.011   -8.255964    1.404693    0.233226
   7 C     6.0000    0    12.011    8.245904    1.420568   -0.095586
   8 C     6.0000    0    12.011   -5.467801   -2.130585   -0.063016
   9 C     6.0000    0    12.011    5.464575   -2.120065    0.200300
  10 C     6.0000    0    12.011   -5.472971    2.081430    0.115316
  11 C     6.0000    0    12.011    5.461648    2.092042    0.023034
  12 C     6.0000    0    12.011   -2.077234   -5.406851    0.000765
  13 C     6.0000    0    12.011    2.080367   -5.402857    0.135874
  14 C     6.0000    0    12.011   -2.088466    5.364367    0.104155
  15 C     6.0000    0    12.011    2.070710    5.368321    0.034251
  16 C     6.0000    0    12.011   -4.588949   -4.580981   -0.075870
  17 C     6.0000    0    12.011    4.590511   -4.572158    0.212586
  18 C     6.0000    0    12.011   -4.599348    4.533577    0.141797
  19 C     6.0000    0    12.011    4.583247    4.542477   -0.003006
  20 C     6.0000    0    12.011   -1.286820   -7.992681    0.024528
  21 C     6.0000    0    12.011    1.294910   -7.990210    0.112369
  22 C     6.0000    0    12.011   -1.302708    7.951855    0.092538
  23 C     6.0000    0    12.011    1.280014    7.954306    0.045220
  24 H     1.0000    0     1.008   -8.980427   -1.940064   -2.095508
  25 H     1.0000    0     1.008   -9.372970   -2.507465    1.149735
  26 H     1.0000    0     1.008    8.975803   -1.922168    2.234098
  27 H     1.0000    0     1.008    9.371070   -2.489590   -1.010871
  28 H     1.0000    0     1.008   -9.360049    2.451013   -1.156593
  29 H     1.0000    0     1.008   -9.015493    1.884737    2.094314
  30 H     1.0000    0     1.008    9.348264    2.469063    1.293968
  31 H     1.0000    0     1.008    9.004039    1.901874   -1.956899
  32 H     1.0000    0     1.008   -6.008887   -6.053850   -0.150357
  33 H     1.0000    0     1.008    6.013249   -6.042321    0.287037
  34 H     1.0000    0     1.008   -6.023141    6.003652    0.194646
  35 H     1.0000    0     1.008    6.004152    6.015356   -0.055489
  36 H     1.0000    0     1.008   -2.538900   -9.601249   -0.018009
  37 H     1.0000    0     1.008    2.550046   -9.596387    0.155255
  38 H     1.0000    0     1.008   -2.558811    9.557682    0.115234
  39 H     1.0000    0     1.008    2.533064    9.562509    0.021566
  40 Mg   12.0000    0    24.305   -0.003102   -0.019062    0.068819

--------------------------------
INTERNAL COORDINATES (ANGSTROEM)
--------------------------------
 N      0   0   0     0.000000000000     0.00000000     0.00000000
 N      1   0   0     4.245416085717     0.00000000     0.00000000
 N      2   1   0     2.939011375942    43.75967239     0.00000000
 N      1   2   3     2.939129070827    43.76187171   180.00255177
 C      1   2   3     2.370352009699   161.12036003   351.01820559
 C      2   1   3     2.370334321602   161.11898876   350.98604815
 C      5   1   2     1.534507198399    71.11414070   179.93485080
 C      6   2   1     1.534495241103    71.11492103   179.93600990
 C      1   2   3     1.355550048196   124.63056083   357.60358136
 C      2   1   3     1.355582128298   124.62977820   357.59599889
 C      1   2   3     1.355546123926   124.62160127   177.56972785
 C      2   1   3     1.355563808831   124.62364954   177.56200688
 C      3   2   1     1.370826670960   172.75333140     8.90847460
 C      3   2   1     1.370815363532    80.36235659   181.15564598
 C      4   1   2     1.370777821536    80.36358993   181.14305473
 C      4   1   2     1.370782906164   172.74430185     9.13892315
 C      9   1   2     1.377588111167   125.66613610     2.25390691
 C     10   2   1     1.377579558700   125.66739448     2.25241290
 C     11   1   2     1.377584022390   125.67739340     2.30114869
 C     12   2   1     1.377579356145   125.67503938     2.29624379
 C     13   3  14     1.430916519652   109.64262364   359.95276415
 C     21  13   3     1.366983719650   106.94919461     0.12079397
 C     15   4   1     1.430996176158   109.64179711   181.00446043
 C     23  15   4     1.366947587917   106.94825517     0.12005675
 H      5   1   2     1.093619998274   117.48119229   285.29610054
 H      5   1   2     1.090336727187   129.77292185    74.83365878
 H      6   2   1     1.093624260422   117.45243435   285.29735237
 H      6   2   1     1.090329122694   129.79853465    74.83293182
 H      7   5   1     1.090334418898   113.35711182   126.06534071
 H      7   5   1     1.093615512790   111.83148131   247.14860792
 H      8   6   2     1.090336113225   113.35342562   126.07482105
 H      8   6   2     1.093607292633   111.83547187   247.16406460
 H     17   9   1     1.083342905325   116.30988331   179.63283291
 H     18  10   2     1.083341733356   116.31217148   179.64366974
 H     19  11   1     1.083340715870   116.31275699   179.62575756
 H     20  12   2     1.083340310464   116.31350810   179.62687671
 H     21  13   3     1.078925603982   125.08340360   180.05189031
 H     22  21  13     1.078925857550   127.96702129   179.92425103
 H     23  15   4     1.078923414896   125.06844783   180.04988392
 H     24  23  15     1.078926070118   127.98362874   179.91361688
 Mg     4   1   2     2.032731255388    46.24671301     0.00000000

---------------------------
INTERNAL COORDINATES (A.U.)
---------------------------
 N      0   0   0     0.000000000000     0.00000000     0.00000000
 N      1   0   0     8.022673726548     0.00000000     0.00000000
 N      2   1   0     5.553926605009    43.75967239     0.00000000
 N      1   2   3     5.554149016110    43.76187171   180.00255177
 C      1   2   3     4.479316139321   161.12036003   351.01820559
 C      2   1   3     4.479282713662   161.11898876   350.98604815
 C      5   1   2     2.899798355505    71.11414070   179.93485080
 C      6   2   1     2.899775759491    71.11492103   179.93600990
 C      1   2   3     2.561618351915   124.63056083   357.60358136
 C      2   1   3     2.561678974521   124.62977820   357.59599889
 C      1   2   3     2.561610936119   124.62160127   177.56972785
 C      2   1   3     2.561644355746   124.62364954   177.56200688
 C      3   2   1     2.590486985190   172.75333140     8.90847460
 C      3   2   1     2.590465617247    80.36235659   181.15564598
 C      4   1   2     2.590394673157    80.36358993   181.14305473
 C      4   1   2     2.590404281711   172.74430185     9.13892315
 C      9   1   2     2.603264255451   125.66613610     2.25390691
 C     10   2   1     2.603248093630   125.66739448     2.25241290
 C     11   1   2     2.603256528784   125.67739340     2.30114869
 C     12   2   1     2.603247710858   125.67503938     2.29624379
 C     13   3  14     2.704040342647   109.64262364   359.95276415
 C     21  13   3     2.583224859667   106.94919461     0.12079397
 C     15   4   1     2.704190871627   109.64179711   181.00446043
 C     23  15   4     2.583156580588   106.94825517     0.12005675
 H      5   1   2     2.066642291317   117.48119229   285.29610054
 H      5   1   2     2.060437808139   129.77292185    74.83365878
 H      6   2   1     2.066650345610   117.45243435   285.29735237
 H      6   2   1     2.060423437730   129.79853465    74.83293182
 H      7   5   1     2.060433446106   113.35711182   126.06534071
 H      7   5   1     2.066633814981   111.83148131   247.14860792
 H      8   6   2     2.060436647919   113.35342562   126.07482105
 H      8   6   2     2.066618281135   111.83547187   247.16406460
 H     17   9   1     2.047221400191   116.30988331   179.63283291
 H     18  10   2     2.047219185490   116.31217148   179.64366974
 H     19  11   1     2.047217262721   116.31275699   179.62575756
 H     20  12   2     2.047216496614   116.31350810   179.62687671
 H     21  13   3     2.038873910402   125.08340360   180.05189031
 H     22  21  13     2.038874389575   127.96702129   179.92425103
 H     23  15   4     2.038869773628   125.06844783   180.04988392
 H     24  23  15     2.038874791271   127.98362874   179.91361688
 Mg     4   1   2     3.841305376545    46.24671301     0.00000000

---------------------
BASIS SET INFORMATION
---------------------
There are 4 groups of distinct atoms

 Group   1 Type N   : 11s6p2d1f contracted to 5s3p2d1f pattern {62111/411/11/1}
 Group   2 Type C   : 11s6p2d1f contracted to 5s3p2d1f pattern {62111/411/11/1}
 Group   3 Type H   : 5s1p contracted to 3s1p pattern {311/1}
 Group   4 Type Mg  : 14s8p3d contracted to 5s4p3d pattern {73211/5111/111}

Atom   0N    basis set group =>   1
Atom   1N    basis set group =>   1
Atom   2N    basis set group =>   1
Atom   3N    basis set group =>   1
Atom   4C    basis set group =>   2
Atom   5C    basis set group =>   2
Atom   6C    basis set group =>   2
Atom   7C    basis set group =>   2
Atom   8C    basis set group =>   2
Atom   9C    basis set group =>   2
Atom  10C    basis set group =>   2
Atom  11C    basis set group =>   2
Atom  12C    basis set group =>   2
Atom  13C    basis set group =>   2
Atom  14C    basis set group =>   2
Atom  15C    basis set group =>   2
Atom  16C    basis set group =>   2
Atom  17C    basis set group =>   2
Atom  18C    basis set group =>   2
Atom  19C    basis set group =>   2
Atom  20C    basis set group =>   2
Atom  21C    basis set group =>   2
Atom  22C    basis set group =>   2
Atom  23C    basis set group =>   2
Atom  24H    basis set group =>   3
Atom  25H    basis set group =>   3
Atom  26H    basis set group =>   3
Atom  27H    basis set group =>   3
Atom  28H    basis set group =>   3
Atom  29H    basis set group =>   3
Atom  30H    basis set group =>   3
Atom  31H    basis set group =>   3
Atom  32H    basis set group =>   3
Atom  33H    basis set group =>   3
Atom  34H    basis set group =>   3
Atom  35H    basis set group =>   3
Atom  36H    basis set group =>   3
Atom  37H    basis set group =>   3
Atom  38H    basis set group =>   3
Atom  39H    basis set group =>   3
Atom  40Mg   basis set group =>   4
---------------------------------
AUXILIARY/J BASIS SET INFORMATION
---------------------------------
There are 4 groups of distinct atoms

 Group   1 Type N   : 12s5p4d2f1g contracted to 6s4p3d1f1g pattern {711111/2111/211/2/1}
 Group   2 Type C   : 12s5p4d2f1g contracted to 6s4p3d1f1g pattern {711111/2111/211/2/1}
 Group   3 Type H   : 5s2p1d contracted to 3s1p1d pattern {311/2/1}
 Group   4 Type Mg  : 14s5p5d2f1g contracted to 8s4p4d1f1g pattern {71111111/2111/2111/2/1}

Atom   0N    basis set group =>   1
Atom   1N    basis set group =>   1
Atom   2N    basis set group =>   1
Atom   3N    basis set group =>   1
Atom   4C    basis set group =>   2
Atom   5C    basis set group =>   2
Atom   6C    basis set group =>   2
Atom   7C    basis set group =>   2
Atom   8C    basis set group =>   2
Atom   9C    basis set group =>   2
Atom  10C    basis set group =>   2
Atom  11C    basis set group =>   2
Atom  12C    basis set group =>   2
Atom  13C    basis set group =>   2
Atom  14C    basis set group =>   2
Atom  15C    basis set group =>   2
Atom  16C    basis set group =>   2
Atom  17C    basis set group =>   2
Atom  18C    basis set group =>   2
Atom  19C    basis set group =>   2
Atom  20C    basis set group =>   2
Atom  21C    basis set group =>   2
Atom  22C    basis set group =>   2
Atom  23C    basis set group =>   2
Atom  24H    basis set group =>   3
Atom  25H    basis set group =>   3
Atom  26H    basis set group =>   3
Atom  27H    basis set group =>   3
Atom  28H    basis set group =>   3
Atom  29H    basis set group =>   3
Atom  30H    basis set group =>   3
Atom  31H    basis set group =>   3
Atom  32H    basis set group =>   3
Atom  33H    basis set group =>   3
Atom  34H    basis set group =>   3
Atom  35H    basis set group =>   3
Atom  36H    basis set group =>   3
Atom  37H    basis set group =>   3
Atom  38H    basis set group =>   3
Atom  39H    basis set group =>   3
Atom  40Mg   basis set group =>   4


           ************************************************************
           *        Program running with 4 parallel MPI-processes     *
           *              working on a common directory               *
           ************************************************************
------------------------------------------------------------------------------
                             ORCA STARTUP CALCULATIONS
                           -- RI-GTO INTEGRALS CHOSEN --
------------------------------------------------------------------------------
------------------------------------------------------------------------------
                   ___                                                        
                  /   \      - P O W E R E D   B Y -                         
                 /     \                                                     
                 |  |  |   _    _      __       _____    __    __             
                 |  |  |  | |  | |    /  \     |  _  \  |  |  /  |          
                  \  \/   | |  | |   /    \    | | | |  |  | /  /          
                 / \  \   | |__| |  /  /\  \   | |_| |  |  |/  /          
                |  |  |   |  __  | /  /__\  \  |    /   |      \           
                |  |  |   | |  | | |   __   |  |    \   |  |\   \          
                \     /   | |  | | |  |  |  |  | |\  \  |  | \   \       
                 \___/    |_|  |_| |__|  |__|  |_| \__\ |__|  \__/        
                                                                              
                      - O R C A' S   B I G   F R I E N D -                    
                                      &                                       
                       - I N T E G R A L  F E E D E R -                       
                                                                              
 v1 FN, 2020, v2 2021, v3 2022-2024                                           
------------------------------------------------------------------------------


----------------------
SHARK INTEGRAL PACKAGE
----------------------

Number of atoms                             ...     41
Number of basis functions                   ...    872
Number of shells                            ...    340
Maximum angular momentum                    ...      3
Integral batch strategy                     ... SHARK/LIBINT Hybrid
RI-J (if used) integral strategy            ... SPLIT-RIJ (Revised 2003 algorithm where possible)
Printlevel                                  ...      1
Contraction scheme used                     ... SEGMENTED contraction
Prescreening option                         ... SCHWARTZ
   Thresh                                   ... 2.500e-11
   Tcut                                     ... 2.500e-12
   Tpresel                                  ... 2.500e-12 
Coulomb Range Separation                    ... NOT USED
Exchange Range Separation                   ... NOT USED
Multipole approximations                    ... NOT USED
Finite Nucleus Model                        ... NOT USED
CABS basis                                  ... NOT available
Auxiliary Coulomb fitting basis             ... AVAILABLE
   # of basis functions in Aux-J            ...   1408
   # of shells in Aux-J                     ...    458
   Maximum angular momentum in Aux-J        ...      4
Auxiliary J/K fitting basis                 ... NOT available
Auxiliary Correlation fitting basis         ... NOT available
Auxiliary 'external' fitting basis          ... NOT available

Checking pre-screening integrals            ... done (  0.0 sec) Dimension = 340
   => SHARK Basis and OBASIS are compatible. Storing Pre-screening
Shell pair information
Shell pair cut-off parameter TPreSel        ...   2.5e-12
Total number of shell pairs                 ...     57970
Shell pairs after pre-screening             ...     40545
Total number of primitive shell pairs       ...    181512
Primitive shell pairs kept                  ...     83416
          la=0 lb=0:   9964 shell pairs
          la=1 lb=0:  11660 shell pairs
          la=1 lb=1:   3400 shell pairs
          la=2 lb=0:   5941 shell pairs
          la=2 lb=1:   3556 shell pairs
          la=2 lb=2:    970 shell pairs
          la=3 lb=0:   2548 shell pairs
          la=3 lb=1:   1556 shell pairs
          la=3 lb=2:    780 shell pairs
          la=3 lb=3:    170 shell pairs

Checking whether 4 symmetric matrices of dimension 872 fit in memory
:Max Core in MB      =   3000.00
 MB in use           =     52.70
 MB left             =   2947.30
 MB needed           =     11.62
 Data fit in memory  = YES
Calculating RI/J V-Matrix + Cholesky decomp.... done (  0.2 sec)
Calculating Nuclear repulsion               ... done (  0.0 sec) ENN=   2190.086224452672 Eh

Diagonalization of the overlap matrix:
Smallest eigenvalue                        ... 1.019e-05
Time for diagonalization                   ...    0.263 sec
Threshold for overlap eigenvalues          ... 1.000e-07
Number of eigenvalues below threshold      ... 0
Time for construction of square roots      ...    0.550 sec
Total time needed                          ...    0.829 sec

-------------------
DFT GRID GENERATION
-------------------

General Integration Accuracy     IntAcc      ... 4.959
Radial Grid Type                 RadialGrid  ... OptM3 with GC (2021)
Angular Grid (max. ang.)         AngularGrid ... 6 (Lebedev-590)
Angular grid pruning method      GridPruning ... 4 (adaptive)
Weight generation scheme         WeightScheme... mBecke (2022)
Basis function cutoff            BFCut       ... 1.0000e-11
Integration weight cutoff        WCut        ... 1.0000e-14
Partially contracted basis set               ... off
Rotationally invariant grid construction     ... off
Angular grids for H and He will be reduced by one unit

Total number of grid points                  ...   489901
Total number of batches                      ...     7676
Average number of points per batch           ...       63
Average number of grid points per atom       ...    11949

--------------------
COSX GRID GENERATION
--------------------

GRIDX 1
-------
General Integration Accuracy     IntAcc      ... 4.020
Radial Grid Type                 RadialGrid  ... OptM3 with GC (2021)
Angular Grid (max. ang.)         AngularGrid ... 2 (Lebedev-110)
Angular grid pruning method      GridPruning ... 4 (adaptive)
Weight generation scheme         WeightScheme... mBecke (2022)
Basis function cutoff            BFCut       ... 1.0000e-11
Integration weight cutoff        WCut        ... 1.0000e-14
Partially contracted basis set               ... on
Rotationally invariant grid construction     ... off
Angular grids for H and He will be reduced by one unit

Total number of grid points                  ...    55413
Total number of batches                      ...      455
Average number of points per batch           ...      121
Average number of grid points per atom       ...     1352
UseSFitting                                  ... on

GRIDX 2
-------
General Integration Accuracy     IntAcc      ... 4.338
Radial Grid Type                 RadialGrid  ... OptM3 with GC (2021)
Angular Grid (max. ang.)         AngularGrid ... 3 (Lebedev-194)
Angular grid pruning method      GridPruning ... 4 (adaptive)
Weight generation scheme         WeightScheme... mBecke (2022)
Basis function cutoff            BFCut       ... 1.0000e-11
Integration weight cutoff        WCut        ... 1.0000e-14
Partially contracted basis set               ... on
Rotationally invariant grid construction     ... off
Angular grids for H and He will be reduced by one unit

Total number of grid points                  ...   121895
Total number of batches                      ...      972
Average number of points per batch           ...      125
Average number of grid points per atom       ...     2973
UseSFitting                                  ... on

GRIDX 3
-------
General Integration Accuracy     IntAcc      ... 4.871
Radial Grid Type                 RadialGrid  ... OptM3 with GC (2021)
Angular Grid (max. ang.)         AngularGrid ... 4 (Lebedev-302)
Angular grid pruning method      GridPruning ... 4 (adaptive)
Weight generation scheme         WeightScheme... mBecke (2022)
Basis function cutoff            BFCut       ... 1.0000e-11
Integration weight cutoff        WCut        ... 1.0000e-14
Partially contracted basis set               ... on
Rotationally invariant grid construction     ... off
Angular grids for H and He will be reduced by one unit

Total number of grid points                  ...   225543
Total number of batches                      ...     1784
Average number of points per batch           ...      126
Average number of grid points per atom       ...     5501
UseSFitting                                  ... on
Grids setup in  27.1 sec
Initializing property integral containers    ... done (  0.0 sec)

SHARK setup successfully completed in  29.1 seconds

Maximum memory used throughout the entire STARTUP-calculation: 159.8 MB


           ************************************************************
           *        Program running with 4 parallel MPI-processes     *
           *              working on a common directory               *
           ************************************************************
-------------------------------------------------------------------------------
                                 ORCA GUESS
                   Start orbitals & Density for SCF / CASSCF
-------------------------------------------------------------------------------

------------
SCF SETTINGS
------------
Hamiltonian:
 Density Functional     Method          .... DFT(GTOs)
 Exchange Functional    Exchange        .... M062X
 Correlation Functional Correlation     .... M062X
 Gradients option       PostSCFGGA      .... off
 Hybrid DFT is turned on
   Fraction HF Exchange ScalHFX         ....  0.540000
   Scaling of DF-GGA-X  ScalDFX         ....  0.460000
   Scaling of DF-GGA-C  ScalDFC         ....  1.000000
   Scaling of DF-LDA-C  ScalLDAC        ....  1.000000
   Perturbative correction              ....  0.000000
 RI-approximation to the Coulomb term is turned on
   Number of AuxJ basis functions       .... 1408
   RIJ-COSX (HFX calculated with COS-X)).... on


General Settings:
 Integral files         IntName         .... tddft
 Hartree-Fock type      HFTyp           .... RHF
 Total Charge           Charge          ....    0
 Multiplicity           Mult            ....    1
 Number of Electrons    NEL             ....  176
 Basis Dimension        Dim             ....  872
 Nuclear Repulsion      ENuc            ....   2190.0862244527 Eh

Convergence Acceleration:
 AO-DIIS                CNVDIIS         .... on
   Start iteration      DIISMaxIt       ....    12
   Startup error        DIISStart       ....  0.200000
   # of expansion vecs  DIISMaxEq       ....     5
   Bias factor          DIISBfac        ....   1.050
   Max. coefficient     DIISMaxC        ....  10.000
 MO-DIIS                CNVKDIIS        .... off
 Trust-Rad. Augm. Hess. CNVTRAH         .... auto
   Auto Start mean grad. ratio tolernc. ....  1.125000
   Auto Start start iteration           ....    50
   Auto Start num. interpolation iter.  ....    10
   Max. Number of Micro iterations      ....    24
   Max. Number of Macro iterations      .... Maxiter - #DIIS iter
   Number of Davidson start vectors     ....     2
   Converg. threshold    (grad. norm)   ....   1.000e-05
   Grad. Scal. Fac. for Micro threshold ....   0.100
   Minimum threshold for Micro iter.    ....   1.000e-02
   NR start threshold (gradient norm)   ....   1.000e-04
   Initial trust radius                 ....   0.400
   Minimum AH scaling param. (alpha)    ....   1.000
   Maximum AH scaling param. (alpha)    .... 1000.000
   Quad. conv. algorithm                .... NR
   White noise on init. David. guess    .... on
   Maximum white noise                  ....   0.010
   Pseudo random numbers                .... off
   Inactive MOs                         .... canonical
   Orbital update algorithm             .... Taylor
   Preconditioner                       .... Diag
   Full preconditioner red. dimension   ....   250
 SOSCF                 CNVSOSCF           .... on
   Start iteration     SOSCFMaxIt         ....   150
   Startup grad/error  SOSCFStart         ....  0.003300
   Hessian update      SOSCFHessUp        .... L-BFGS
   Autom. constraints  SOSCFAutoConstrain .... off
 Level Shifting         CNVShift        .... on
   Level shift para.    LevelShift      ....    0.2500
   Turn off err/grad.   ShiftErr        ....    0.0010
 Zerner damping         CNVZerner       .... off
 Static damping         CNVDamp         .... on
   Fraction old density DampFac         ....    0.7000
   Max. Damping (<1)    DampMax         ....    0.9800
   Min. Damping (>=0)   DampMin         ....    0.0000
   Turn off err/grad.   DampErr         ....    0.1000

SCF Procedure:
 Maximum # iterations   MaxIter         ....   125
 SCF integral mode      SCFMode         .... Direct
   Integral package                     .... SHARK and LIBINT hybrid scheme
 Reset frequency        DirectResetFreq ....    20
 Integral Threshold     Thresh          ....  2.500e-11 Eh
 Primitive CutOff       TCut            ....  2.500e-12 Eh

Convergence Tolerance:
 Convergence Check Mode ConvCheckMode   .... Total+1el-Energy
 Convergence forced     ConvForced      .... 1
 Energy Change          TolE            ....  1.000e-08 Eh
 1-El. energy change                    ....  1.000e-05 Eh
 Orbital Gradient       TolG            ....  1.000e-05
 Orbital Rotation angle TolX            ....  1.000e-05
 DIIS Error             TolErr          ....  5.000e-07

------------------------------
INITIAL GUESS: MODEL POTENTIAL
------------------------------
Loading Hartree-Fock densities                     ... done
Calculating cut-offs                               ... done
Initializing the effective Hamiltonian             ... done
Setting up the integral package (SHARK)            ... done
Starting the Coulomb interaction                   ... done (   4.4 sec)
Making the grid                                    ... done (   1.4 sec)
Mapping shells                                     ... done
Starting the XC term evaluation                    ... done (   2.1 sec)
  promolecular density results
     # of electrons  =    176.013752315
     EX              =   -149.316411799
     EC              =     -5.985031575
     EX+EC           =   -155.301443373
Transforming the Hamiltonian                       ... done (   0.3 sec)
Diagonalizing the Hamiltonian                      ... done (   0.5 sec)
Back transforming the eigenvectors                 ... done (   0.2 sec)
Now organizing SCF variables                       ... done
                      ------------------
                      INITIAL GUESS DONE (   9.2 sec)
                      ------------------
             **** ENERGY FILE WAS UPDATED (tddft.en.tmp) ****
Finished Guess after  12.2 sec
Maximum memory used throughout the entire GUESS-calculation: 88.7 MB


           ************************************************************
           *        Program running with 4 parallel MPI-processes     *
           *              working on a common directory               *
           ************************************************************

-------------------------------------------------------------------------------------------
                                      ORCA LEAN-SCF
                              memory conserving SCF solver
-------------------------------------------------------------------------------------------

--------------------
CPCM SOLVATION MODEL
--------------------
CPCM parameters:
  Epsilon                                         ...       8.9990
  Refrac                                          ...       1.4242
  Rsolv                                           ...       1.3000
  Surface type                                    ... GAUSSIAN VDW
  Discretization scheme                           ... Constant charge density
    Threshold for H atoms                         ...       5.0000 (charges/Ang^2)
    Threshold for non-H atoms                     ...       5.0000 (charges/Ang^2)
  Epsilon function type                           ...         CPCM
Solvent:                                          ... DICHLOROMETHANE
Radii:
  Scheme                                          ... Element-dependent radii
  Radius for N  used is    3.5149 Bohr (=   1.8600 Ang.)
  Radius for C  used is    3.8550 Bohr (=   2.0400 Ang.)
  Radius for H  used is    2.4944 Bohr (=   1.3200 Ang.)
  Radius for Mg used is    3.9231 Bohr (=   2.0760 Ang.)
Calculating surface                               ...        done! (  0.0s)
Cavity surface points                             ...         3647
Cavity Volume                                     ...    2544.6779
Cavity Surface-area                               ...    1209.7494
Calculating surface distance matrix               ...        done! (  1.1s)
Performing Cholesky decomposition & store         ...        done! (  1.1s)
Overall time for CPCM initialization              ...                 2.2s

----------------------------------------D-I-I-S--------------------------------------------
Iteration    Energy (Eh)           Delta-E    RMSDP     MaxDP     DIISErr   Damp  Time(sec)
-------------------------------------------------------------------------------------------
               ***  Starting incremental Fock matrix formation  ***
    1    -1190.3378600019814257     0.00e+00  2.27e-03  4.66e-02  2.41e-01  0.700 180.9
    2    -1190.5877324282901100    -2.50e-01  1.83e-03  3.69e-02  1.29e-01  0.700  92.0
                               ***Turning on AO-DIIS***
    3    -1190.7139770932908505    -1.26e-01  1.23e-03  2.72e-02  5.57e-02  0.700  96.4
    4    -1190.7883084058944405    -7.43e-02  2.83e-03  6.60e-02  3.89e-02  0.000  83.1
    5    -1190.9459484899239214    -1.58e-01  2.37e-04  4.42e-03  4.21e-03  0.000  79.3
                              *** Initializing SOSCF ***
---------------------------------------S-O-S-C-F--------------------------------------
Iteration    Energy (Eh)           Delta-E    RMSDP     MaxDP     MaxGrad    Time(sec)
--------------------------------------------------------------------------------------
    6    -1190.9463327902294623    -3.84e-04  9.32e-05  1.73e-03  2.81e-03    74.9
               *** Restarting incremental Fock matrix formation ***
    7    -1190.9463785664461284    -4.58e-05  6.64e-05  1.25e-03  5.12e-04   184.6
    8    -1190.9463922025165630    -1.36e-05  3.01e-05  6.75e-04  2.22e-04   118.1
    9    -1190.9463933342167365    -1.13e-06  1.01e-05  1.75e-04  1.14e-04   125.6
   10    -1190.9463941268445524    -7.93e-07  3.61e-06  8.72e-05  3.30e-05    95.8
   11    -1190.9463941790777426    -5.22e-08  1.42e-06  2.53e-05  1.57e-05    73.8
   12    -1190.9463941650992638     1.40e-08  1.48e-06  3.39e-05  5.39e-06    59.7
   13    -1190.9463941726135090    -7.51e-09  1.02e-06  2.11e-05  3.55e-06    59.9
                 **** Energy Check signals convergence ****

               *****************************************************
               *                     SUCCESS                       *
               *           SCF CONVERGED AFTER  13 CYCLES          *
               *****************************************************

Recomputing exchange energy using gridx3       ... done (  199.249 sec)
Old exchange energy                            :    -82.172226846 Eh
New exchange energy                            :    -82.172205619 Eh
Exchange energy change after final integration :      0.000021227 Eh
Total energy after final integration           :  -1190.946372999 Eh
             **** ENERGY FILE WAS UPDATED (tddft.en.tmp) ****

----------------
TOTAL SCF ENERGY
----------------

Total Energy       :      -1190.94637299912597 Eh          -32407.29836 eV

Components:
Nuclear Repulsion  :       2190.08622445267247 Eh           59595.27593 eV
Electronic Energy  :      -3381.01675341170403 Eh          -92002.14316 eV
One Electron Energy:      -5978.15457820782558 Eh         -162673.85625 eV
Two Electron Energy:       2597.13782479612155 Eh           70671.71309 eV
CPCM Dielectric    :         -0.01586526687130 Eh              -0.43172 eV

Virial components:
Potential Energy   :      -2376.16220707111825 Eh          -64658.66084 eV
Kinetic Energy     :       1185.21583407199228 Eh           32251.36247 eV
Virial Ratio       :          2.00483501718623

DFT components:
N(Alpha)           :       87.999995655683 electrons
N(Beta)            :       87.999995655683 electrons
N(Total)           :      175.999991311367 electrons
E(XC)              :      -76.514077822419 Eh       

CPCM Solvation Model Properties:
Surface-charge          :         -0.03903011377473
Corrected charge        :          0.00000000000000
Outlying charge corr.   :          0.00007191228119 Eh               0.00196 eV
Free-energy (cav+disp)  :  This term is not implemented in the current solvation scheme

---------------
SCF CONVERGENCE
---------------

  Last Energy change         ...    7.5142e-09  Tolerance :   1.0000e-08
  Last MAX-Density change    ...    2.1092e-05  Tolerance :   1.0000e-07
  Last RMS-Density change    ...    1.0157e-06  Tolerance :   5.0000e-09
  Last DIIS Error            ...    2.8138e-03  Tolerance :   5.0000e-07
  Last Orbital Gradient      ...    3.5492e-06  Tolerance :   1.0000e-05
  Last Orbital Rotation      ...    7.8399e-06  Tolerance :   1.0000e-05


----------------
ORBITAL ENERGIES
----------------

  NO   OCC          E(Eh)            E(eV) 
   0   2.0000     -47.521700     -1293.1312 
   1   2.0000     -14.761183      -401.6722 
   2   2.0000     -14.761181      -401.6722 
   3   2.0000     -14.733914      -400.9302 
   4   2.0000     -14.733902      -400.9299 
   5   2.0000     -10.578890      -287.8662 
   6   2.0000     -10.578882      -287.8660 
   7   2.0000     -10.578853      -287.8652 
   8   2.0000     -10.578845      -287.8650 
   9   2.0000     -10.567882      -287.5667 
  10   2.0000     -10.567860      -287.5661 
  11   2.0000     -10.567846      -287.5657 
  12   2.0000     -10.567825      -287.5651 
  13   2.0000     -10.538237      -286.7600 
  14   2.0000     -10.538233      -286.7599 
  15   2.0000     -10.537874      -286.7501 
  16   2.0000     -10.537871      -286.7500 
  17   2.0000     -10.534844      -286.6677 
  18   2.0000     -10.534839      -286.6676 
  19   2.0000     -10.534839      -286.6675 
  20   2.0000     -10.534835      -286.6674 
  21   2.0000     -10.531993      -286.5901 
  22   2.0000     -10.531963      -286.5893 
  23   2.0000     -10.531070      -286.5650 
  24   2.0000     -10.531040      -286.5642 
  25   2.0000      -3.275713       -89.1367 
  26   2.0000      -1.970740       -53.6266 
  27   2.0000      -1.967368       -53.5348 
  28   2.0000      -1.966851       -53.5207 
  29   2.0000      -1.072412       -29.1818 
  30   2.0000      -1.066133       -29.0109 
  31   2.0000      -1.058357       -28.7994 
  32   2.0000      -1.051067       -28.6010 
  33   2.0000      -0.913417       -24.8553 
  34   2.0000      -0.887934       -24.1619 
  35   2.0000      -0.879578       -23.9345 
  36   2.0000      -0.867050       -23.5936 
  37   2.0000      -0.865075       -23.5399 
  38   2.0000      -0.855354       -23.2754 
  39   2.0000      -0.854645       -23.2561 
  40   2.0000      -0.825611       -22.4660 
  41   2.0000      -0.809908       -22.0387 
  42   2.0000      -0.745321       -20.2812 
  43   2.0000      -0.736924       -20.0527 
  44   2.0000      -0.698905       -19.0182 
  45   2.0000      -0.676907       -18.4196 
  46   2.0000      -0.647629       -17.6229 
  47   2.0000      -0.646579       -17.5943 
  48   2.0000      -0.644295       -17.5322 
  49   2.0000      -0.633874       -17.2486 
  50   2.0000      -0.609634       -16.5890 
  51   2.0000      -0.595615       -16.2075 
  52   2.0000      -0.582630       -15.8542 
  53   2.0000      -0.574120       -15.6226 
  54   2.0000      -0.569700       -15.5023 
  55   2.0000      -0.555760       -15.1230 
  56   2.0000      -0.546456       -14.8698 
  57   2.0000      -0.543750       -14.7962 
  58   2.0000      -0.504445       -13.7267 
  59   2.0000      -0.503765       -13.7081 
  60   2.0000      -0.486841       -13.2476 
  61   2.0000      -0.486543       -13.2395 
  62   2.0000      -0.481198       -13.0941 
  63   2.0000      -0.466972       -12.7070 
  64   2.0000      -0.466859       -12.7039 
  65   2.0000      -0.463570       -12.6144 
  66   2.0000      -0.450013       -12.2455 
  67   2.0000      -0.441727       -12.0200 
  68   2.0000      -0.440665       -11.9911 
  69   2.0000      -0.440149       -11.9771 
  70   2.0000      -0.434945       -11.8354 
  71   2.0000      -0.427573       -11.6349 
  72   2.0000      -0.426361       -11.6019 
  73   2.0000      -0.425049       -11.5662 
  74   2.0000      -0.418624       -11.3913 
  75   2.0000      -0.418339       -11.3836 
  76   2.0000      -0.416135       -11.3236 
  77   2.0000      -0.409506       -11.1432 
  78   2.0000      -0.377361       -10.2685 
  79   2.0000      -0.372280       -10.1302 
  80   2.0000      -0.365952        -9.9581 
  81   2.0000      -0.347353        -9.4520 
  82   2.0000      -0.328624        -8.9423 
  83   2.0000      -0.314831        -8.5670 
  84   2.0000      -0.307063        -8.3556 
  85   2.0000      -0.297192        -8.0870 
  86   2.0000      -0.237791        -6.4706 
  87   2.0000      -0.200400        -5.4532 
  88   0.0000      -0.081061        -2.2058 
  89   0.0000      -0.016116        -0.4385 
  90   0.0000       0.017072         0.4646 
  91   0.0000       0.044070         1.1992 
  92   0.0000       0.052249         1.4218 
  93   0.0000       0.064180         1.7464 
  94   0.0000       0.067341         1.8324 
  95   0.0000       0.072125         1.9626 
  96   0.0000       0.084276         2.2933 
  97   0.0000       0.086305         2.3485 
  98   0.0000       0.095760         2.6058 
*Only the first 10 virtual orbitals were printed.

                    ********************************
                    * MULLIKEN POPULATION ANALYSIS *
                    ********************************

-----------------------
MULLIKEN ATOMIC CHARGES
-----------------------
   0 N :   -0.387726
   1 N :   -0.387589
   2 N :   -0.447793
   3 N :   -0.447707
   4 C :   -0.308210
   5 C :   -0.308580
   6 C :   -0.308523
   7 C :   -0.308159
   8 C :    0.186982
   9 C :    0.187361
  10 C :    0.187312
  11 C :    0.187011
  12 C :    0.220222
  13 C :    0.220218
  14 C :    0.220159
  15 C :    0.220301
  16 C :   -0.316422
  17 C :   -0.316620
  18 C :   -0.316505
  19 C :   -0.316513
  20 C :   -0.250974
  21 C :   -0.250744
  22 C :   -0.250872
  23 C :   -0.250739
  24 H :    0.164193
  25 H :    0.169771
  26 H :    0.164210
  27 H :    0.169802
  28 H :    0.169804
  29 H :    0.164210
  30 H :    0.169778
  31 H :    0.164205
  32 H :    0.178084
  33 H :    0.178084
  34 H :    0.178101
  35 H :    0.178103
  36 H :    0.173114
  37 H :    0.173142
  38 H :    0.173159
  39 H :    0.173137
  40 Mg:    0.803210
Sum of atomic charges:    0.0000000

--------------------------------
MULLIKEN REDUCED ORBITAL CHARGES
--------------------------------
  0 N s       :     3.677501  s :     3.677501
      pz      :     1.276672  p :     3.653330
      px      :     1.339813
      py      :     1.036844
      dz2     :     0.003796  d :     0.053423
      dxz     :     0.006143
      dyz     :     0.015476
      dx2y2   :     0.013519
      dxy     :     0.014489
      f0      :     0.000656  f :     0.003473
      f+1     :     0.000280
      f-1     :     0.000446
      f+2     :     0.000104
      f-2     :     0.000495
      f+3     :     0.000616
      f-3     :     0.000877

  1 N s       :     3.677483  s :     3.677483
      pz      :     1.276807  p :     3.653215
      px      :     1.339588
      py      :     1.036820
      dz2     :     0.003795  d :     0.053419
      dxz     :     0.006139
      dyz     :     0.015477
      dx2y2   :     0.013521
      dxy     :     0.014487
      f0      :     0.000656  f :     0.003473
      f+1     :     0.000280
      f-1     :     0.000446
      f+2     :     0.000104
      f-2     :     0.000495
      f+3     :     0.000615
      f-3     :     0.000877

  2 N s       :     3.690223  s :     3.690223
      pz      :     1.400105  p :     3.704005
      px      :     1.030358
      py      :     1.273542
      dz2     :     0.004164  d :     0.050049
      dxz     :     0.013425
      dyz     :     0.005401
      dx2y2   :     0.013377
      dxy     :     0.013681
      f0      :     0.000704  f :     0.003517
      f+1     :     0.000492
      f-1     :     0.000353
      f+2     :     0.000073
      f-2     :     0.000547
      f+3     :     0.000764
      f-3     :     0.000586

  3 N s       :     3.690188  s :     3.690188
      pz      :     1.400381  p :     3.703949
      px      :     1.030055
      py      :     1.273513
      dz2     :     0.004143  d :     0.050052
      dxz     :     0.013445
      dyz     :     0.005394
      dx2y2   :     0.013383
      dxy     :     0.013687
      f0      :     0.000705  f :     0.003517
      f+1     :     0.000491
      f-1     :     0.000353
      f+2     :     0.000071
      f-2     :     0.000546
      f+3     :     0.000765
      f-3     :     0.000586

  4 C s       :     3.292358  s :     3.292358
      pz      :     1.090128  p :     2.935836
      px      :     0.916165
      py      :     0.929543
      dz2     :     0.006432  d :     0.074893
      dxz     :     0.014862
      dyz     :     0.015619
      dx2y2   :     0.016353
      dxy     :     0.021627
      f0      :     0.000608  f :     0.005122
      f+1     :     0.000621
      f-1     :     0.000544
      f+2     :     0.000706
      f-2     :     0.000509
      f+3     :     0.001321
      f-3     :     0.000813

  5 C s       :     3.292781  s :     3.292781
      pz      :     1.090114  p :     2.935777
      px      :     0.916260
      py      :     0.929403
      dz2     :     0.006446  d :     0.074899
      dxz     :     0.014855
      dyz     :     0.015613
      dx2y2   :     0.016337
      dxy     :     0.021647
      f0      :     0.000608  f :     0.005122
      f+1     :     0.000621
      f-1     :     0.000543
      f+2     :     0.000706
      f-2     :     0.000509
      f+3     :     0.001322
      f-3     :     0.000812

  6 C s       :     3.292667  s :     3.292667
      pz      :     1.090233  p :     2.935835
      px      :     0.916195
      py      :     0.929407
      dz2     :     0.006291  d :     0.074898
      dxz     :     0.015003
      dyz     :     0.015638
      dx2y2   :     0.016340
      dxy     :     0.021626
      f0      :     0.000591  f :     0.005123
      f+1     :     0.000634
      f-1     :     0.000551
      f+2     :     0.000706
      f-2     :     0.000505
      f+3     :     0.001327
      f-3     :     0.000809

  7 C s       :     3.292246  s :     3.292246
      pz      :     1.090244  p :     2.935886
      px      :     0.916129
      py      :     0.929514
      dz2     :     0.006300  d :     0.074904
      dxz     :     0.014999
      dyz     :     0.015637
      dx2y2   :     0.016354
      dxy     :     0.021614
      f0      :     0.000591  f :     0.005122
      f+1     :     0.000633
      f-1     :     0.000552
      f+2     :     0.000706
      f-2     :     0.000505
      f+3     :     0.001325
      f-3     :     0.000810

  8 C s       :     3.145082  s :     3.145082
      pz      :     0.902558  p :     2.529575
      px      :     0.805650
      py      :     0.821368
      dz2     :     0.002089  d :     0.125839
      dxz     :     0.020636
      dyz     :     0.040535
      dx2y2   :     0.028669
      dxy     :     0.033909
      f0      :     0.001813  f :     0.012522
      f+1     :     0.001000
      f-1     :     0.001132
      f+2     :     0.001075
      f-2     :     0.001366
      f+3     :     0.001897
      f-3     :     0.004238

  9 C s       :     3.144982  s :     3.144982
      pz      :     0.902544  p :     2.529293
      px      :     0.805071
      py      :     0.821678
      dz2     :     0.002094  d :     0.125843
      dxz     :     0.020648
      dyz     :     0.040530
      dx2y2   :     0.028694
      dxy     :     0.033876
      f0      :     0.001813  f :     0.012522
      f+1     :     0.001001
      f-1     :     0.001131
      f+2     :     0.001072
      f-2     :     0.001369
      f+3     :     0.001909
      f-3     :     0.004227

 10 C s       :     3.144933  s :     3.144933
      pz      :     0.902903  p :     2.529396
      px      :     0.804736
      py      :     0.821757
      dz2     :     0.001919  d :     0.125838
      dxz     :     0.020719
      dyz     :     0.040538
      dx2y2   :     0.028796
      dxy     :     0.033867
      f0      :     0.001818  f :     0.012522
      f+1     :     0.000995
      f-1     :     0.001129
      f+2     :     0.001072
      f-2     :     0.001369
      f+3     :     0.001909
      f-3     :     0.004229

 11 C s       :     3.145071  s :     3.145071
      pz      :     0.902889  p :     2.529548
      px      :     0.805268
      py      :     0.821391
      dz2     :     0.001916  d :     0.125849
      dxz     :     0.020708
      dyz     :     0.040554
      dx2y2   :     0.028766
      dxy     :     0.033905
      f0      :     0.001818  f :     0.012522
      f+1     :     0.000995
      f-1     :     0.001129
      f+2     :     0.001075
      f-2     :     0.001367
      f+3     :     0.001898
      f-3     :     0.004240

 12 C s       :     3.133303  s :     3.133303
      pz      :     0.925648  p :     2.512682
      px      :     0.788467
      py      :     0.798568
      dz2     :     0.002576  d :     0.120920
      dxz     :     0.037841
      dyz     :     0.029696
      dx2y2   :     0.023442
      dxy     :     0.027364
      f0      :     0.001985  f :     0.012872
      f+1     :     0.001245
      f-1     :     0.000980
      f+2     :     0.000699
      f-2     :     0.001890
      f+3     :     0.003902
      f-3     :     0.002172

 13 C s       :     3.133205  s :     3.133205
      pz      :     0.925636  p :     2.512782
      px      :     0.788290
      py      :     0.798856
      dz2     :     0.002573  d :     0.120923
      dxz     :     0.037852
      dyz     :     0.029686
      dx2y2   :     0.023410
      dxy     :     0.027401
      f0      :     0.001985  f :     0.012872
      f+1     :     0.001245
      f-1     :     0.000980
      f+2     :     0.000703
      f-2     :     0.001886
      f+3     :     0.003916
      f-3     :     0.002157

 14 C s       :     3.133342  s :     3.133342
      pz      :     0.925700  p :     2.512696
      px      :     0.788170
      py      :     0.798825
      dz2     :     0.002483  d :     0.120930
      dxz     :     0.037989
      dyz     :     0.029680
      dx2y2   :     0.023374
      dxy     :     0.027404
      f0      :     0.001990  f :     0.012873
      f+1     :     0.001240
      f-1     :     0.000978
      f+2     :     0.000699
      f-2     :     0.001887
      f+3     :     0.003921
      f-3     :     0.002158

 15 C s       :     3.133269  s :     3.133269
      pz      :     0.925692  p :     2.512638
      px      :     0.788354
      py      :     0.798591
      dz2     :     0.002489  d :     0.120920
      dxz     :     0.037978
      dyz     :     0.029693
      dx2y2   :     0.023381
      dxy     :     0.027379
      f0      :     0.001990  f :     0.012873
      f+1     :     0.001240
      f-1     :     0.000979
      f+2     :     0.000695
      f-2     :     0.001891
      f+3     :     0.003906
      f-3     :     0.002172

 16 C s       :     3.183341  s :     3.183341
      pz      :     1.063017  p :     3.070409
      px      :     0.996848
      py      :     1.010544
      dz2     :     0.003774  d :     0.055993
      dxz     :     0.014248
      dyz     :     0.015229
      dx2y2   :     0.010015
      dxy     :     0.012727
      f0      :     0.001272  f :     0.006679
      f+1     :     0.000816
      f-1     :     0.000774
      f+2     :     0.000652
      f-2     :     0.000421
      f+3     :     0.001293
      f-3     :     0.001450

 17 C s       :     3.183488  s :     3.183488
      pz      :     1.063046  p :     3.070447
      px      :     0.997283
      py      :     1.010117
      dz2     :     0.003775  d :     0.056006
      dxz     :     0.014201
      dyz     :     0.015274
      dx2y2   :     0.010022
      dxy     :     0.012733
      f0      :     0.001273  f :     0.006679
      f+1     :     0.000816
      f-1     :     0.000774
      f+2     :     0.000652
      f-2     :     0.000421
      f+3     :     0.001297
      f-3     :     0.001446

 18 C s       :     3.183358  s :     3.183358
      pz      :     1.063269  p :     3.070491
      px      :     0.997055
      py      :     1.010168
      dz2     :     0.003762  d :     0.055976
      dxz     :     0.014218
      dyz     :     0.015273
      dx2y2   :     0.010008
      dxy     :     0.012716
      f0      :     0.001274  f :     0.006680
      f+1     :     0.000815
      f-1     :     0.000777
      f+2     :     0.000652
      f-2     :     0.000418
      f+3     :     0.001298
      f-3     :     0.001447

 19 C s       :     3.183301  s :     3.183301
      pz      :     1.063301  p :     3.070570
      px      :     0.996707
      py      :     1.010562
      dz2     :     0.003764  d :     0.055964
      dxz     :     0.014263
      dyz     :     0.015226
      dx2y2   :     0.009992
      dxy     :     0.012718
      f0      :     0.001274  f :     0.006679
      f+1     :     0.000815
      f-1     :     0.000777
      f+2     :     0.000651
      f-2     :     0.000418
      f+3     :     0.001293
      f-3     :     0.001451

 20 C s       :     3.242901  s :     3.242901
      pz      :     1.017943  p :     2.934604
      px      :     0.962196
      py      :     0.954465
      dz2     :     0.005262  d :     0.066504
      dxz     :     0.019645
      dyz     :     0.010162
      dx2y2   :     0.012316
      dxy     :     0.019119
      f0      :     0.001286  f :     0.006965
      f+1     :     0.000697
      f-1     :     0.000883
      f+2     :     0.000991
      f-2     :     0.000200
      f+3     :     0.001013
      f-3     :     0.001895

 21 C s       :     3.242708  s :     3.242708
      pz      :     1.017953  p :     2.934579
      px      :     0.962424
      py      :     0.954202
      dz2     :     0.005260  d :     0.066493
      dxz     :     0.019619
      dyz     :     0.010187
      dx2y2   :     0.012341
      dxy     :     0.019086
      f0      :     0.001286  f :     0.006965
      f+1     :     0.000697
      f-1     :     0.000882
      f+2     :     0.000994
      f-2     :     0.000198
      f+3     :     0.001014
      f-3     :     0.001893

 22 C s       :     3.242842  s :     3.242842
      pz      :     1.017917  p :     2.934569
      px      :     0.962440
      py      :     0.954212
      dz2     :     0.005224  d :     0.066496
      dxz     :     0.019658
      dyz     :     0.010178
      dx2y2   :     0.012343
      dxy     :     0.019094
      f0      :     0.001290  f :     0.006965
      f+1     :     0.000692
      f-1     :     0.000884
      f+2     :     0.000996
      f-2     :     0.000194
      f+3     :     0.001013
      f-3     :     0.001896

 23 C s       :     3.242703  s :     3.242703
      pz      :     1.017923  p :     2.934573
      px      :     0.962174
      py      :     0.954476
      dz2     :     0.005224  d :     0.066498
      dxz     :     0.019684
      dyz     :     0.010153
      dx2y2   :     0.012309
      dxy     :     0.019128
      f0      :     0.001290  f :     0.006965
      f+1     :     0.000691
      f-1     :     0.000885
      f+2     :     0.000993
      f-2     :     0.000197
      f+3     :     0.001012
      f-3     :     0.001897

 24 H s       :     0.816274  s :     0.816274
      pz      :     0.010530  p :     0.019533
      px      :     0.004894
      py      :     0.004109

 25 H s       :     0.810765  s :     0.810765
      pz      :     0.007134  p :     0.019464
      px      :     0.006394
      py      :     0.005936

 26 H s       :     0.816257  s :     0.816257
      pz      :     0.010534  p :     0.019533
      px      :     0.004894
      py      :     0.004104

 27 H s       :     0.810734  s :     0.810734
      pz      :     0.007130  p :     0.019464
      px      :     0.006407
      py      :     0.005928

 28 H s       :     0.810733  s :     0.810733
      pz      :     0.007229  p :     0.019463
      px      :     0.006308
      py      :     0.005926

 29 H s       :     0.816257  s :     0.816257
      pz      :     0.010439  p :     0.019532
      px      :     0.004987
      py      :     0.004106

 30 H s       :     0.810758  s :     0.810758
      pz      :     0.007227  p :     0.019463
      px      :     0.006300
      py      :     0.005936

 31 H s       :     0.816262  s :     0.816262
      pz      :     0.010441  p :     0.019533
      px      :     0.004982
      py      :     0.004109

 32 H s       :     0.801407  s :     0.801407
      pz      :     0.004606  p :     0.020509
      px      :     0.007794
      py      :     0.008109

 33 H s       :     0.801407  s :     0.801407
      pz      :     0.004606  p :     0.020510
      px      :     0.007814
      py      :     0.008089

 34 H s       :     0.801389  s :     0.801389
      pz      :     0.004601  p :     0.020510
      px      :     0.007820
      py      :     0.008089

 35 H s       :     0.801387  s :     0.801387
      pz      :     0.004601  p :     0.020510
      px      :     0.007800
      py      :     0.008109

 36 H s       :     0.806675  s :     0.806675
      pz      :     0.004119  p :     0.020211
      px      :     0.006668
      py      :     0.009424

 37 H s       :     0.806647  s :     0.806647
      pz      :     0.004119  p :     0.020211
      px      :     0.006687
      py      :     0.009405

 38 H s       :     0.806630  s :     0.806630
      pz      :     0.004116  p :     0.020211
      px      :     0.006693
      py      :     0.009402

 39 H s       :     0.806652  s :     0.806652
      pz      :     0.004116  p :     0.020211
      px      :     0.006673
      py      :     0.009422

 40 Mgs       :     4.529325  s :     4.529325
      pz      :     2.079228  p :     6.427204
      px      :     2.155532
      py      :     2.192444
      dz2     :     0.031710  d :     0.240261
      dxz     :     0.011486
      dyz     :     0.029194
      dx2y2   :     0.155608
      dxy     :     0.012263



                     *******************************
                     * LOEWDIN POPULATION ANALYSIS *
                     *******************************

----------------------
LOEWDIN ATOMIC CHARGES
----------------------
   0 N :    0.200724
   1 N :    0.200720
   2 N :    0.156409
   3 N :    0.156448
   4 C :   -0.195706
   5 C :   -0.195706
   6 C :   -0.195696
   7 C :   -0.195689
   8 C :   -0.202836
   9 C :   -0.202807
  10 C :   -0.202796
  11 C :   -0.202768
  12 C :   -0.216746
  13 C :   -0.216741
  14 C :   -0.216713
  15 C :   -0.216703
  16 C :   -0.127931
  17 C :   -0.127940
  18 C :   -0.127945
  19 C :   -0.127955
  20 C :   -0.133542
  21 C :   -0.133544
  22 C :   -0.133475
  23 C :   -0.133480
  24 H :    0.152116
  25 H :    0.148587
  26 H :    0.152130
  27 H :    0.148582
  28 H :    0.148590
  29 H :    0.152116
  30 H :    0.148594
  31 H :    0.152114
  32 H :    0.166496
  33 H :    0.166497
  34 H :    0.166504
  35 H :    0.166504
  36 H :    0.146407
  37 H :    0.146406
  38 H :    0.146411
  39 H :    0.146411
  40 Mg:    0.337950

-------------------------------
LOEWDIN REDUCED ORBITAL CHARGES
-------------------------------
  0 N s       :     2.977480  s :     2.977480
      pz      :     1.112214  p :     3.591426
      px      :     1.353429
      py      :     1.125784
      dz2     :     0.016009  d :     0.211886
      dxz     :     0.009639
      dyz     :     0.049712
      dx2y2   :     0.064044
      dxy     :     0.072482
      f0      :     0.001083  f :     0.018485
      f+1     :     0.000766
      f-1     :     0.001784
      f+2     :     0.000319
      f-2     :     0.003426
      f+3     :     0.003670
      f-3     :     0.007436

  1 N s       :     2.977447  s :     2.977447
      pz      :     1.112299  p :     3.591473
      px      :     1.353395
      py      :     1.125779
      dz2     :     0.016008  d :     0.211877
      dxz     :     0.009637
      dyz     :     0.049710
      dx2y2   :     0.064045
      dxy     :     0.072477
      f0      :     0.001083  f :     0.018483
      f+1     :     0.000766
      f-1     :     0.001784
      f+2     :     0.000319
      f-2     :     0.003426
      f+3     :     0.003670
      f-3     :     0.007436

  2 N s       :     2.975173  s :     2.975173
      pz      :     1.213620  p :     3.650955
      px      :     1.107898
      py      :     1.329436
      dz2     :     0.015810  d :     0.199210
      dxz     :     0.044314
      dyz     :     0.011126
      dx2y2   :     0.060582
      dxy     :     0.067378
      f0      :     0.001096  f :     0.018253
      f+1     :     0.001730
      f-1     :     0.000838
      f+2     :     0.000194
      f-2     :     0.003732
      f+3     :     0.006884
      f-3     :     0.003779

  3 N s       :     2.975118  s :     2.975118
      pz      :     1.213671  p :     3.650948
      px      :     1.107845
      py      :     1.329432
      dz2     :     0.015762  d :     0.199230
      dxz     :     0.044335
      dyz     :     0.011084
      dx2y2   :     0.060622
      dxy     :     0.067426
      f0      :     0.001094  f :     0.018256
      f+1     :     0.001733
      f-1     :     0.000834
      f+2     :     0.000187
      f-2     :     0.003734
      f+3     :     0.006892
      f-3     :     0.003781

  4 C s       :     2.766315  s :     2.766315
      pz      :     1.039617  p :     3.028959
      px      :     0.990160
      py      :     0.999182
      dz2     :     0.047862  d :     0.360162
      dxz     :     0.068845
      dyz     :     0.067628
      dx2y2   :     0.085252
      dxy     :     0.090575
      f0      :     0.004364  f :     0.040270
      f+1     :     0.003540
      f-1     :     0.003551
      f+2     :     0.005500
      f-2     :     0.004755
      f+3     :     0.011261
      f-3     :     0.007301

  5 C s       :     2.766310  s :     2.766310
      pz      :     1.039606  p :     3.028948
      px      :     0.990195
      py      :     0.999147
      dz2     :     0.047915  d :     0.360177
      dxz     :     0.068886
      dyz     :     0.067533
      dx2y2   :     0.085197
      dxy     :     0.090646
      f0      :     0.004367  f :     0.040272
      f+1     :     0.003538
      f-1     :     0.003549
      f+2     :     0.005500
      f-2     :     0.004757
      f+3     :     0.011271
      f-3     :     0.007290

  6 C s       :     2.766319  s :     2.766319
      pz      :     1.039686  p :     3.028950
      px      :     0.990120
      py      :     0.999145
      dz2     :     0.046868  d :     0.360157
      dxz     :     0.069811
      dyz     :     0.067882
      dx2y2   :     0.085286
      dxy     :     0.090311
      f0      :     0.004289  f :     0.040269
      f+1     :     0.003620
      f-1     :     0.003607
      f+2     :     0.005443
      f-2     :     0.004696
      f+3     :     0.011319
      f-3     :     0.007294

  7 C s       :     2.766319  s :     2.766319
      pz      :     1.039680  p :     3.028940
      px      :     0.990079
      py      :     0.999181
      dz2     :     0.046899  d :     0.360161
      dxz     :     0.069719
      dyz     :     0.067947
      dx2y2   :     0.085333
      dxy     :     0.090263
      f0      :     0.004290  f :     0.040269
      f+1     :     0.003619
      f-1     :     0.003608
      f+2     :     0.005446
      f-2     :     0.004695
      f+3     :     0.011308
      f-3     :     0.007304

  8 C s       :     2.712766  s :     2.712766
      pz      :     0.831253  p :     2.785166
      px      :     0.963975
      py      :     0.989938
      dz2     :     0.042041  d :     0.627997
      dxz     :     0.070737
      dyz     :     0.122168
      dx2y2   :     0.201358
      dxy     :     0.191694
      f0      :     0.005147  f :     0.076907
      f+1     :     0.004470
      f-1     :     0.006159
      f+2     :     0.006783
      f-2     :     0.010387
      f+3     :     0.015090
      f-3     :     0.028871

  9 C s       :     2.712760  s :     2.712760
      pz      :     0.831248  p :     2.785148
      px      :     0.963813
      py      :     0.990086
      dz2     :     0.042043  d :     0.627994
      dxz     :     0.070760
      dyz     :     0.122153
      dx2y2   :     0.201326
      dxy     :     0.191712
      f0      :     0.005147  f :     0.076905
      f+1     :     0.004474
      f-1     :     0.006155
      f+2     :     0.006770
      f-2     :     0.010400
      f+3     :     0.015166
      f-3     :     0.028793

 10 C s       :     2.712763  s :     2.712763
      pz      :     0.831016  p :     2.785126
      px      :     0.964009
      py      :     0.990101
      dz2     :     0.041757  d :     0.628001
      dxz     :     0.070876
      dyz     :     0.122093
      dx2y2   :     0.201513
      dxy     :     0.191761
      f0      :     0.005156  f :     0.076905
      f+1     :     0.004443
      f-1     :     0.006139
[...]
  0-1A  ->  1-1A    1.725436   13916.6   718.6   0.476660370   0.04534  -0.00020   0.21292   0.00001
  0-1A  ->  2-1A    2.492487   20103.3   497.4   0.128649732   0.01768  -0.13295  -0.00011  -0.00105
  0-1A  ->  3-1A    3.590767   28961.5   345.3   1.346200235   0.26646   0.51618   0.00048   0.00402
  0-1A  ->  4-1A    3.796529   30621.1   326.6   0.000068403   0.00001  -0.00010  -0.00000   0.00378
  0-1A  ->  5-1A    4.038867   32575.7   307.0   0.000000058   0.00000  -0.00007   0.00009  -0.00000
  0-1A  ->  6-1A    4.061097   32755.0   305.3   0.062543609   0.01400   0.11832   0.00010   0.00094
  0-1A  ->  7-1A    4.166977   33608.9   297.5   1.105533070   0.25394   0.00053  -0.50393  -0.00004
  0-1A  ->  8-1A    4.517888   36439.2   274.4   0.000323912   0.00008  -0.00017   0.00002   0.00898
  0-1A  ->  9-1A    4.659771   37583.6   266.1   0.000573488   0.00015  -0.00012   0.00008   0.01214
  0-1A  -> 10-1A    4.735056   38190.8   261.8   0.003232437   0.00084   0.00003  -0.02905   0.00001
  0-1A  -> 11-1A    4.899179   39514.5   253.1   0.001047143   0.00028  -0.00006  -0.00007   0.01682
  0-1A  -> 12-1A    4.908333   39588.4   252.6   0.000000017   0.00000   0.00001   0.00007  -0.00002
  0-1A  -> 13-1A    5.117894   41278.6   242.3   0.000000033   0.00000  -0.00001  -0.00010  -0.00001
  0-1A  -> 14-1A    5.238440   42250.9   236.7   0.000240399   0.00007   0.00006   0.00011   0.00833
  0-1A  -> 15-1A    5.398940   43545.4   229.6   0.000746312   0.00022   0.00012  -0.00007  -0.01490
  0-1A  -> 16-1A    5.446028   43925.2   227.7   0.000000036   0.00000  -0.00000   0.00010  -0.00000
  0-1A  -> 17-1A    5.494169   44313.5   225.7   0.000031315   0.00001  -0.00307  -0.00019  -0.00002
  0-1A  -> 18-1A    5.533863   44633.6   224.0   0.144579026   0.04410   0.00022  -0.21001  -0.00002
  0-1A  -> 19-1A    5.587652   45067.5   221.9   0.000000170   0.00000  -0.00007  -0.00022   0.00000
  0-1A  -> 20-1A    5.691315   45903.6   217.8   0.000000573   0.00000   0.00003  -0.00042   0.00001
  0-1A  -> 21-1A    5.905471   47630.8   209.9   0.009530154   0.00310  -0.00004   0.05570   0.00003
  0-1A  -> 22-1A    5.961438   48082.2   208.0   0.006110201   0.00201   0.00004  -0.04481  -0.00000
  0-1A  -> 23-1A    5.981840   48246.8   207.3   0.369339320   0.12179  -0.00033   0.34898   0.00001
  0-1A  -> 24-1A    5.998807   48383.6   206.7   0.000978477   0.00032  -0.00015  -0.00032   0.01798
  0-1A  -> 25-1A    6.047916   48779.7   205.0   0.000000803   0.00000   0.00002  -0.00052   0.00001
  0-1A  -> 26-1A    6.140712   49528.2   201.9   0.000000800   0.00000  -0.00001   0.00052  -0.00002
  0-1A  -> 27-1A    6.327095   51031.5   196.0   0.000238929   0.00008   0.00913   0.00001   0.00004
  0-1A  -> 28-1A    6.363331   51323.7   194.8   0.000000079   0.00000  -0.00016  -0.00005   0.00001
  0-1A  -> 29-1A    6.396542   51591.6   193.8   0.008134540   0.00287   0.05355   0.00001   0.00038
  0-1A  -> 30-1A    6.407446   51679.5   193.5   0.000859490   0.00030  -0.00009  -0.01742  -0.00001

------------------------------------------------------------------------------------------
                     CD SPECTRUM VIA TRANSITION ELECTRIC DIPOLE MOMENTS    
------------------------------------------------------------------------------------------
     Transition      Energy     Energy  Wavelength    R        MX        MY        MZ   
                      (eV)      (cm-1)    (nm)   (1e40*cgs)   (au)      (au)      (au)  
------------------------------------------------------------------------------------------
  0-1A  ->  1-1A    1.725436   13916.6   718.6  -14.49143  -0.00000  -0.00952  -0.00019
  0-1A  ->  2-1A    2.492487   20103.3   497.4   -7.46597   0.01128   0.00002   0.00074
  0-1A  ->  3-1A    3.590767   28961.5   345.3  -66.40760  -0.03732  -0.00008   0.00002
  0-1A  ->  4-1A    3.796529   30621.1   326.6   -0.88876   0.00065  -0.00006  -0.07626
  0-1A  ->  5-1A    4.038867   32575.7   307.0    0.00001  -0.00001   0.00003  -0.00004
  0-1A  ->  6-1A    4.061097   32755.0   305.3   -7.59808  -0.02119  -0.00005  -0.00014
  0-1A  ->  7-1A    4.166977   33608.9   297.5    0.67985   0.00004  -0.00046  -0.00005
  0-1A  ->  8-1A    4.517888   36439.2   274.4   23.38841  -0.00796   0.00008   1.02705
  0-1A  ->  9-1A    4.659771   37583.6   266.1   35.33554  -0.00826  -0.00019   1.05441
  0-1A  -> 10-1A    4.735056   38190.8   261.8   27.44793   0.00035  -0.36688   0.00007
  0-1A  -> 11-1A    4.899179   39514.5   253.1    0.01355  -0.00003   0.00006   0.00035
  0-1A  -> 12-1A    4.908333   39588.4   252.6   -0.00003  -0.00006  -0.00020  -0.00004
  0-1A  -> 13-1A    5.117894   41278.6   242.3    0.00002  -0.00007  -0.00006  -0.00004
  0-1A  -> 14-1A    5.238440   42250.9   236.7   12.88940  -0.00572   0.00002   0.75091
  0-1A  -> 15-1A    5.398940   43545.4   229.6   -2.84770  -0.00072  -0.00019   0.10340
  0-1A  -> 16-1A    5.446028   43925.2   227.7   -0.00003   0.00005  -0.00014   0.00002
  0-1A  -> 17-1A    5.494169   44313.5   225.7    0.39413  -0.08893  -0.00007   0.00001
  0-1A  -> 18-1A    5.533863   44633.6   224.0    1.54421   0.00010  -0.00327   0.00021
  0-1A  -> 19-1A    5.587652   45067.5   221.9   -0.00001  -0.00005   0.00003   0.00001
  0-1A  -> 20-1A    5.691315   45903.6   217.8   -0.00002  -0.00000   0.00002  -0.00001
  0-1A  -> 21-1A    5.905471   47630.8   209.9   -1.78085   0.00004  -0.01520  -0.00011
  0-1A  -> 22-1A    5.961438   48082.2   208.0   14.33048   0.00013  -0.14449  -0.00017
  0-1A  -> 23-1A    5.981840   48246.8   207.3  -11.82855   0.00001  -0.01624  -0.00028
  0-1A  -> 24-1A    5.998807   48383.6   206.7   -8.88468   0.00197   0.00005  -0.23744
  0-1A  -> 25-1A    6.047916   48779.7   205.0   -0.00015   0.00006   0.00014  -0.00002
  0-1A  -> 26-1A    6.140712   49528.2   201.9   -0.00025  -0.00011  -0.00024   0.00002
  0-1A  -> 27-1A    6.327095   51031.5   196.0   -6.20029  -0.36069  -0.00031  -0.00294
  0-1A  -> 28-1A    6.363331   51323.7   194.8    0.00029  -0.00050  -0.00156   0.00002
  0-1A  -> 29-1A    6.396542   51591.6   193.8   12.51550   0.13134   0.00096   0.00105
  0-1A  -> 30-1A    6.407446   51679.5   193.5  -13.60692  -0.00087   0.40369  -0.00018

------------------------------------------------------------------------------------------
                     CD SPECTRUM VIA TRANSITION VELOCITY DIPOLE MOMENTS    
------------------------------------------------------------------------------------------
     Transition      Energy     Energy  Wavelength    R        MX        MY        MZ   
                      (eV)      (cm-1)    (nm)   (1e40*cgs)   (au)      (au)      (au)  
------------------------------------------------------------------------------------------
  0-1A  ->  1-1A    1.725436   13916.6   718.6  -15.06816  -0.00000  -0.00952  -0.00019
  0-1A  ->  2-1A    2.492487   20103.3   497.4   -7.72517   0.01128   0.00002   0.00074
  0-1A  ->  3-1A    3.590767   28961.5   345.3  -68.82000  -0.03732  -0.00008   0.00002
  0-1A  ->  4-1A    3.796529   30621.1   326.6   -0.97486   0.00065  -0.00006  -0.07626
  0-1A  ->  5-1A    4.038867   32575.7   307.0    0.00001  -0.00001   0.00003  -0.00004
  0-1A  ->  6-1A    4.061097   32755.0   305.3   -7.91968  -0.02119  -0.00005  -0.00014
  0-1A  ->  7-1A    4.166977   33608.9   297.5    0.70694   0.00004  -0.00046  -0.00005
  0-1A  ->  8-1A    4.517888   36439.2   274.4   26.19258  -0.00796   0.00008   1.02705
  0-1A  ->  9-1A    4.659771   37583.6   266.1   35.23307  -0.00826  -0.00019   1.05441
  0-1A  -> 10-1A    4.735056   38190.8   261.8   28.87274   0.00035  -0.36688   0.00007
  0-1A  -> 11-1A    4.899179   39514.5   253.1    0.01531  -0.00003   0.00006   0.00035
  0-1A  -> 12-1A    4.908333   39588.4   252.6   -0.00003  -0.00006  -0.00020  -0.00004
  0-1A  -> 13-1A    5.117894   41278.6   242.3    0.00002  -0.00007  -0.00006  -0.00004
  0-1A  -> 14-1A    5.238440   42250.9   236.7   15.31930  -0.00572   0.00002   0.75091
  0-1A  -> 15-1A    5.398940   43545.4   229.6   -3.66165  -0.00072  -0.00019   0.10340
  0-1A  -> 16-1A    5.446028   43925.2   227.7   -0.00003   0.00005  -0.00014   0.00002
  0-1A  -> 17-1A    5.494169   44313.5   225.7    0.63834  -0.08893  -0.00007   0.00001
  0-1A  -> 18-1A    5.533863   44633.6   224.0    1.59049   0.00010  -0.00327   0.00021
  0-1A  -> 19-1A    5.587652   45067.5   221.9   -0.00001  -0.00005   0.00003   0.00001
  0-1A  -> 20-1A    5.691315   45903.6   217.8   -0.00002  -0.00000   0.00002  -0.00001
  0-1A  -> 21-1A    5.905471   47630.8   209.9   -1.83908   0.00004  -0.01520  -0.00011
  0-1A  -> 22-1A    5.961438   48082.2   208.0   13.93332   0.00013  -0.14449  -0.00017
  0-1A  -> 23-1A    5.981840   48246.8   207.3  -12.15760   0.00001  -0.01624  -0.00028
  0-1A  -> 24-1A    5.998807   48383.6   206.7   -9.13275   0.00197   0.00005  -0.23744
  0-1A  -> 25-1A    6.047916   48779.7   205.0   -0.00015   0.00006   0.00014  -0.00002
  0-1A  -> 26-1A    6.140712   49528.2   201.9   -0.00026  -0.00011  -0.00024   0.00002
  0-1A  -> 27-1A    6.327095   51031.5   196.0   -6.67624  -0.36069  -0.00031  -0.00294
  0-1A  -> 28-1A    6.363331   51323.7   194.8    0.00031  -0.00050  -0.00156   0.00002
  0-1A  -> 29-1A    6.396542   51591.6   193.8   14.10776   0.13134   0.00096   0.00105
  0-1A  -> 30-1A    6.407446   51679.5   193.5  -14.08221  -0.00087   0.40369  -0.00018

Total run time:     5915.160 sec

           *** ORCA-CIS/TD-DFT FINISHED WITHOUT ERROR ***
-----------------------
CIS/TD-DFT TOTAL ENERGY
-----------------------

    E(SCF)  =  -1190.946372999 Eh
    DE(CIS) =      0.063408627 Eh (Root  1)
    ----------------------------- ---------
    E(tot)  =  -1190.882964372 Eh


Maximum memory used throughout the entire CIS-calculation: 2721.1 MB
=> NOW LEAVING ORCA_CIS

-------------------------   --------------------
FINAL SINGLE POINT ENERGY     -1190.882964371920
-------------------------   --------------------



           ************************************************************
           *        Program running with 4 parallel MPI-processes     *
           *              working on a common directory               *
           ************************************************************

------------------------------------------------------------------------------
                              ORCA PROPERTY CALCULATIONS
------------------------------------------------------------------------------

GBWName                                 ... tddft.gbw
Number of atoms                         ...     41
Number of basis functions               ...    872
Max core memory                         ...   3000 MB

Electric properties:
Dipole moment                           ... YES
Quadrupole moment                       ...  NO
Static polarizability (Dipole/Dipole)   ...  NO
Static polarizability (Dipole/Quad.)    ...  NO
Static polarizability (Quad./Quad.)     ...  NO
Static polarizability (Velocity)        ...  NO
Static hyperpolarizability              ...  NO

Atomic electric properties:
Dipole moment                           ...  NO
Quadrupole moment                       ...  NO
Static polarizability                   ...  NO

Choice of electric origin               ... Center of mass
Position of electric origin             ...    -0.003613    -0.019229     0.068836

General magnetic properties:
Magnetizability                         ...  NO

EPR properties:
g-Tensor (aka g-matrix)                 ...  NO
Zero-Field splitting spin-orbit         ...  NO
Zero-field splitting spin-spin          ...  NO
Hyperfine couplings                     ...  NO (   0 nuclei)
Quadrupole couplings                    ...  NO (   0 nuclei)
Contact density                         ...  NO (   0 nuclei)

NMR properties:
Chemical shifts                         ...  NO (   0 nuclei)
Spin-rotation constants                 ...  NO (   0 nuclei)
Spin-spin couplings                     ...  NO (   0 nuclei,    0 pairs)

Choice of magnetic origin               ... GIAO
Position of magnetic origin             ...     0.000000     0.000000     0.000000

Properties with geometric perturbations:
SCF Hessian                             ...  NO
IR spectrum                             ...  NO
VCD spectrum                            ...  NO
X-ray spectroscopy properties:
SCF XES/XAS/RIXS spectra                ...  NO

SCF SOC stabilization energy            ...  NO
Diagonal Born-Oppenheimer correction    ...  NO

-------------
DIPOLE MOMENT
-------------

Method             : SCF
Type of density    : Electron Density
Multiplicity       :   1
Irrep              :   0
Energy             : -1190.9463729991259697 Eh
Basis              : AO
                                X                 Y                 Z
Electronic contribution:      0.000924592       0.001816164      -0.000411047
Nuclear contribution   :     -0.000660183       0.000201001       0.000373176
                        -----------------------------------------
Total Dipole Moment    :      0.000264410       0.002017165      -0.000037871
                        -----------------------------------------
Magnitude (a.u.)       :      0.002034773
Magnitude (Debye)      :      0.005171983



--------------------
Rotational spectrum 
--------------------
 
Rotational constants in cm-1:             0.008915             0.008207             0.004290 
Rotational constants in MHz :           267.260438           246.047427           128.597541 

Dipole components along the rotational axes: 
x,y,z [a.u.] :     0.000266    -0.002017    -0.000040 
x,y,z [Debye]:     0.000676    -0.005127    -0.000102 

 

Dipole moment calculation done in   0.0 sec 

Maximum memory used throughout the entire PROP-calculation: 90.9 MB

--------------------------------
SUGGESTED CITATIONS FOR THIS RUN
--------------------------------

Below you find a list of papers that are relevant to this ORCA run
We neither can nor want to force you to cite these papers, but we appreciate if you do
You receive ORCA, which is the product of decades of hard work by many enthusiastic individuals, for free
The only thing we kindly ask in return is that you cite our papers,
We deeply appreciate it, if you show your appreciation for ORCA by not just citing the generic ORCA reference.

Please note that relegating all ORCA citations to the supporting information does *not* help us.
SI sections are not indexed - citations you put there will not count into any citation statistics
But we need these citations in order to attract the funding resources that allow us to do what we are doing

Therefore, if you are a happy ORCA user, please consider citing a few of the papers listed below in the main body of your paper

In addition to the list printed below, the program has created the file tddft.bibtex that contains the list in bibtex format
You can import this file easily into all common literature databanks and citation aid programs

It goes without saying that in many instances, there are alternative algorithms to achieve similar
results as the ones you have gotten from ORCA. It is, of course, also the case that in some instances
ORCA just re-implements algorithms worked out by others. We are fully aware of that and we are also
fully appreciative of our colleagues work. Hence this citation list should not be read as indicating
that the listed papers, which are focused on our own work, are the only ones worth citing. It simply
meant to make it easier for users to cite ORCA specific papers. It is not a substitute for doing your
own literature research and citing the relevant literature in a scientifically appropriate manner.

List of essential papers. We consider these as the minimum necessary citations

  1. Neese, F.
     Software update: the ORCA program system, version 6.0
     WIRES Comput. Molec. Sci. 2025 15(1), e70019
     doi.org/10.1002/wcms.70019

List of papers to cite with high priority. The work reported in these papers was absolutely
necessary for this run to complete.
Our perspective: the developers of density functionals and basis sets usually get cited in chemistry papers
Good! But without the algorithms to do something with them, the functionals or basis sets would not do anything.
Hence, in our opinion, the algorithm design and method developments papers are equally worthy of getting cited

  1. Neese, F.; Olbrich, G.
     Efficient use of the resolution of the identity approximation in time-dependent density functional calculations with hybrid density functionals
     Chem. Phys. Lett. 2002 362 , 170-178
     doi.org/10.1016/s0009-2614(02)01053-9
  2. Neese, F.
     An improvement of the resolution of the identity approximation for the formation of the Coulomb matrix
     J. Comp. Chem. 2003 24(14), 1740-1747
     doi.org/10.1002/jcc.10318
  3. Neese, F.; Wennmohs, F.; Hansen, A.; Becker, U.
     Efficient, approximate and parallel Hartree-Fock and hybrid DFT calculations. A 'chain-of-spheres' algorithm for the Hartree-Fock exchange
     Chem. Phys. 2009 356(1-3), 98-109
     doi.org/10.1016/j.chemphys.2008.10.036
  4. Garcia-Rates, M.; Neese, F.
     Effect of the Solute Cavity on the Solvation Energy and its Derivatives within the Framework of the Gaussian Charge Scheme
     J. Comput. Chem. 2020 41 , 922-939
     doi.org/10.1002/jcc.26139
  5. Helmich-Paris, B.; de Souza, B.; Neese, F.; Izsák, R.
     An improved chain of spheres for exchange algorithm
     J. Chem. Phys. 2021 155(10), 104109
     doi.org/10.1063/5.0058766
  6. Neese, F.
     The SHARK Integral Generation and Digestion System
     J. Comp. Chem. 2022 44(3), 381
     doi.org/10.1002/jcc.26942

List of suggested additional citations. These are papers that are important in the 'surrounding' of 
of this run, or papers that preceded the highly important papers. If you like your results we are grateful for a citation.

  1. Izsak, R.; Neese, F.
     An overlap fitted chain of spheres exchange method
     J. Chem. Phys. 2011 135 , 144105
     doi.org/10.1063/1.3646921
  2. Izsak, R.; Hansen, A.; Neese, F.
     The resolution of identity and chain of spheres approximations for the LPNO-CCSD singles Fock term
     Molec. Phys. 2012 110 , 2413-2417
     doi.org/10.1080/00268976.2012.687466
  3. Neese, F.
     The ORCA program system
     WIRES Comput. Molec. Sci. 2012 2(1), 73-78
     doi.org/10.1002/wcms.81
  4. Izsak, R.; Neese, F.; Klopper, W.
     Robust fitting techniques in the chain of spheres approximation to the Fock exchange: The role of the complementary space
     J. Chem. Phys. 2013 139 , 
     doi.org/10.1063/1.4819264
  5. Neese, F.
     Software update: the ORCA program system, version 4.0
     WIRES Comput. Molec. Sci. 2018 8(1), 1-6
     doi.org/10.1002/wcms.1327
  6. Neese, F.; Wennmohs, F.; Becker, U.; Riplinger, C.
     The ORCA quantum chemistry program package
     J. Chem. Phys. 2020 152(22), 224108
     doi.org/10.1063/5.0004608
  7. Neese, F.
     Software update: The ORCA program system—Version 5.0
     WIRES Comput. Molec. Sci. 2022 12(1), e1606
     doi.org/10.1002/wcms.1606

List of optional additional citations

  1. Neese, F.
     Approximate second-order SCF convergence for spin unrestricted wavefunctions
     Chem. Phys. Lett. 2000 325(1-3), 93-98
     doi.org/10.1016/s0009-2614(00)00662-x

Timings for individual modules:

Sum of individual times          ...     7554.693 sec (= 125.912 min)
Startup calculation              ...       29.822 sec (=   0.497 min)   0.4 %
SCF iterations                   ...     1607.761 sec (=  26.796 min)  21.3 %
Property integrals               ...        1.105 sec (=   0.018 min)   0.0 %
Property calculations            ...        0.490 sec (=   0.008 min)   0.0 %
CIS module                       ...     5915.515 sec (=  98.592 min)  78.3 %
                             ****ORCA TERMINATED NORMALLY****
TOTAL RUN TIME: 0 days 2 hours 5 minutes 55 seconds 40 msec
