
                                 *****************
                                 * O   R   C   A *
                                 *****************

                                            #,                                       
                                            ###                                      
                                            ####                                     
                                            #####                                    
                                            ######                                   
                                           ########,                                 
                                     ,,################,,,,,                         
                               ,,#################################,,                 
                          ,,##########################################,,             
                       ,#########################################, ''#####,          
                    ,#############################################,,   '####,        
                  ,##################################################,,,,####,       
                ,###########''''           ''''###############################       
              ,#####''   ,,,,##########,,,,          '''####'''          '####       
            ,##' ,,,,###########################,,,                        '##       
           ' ,,###''''                  '''############,,,                           
         ,,##''                                '''############,,,,        ,,,,,,###''
      ,#''                                            '''#######################'''  
     '                                                          ''''####''''         
             ,#######,   #######,   ,#######,      ##                                
            ,#'     '#,  ##    ##  ,#'     '#,    #''#        ,####,    ,#,          
            ##       ##  ##   ,#'  ##            #'  '#       #'       ,# #          
            ##       ##  #######   ##           ,######,      #####,      #          
            '#,     ,#'  ##    ##  '#,     ,#' ,#      #,     #,   #      #          
             '#######'   ##     ##  '#######'  #'      '#     '####' #    #          



                #########################################################
                #                        -***-                          #
                #          Department of theory and spectroscopy        #
                #                                                       #
                #                      Frank Neese                      #
                #                                                       #
                #     Directorship, Architecture, Infrastructure        #
                #                    SHARK, DRIVERS                     #
                #        Core code/Algorithms in most modules           #
                #                                                       #
                #        Max Planck Institute fuer Kohlenforschung      #
                #                Kaiser Wilhelm Platz 1                 #
                #                 D-45470 Muelheim/Ruhr                 #
                #                      Germany                          #
                #                                                       #
                #                  All rights reserved                  #
                #                        -***-                          #
                #########################################################


                         Program Version 6.1.1  -  RELEASE   -
                                (GIT: $487d211c$)
                          ($2025-11-21 10:33:24 +0100$)


 With contributions from (in alphabetic order):
[Max-Planck-Institut fuer Kohlenforschung]                               
  Daniel Aravena         : Magnetic Suceptibility                        
  Michael Atanasov       : Ab Initio Ligand Field Theory (pilot matlab implementation)
  Alexander A. Auer      : GIAO ZORA, VPT2 properties, NMR spectrum      
  Ute Becker             : All parallelization in ORCA, NUMFREQ, NUMCALC 
  Giovanni Bistoni       : ED, misc. LED, open-shell LED, HFLD           
  Dmytro Bykov           : pre 5.0 version of the SCF Hessian            
  Marcos Casanova-Páez   : Triplet and SCS-CIS(D). UHF-(DLPNO)-IP/EA/STEOM-CCSD. UHF-CVS-IP/STEOM-CCSD   
  Vijay G. Chilkuri      : MRCI spin determinant printing, contributions to CSF-ICE 
  Pauline Colinet        : FMM embedding                                 
  Dipayan Datta          : RHF DLPNO-CCSD density                        
  Achintya Kumar Dutta   : EOM-CC, STEOM-CC                              
  Nicolas Foglia         : Exact transition moments, OPA infrastructure, MCD improvements    
  Dmitry Ganyushin       : Spin-Orbit,Spin-Spin,Magnetic field MRCI      
  Miquel Garcia-Rates    : C-PCM and meta-GGA Hessian, CCSD/C-PCM, Gaussian charge scheme 
  Tiago L. C. Gouveia    : GS-ROHF, GS-ROCIS                             
  Yang Guo               : DLPNO-NEVPT2, F12-NEVPT2, CIM, IAO-localization        
  Andreas Hansen         : Spin unrestricted coupled pair/coupled cluster methods 
  Ingolf Harden          : AUTO-CI MPn and infrastructure                
  Benjamin Helmich-Paris : MC-RPA, TRAH-(SCF,CASSCF), AVAS, COSX integrals, SCF dyn. polar., MC-PDFT, srDFT 
  Lee Huntington         : MR-EOM, pCC                                   
  Robert Izsak           : Overlap fitted RIJCOSX, COSX-SCS-MP3, EOM     
  Riya Kayal             : Wick's Theorem for AUTO-CI, AUTO-CI UHF-CCSDT 
  Emily Kempfer          : AUTO-CI RHF CISDT and CCSDT, approximate NEVPT4
  Christian Kollmar      : KDIIS, OOCD, Brueckner-CCSD(T), CCSD density, CASPT2, CASPT2-K, improved NEVPT2 
  Axel Koslowski         : Symmetry handling                             
  Simone Kossmann        : meta-GGA functionals, TD-DFT gradient, OOMP2, (MP2 Hessian; deprecated post 5.0) 
  Lucas Lang             : DCDCAS, Hyperfine gauge corrections, ICE-SOC+SSC
  Marvin Lechner         : AUTO-CI (C++ implementation), FIC-MRCC        
  Spencer Leger          : CASSCF response                               
  Dagmar Lenk            : GEPOL surface, SMD, ORCA-2-JSON               
  Dimitrios Liakos       : Extrapolation schemes; Compound Job, Property file
  Dimitrios Manganas     : Further ROCIS development; embedding schemes. LFT, Crystal Embedding 
  Dimitrios Pantazis     : SARC Basis sets                               
  Anastasios Papadopoulos: AUTO-CI, single reference methods and gradients 
  Taras Petrenko         : pre 6.0 DFT Hessian and TD-DFT gradient,  ECA, NRVS 
  Petra Pikulova         : Analytic Raman intensities                    
  Peter Pinski           : DLPNO-MP2, DLPNO-MP2 Gradient                 
  Shashank Vittal Rao    : ES-AILFT, MagRelax                            
  Christoph Reimann      : Effective Core Potentials                     
  Marius Retegan         : Local ZFS, SOC                                
  Christoph Riplinger    : Optimizer, TS searches, QM/MM, DLPNO-CCSD(T), (RO)-DLPNO pert. Triples 
  Michael Roemelt        : Original ROCIS implementation, recursive CI coupling coefficients
  Masaaki Saitow         : Open-shell DLPNO-CCSD energy and density      
  Barbara Sandhoefer     : DKH picture change effects                    
  Yorick L. A. Schmerwitz: GMF and freeze-and-release deltaSCF, NEB S-IDPP initial path                    
  Kantharuban Sivalingam : CASSCF convergence/infrastructure, NEVPT2, NEVPT3, NEVPT4(SD), FIC-MRCI and CEPA variants
  Bernardo de Souza      : ESD, SOC TD-DFT                               
  Georgi L. Stoychev     : AutoAux, RI-MP2 NMR, DLPNO-MP2 response, X2C  
  Van Anh Tran           : RI-MP2 g-tensors                              
  Willem Van den Heuvel  : Paramagnetic NMR                              
  Zikuan Wang            : NOTCH, Electric field optimization            
  Frank Wennmohs         : Technical directorship and infrastructure     
  Hang Xu                : AUTO-CI-Response properties                   
                                                                         
[FACCTs GmbH]                                                            
  Markus Bursch, Nicolas Foglia, Miquel Garcia-Rates, Ingolf Harden, Hagen Neugebauer, Anastasios Papadopoulos, 
  Christoph Riplinger, Bernardo de Souza, Georgi L. Stoychev                                                    
                                                                 
  APM, various basis sets, CI-OPT, improved COSX, DLPNO-Multilevel,           
  DOCKER, DRACO, updates on ESD, Fragmentator, GOAT, IRC, LR-CPCM, L-BFGS, MBIS, meta-GGA TD-DFT gradient, ML-optimized integration grids, 
  MM, NACMEs, nearIR, NEB, NEB-TS, NL-DFT gradient (VV10), 2- and 3-layer-ONIOM, interface openCOSMO-RS, QMMM,   
  Crystal-QMMM, RESP, rigid body optimization, SF, symmetry and pop. for TD-DFT, various functionals, SOLVATOR                                   
                                                                         
[Other institutions]                                                     
  V. Asgeirsson          : NEB                                           
  Christoph Bannwarth    : sTDA-DFT, sTD-DFT, PBEh-3c, B97-3c, D3        
  Giovanni Bistoni       : ETS/NOCV, ADLD/ADEX, COVALED                  
  Martin Brehm           : Molecular dynamics                            
  Ronald Cardenas        : ETS/NOCV                                      
  Martina Colucci        : COVALED                                       
  Sebastian Ehlert       : rSCAN, r2SCAN, r2SCAN-3c, D4, dhf basis sets  
  Marvin Friede          : D4 for Fr, Ra, Ac-Lr                          
  Lars Goerigk           : TD-DFT with DH, B97 family of functionals     
  Stefan Grimme          : VdW corrections, initial TS optimization, DFT functionals, gCP, sTDA/sTD-DF 
  Waldemar Hujo          : DFT-NL                                        
  H. Jonsson             : NEB                                           
  Holger Kruse           : gCP                                           
  Marcel Mueller         : wB97X-3c, vDZP basis set                      
  Hagen Neugebauer       : wr2SCAN, Native XTB                           
  Gianluca Regni         : ADLD/ADEX                                     
  Tobias Risthaus        : pre 6.0 range-separated hybrid DFT and stability analysis
  Lukas Wittmann         : regularized MP2, r2SCAN double-hybrids, wr2SCAN        
                                                                         
We gratefully acknowledge several colleagues who have allowed us to      
interface, adapt or use parts of their codes:                            
  Ed Valeev, F. Pavosevic, A. Kumar             : LibInt (2-el integral package), F12 methods 
  Garnet Chan, S. Sharma, J. Yang, R. Olivares  : DMRG                   
  Ulf Ekstrom                                   : XCFun DFT Library      
  Mihaly Kallay                                 : mrcc  (arbitrary order and MRCC methods)
  Frank Weinhold                                : gennbo (NPA and NBO analysis)           
  Simon Mueller                                 : openCOSMO-RS                            
  Christopher J. Cramer and Donald G. Truhlar   : smd solvation model                     
  S Lehtola, MJT Oliveira, MAL Marques          : LibXC Library                           
  Liviu Ungur et al                             : ANISO software                          


 Your calculation uses the libint2 library for the computation of 2-el integrals
 For citations please refer to: http://libint.valeyev.net

 Your ORCA version has been built with support for libXC version: 7.0.0
 For citations please refer to: https://libxc.gitlab.io

 This ORCA versions uses:
   CBLAS   interface :  Fast vector & matrix operations
   LAPACKE interface :  Fast linear algebra routines
   SCALAPACK package :  Parallel linear algebra routines
   Shared memory     :  Shared parallel matrices
   BLAS/LAPACK       :  OpenBLAS 0.3.29  USE64BITINT DYNAMIC_ARCH NO_AFFINITY Haswell SINGLE_THREADED
        Core in use  :  Haswell
   Copyright (c) 2011-2014, The OpenBLAS Project


  ***********************************
  * Starting time: Sun Jul  5 18:49:00 2026
  * Host name:     steezy
  * Process ID:    1285238
  * Working dir.:  /home/jannes/chlorophyll-ladder/007-mg-core-ladder/mgbacteriochlorin/02_tddft/pbe0
  ***********************************

NOTE: MaxCore=3000 MB was set to SCF,MP2,MDCI,CIPSI,MRCI,RASCI and CIS
      => If you want to overwrite this, your respective input block should be placed after the MaxCore statement


***************************************
The coordinates will be read from file: /home/jannes/chlorophyll-ladder/007-mg-core-ladder/mgbacteriochlorin/01_opt/mgbacteriochlorin_opt_b3lypd4_tzvp.xyz
***************************************


================================================================================

----- Orbital basis set information -----
Your calculation utilizes the basis: def2-TZVP
   F. Weigend and R. Ahlrichs, Phys. Chem. Chem. Phys. 7, 3297 (2005).

----- AuxJ basis set information -----
Your calculation utilizes the auxiliary basis: def2/J
   H-Rn: F. Weigend, Phys. Chem. Chem. Phys. 8, 1057 (2006).
   Fr-Lr: K. Eichkorn, F. Weigend, O. Treutler, R. Ahlrichs; Theor. Chem. Acc. 97, 119 (1997).

================================================================================
                                        WARNINGS
                       Please study these warnings very carefully!
================================================================================


WARNING: CIS/ROCIS methods need fully converged wavefunctions
  ===> : Setting SCFConvForced true
         You can overwrite this default with %scf ConvForced false 


================================================================================
                                       INPUT FILE
================================================================================
NAME = tddft.inp
|  1> %pal nprocs 4 end
|  2> %maxcore 3000
|  3> ! PBE0 def2-TZVP def2/J RIJCOSX DefGrid3 TightSCF
|  4> %tddft
|  5>   nroots 30
|  6>   triplets false
|  7> end
|  8> * xyzfile 0 1 /home/jannes/chlorophyll-ladder/007-mg-core-ladder/mgbacteriochlorin/01_opt/mgbacteriochlorin_opt_b3lypd4_tzvp.xyz
|  9> 
| 10>                          ****END OF INPUT****
================================================================================

                       ****************************
                       * Single Point Calculation *
                       ****************************

---------------------------------
CARTESIAN COORDINATES (ANGSTROEM)
---------------------------------
  N     -2.124578   -0.012303    0.019619
  N      2.120702   -0.008182    0.053311
  N      0.000054   -2.042965    0.036072
  N     -0.003922    2.022643    0.036768
  C     -4.365647   -0.772052   -0.118068
  C      4.363206   -0.763605    0.191137
  C     -4.368868    0.743331    0.123418
  C      4.363545    0.751732   -0.050582
  C     -2.893435   -1.127457   -0.033347
  C      2.891729   -1.121890    0.105994
  C     -2.896171    1.101445    0.061023
  C      2.890180    1.107061    0.012189
  C     -1.099225   -2.861182    0.000405
  C      1.100883   -2.859069    0.071901
  C     -1.105169    2.838701    0.055116
  C      1.095772    2.840793    0.018125
  C     -2.428367   -2.424151   -0.040149
  C      2.429194   -2.419482    0.112495
  C     -2.433870    2.399066    0.075036
  C      2.425350    2.403775   -0.001591
  C     -0.680956   -4.229545    0.012980
  C      0.685237   -4.228237    0.059463
  C     -0.689363    4.207941    0.048969
  C      0.677354    4.209237    0.023929
  H     -4.752237   -1.026638   -1.108895
  H     -4.959962   -1.326894    0.608414
  H      4.749790   -1.017167    1.182234
  H      4.958957   -1.317434   -0.534930
  H     -4.953125    1.297020   -0.612043
  H     -4.770793    0.997360    1.108263
  H      4.946888    1.306572    0.684739
  H      4.764732    1.006428   -1.035547
  H     -3.179766   -3.203559   -0.079566
  H      3.182074   -3.197459    0.151893
  H     -3.187309    3.176996    0.103002
  H      3.177260    3.183189   -0.029363
  H     -1.343528   -5.080762   -0.009530
  H      1.349426   -5.078189    0.082157
  H     -1.354064    5.057708    0.060979
  H      1.340439    5.060262    0.011412
  Mg    -0.001641   -0.010087    0.036418

----------------------------
CARTESIAN COORDINATES (A.U.)
----------------------------
  NO LB      ZA    FRAG     MASS         X           Y           Z
   0 N     7.0000    0    14.007   -4.014871   -0.023249    0.037074
   1 N     7.0000    0    14.007    4.007547   -0.015462    0.100743
   2 N     7.0000    0    14.007    0.000102   -3.860643    0.068165
   3 N     7.0000    0    14.007   -0.007411    3.822241    0.069481
   4 C     6.0000    0    12.011   -8.249878   -1.458967   -0.223116
   5 C     6.0000    0    12.011    8.245265   -1.443005    0.361196
   6 C     6.0000    0    12.011   -8.255964    1.404693    0.233226
   7 C     6.0000    0    12.011    8.245904    1.420568   -0.095586
   8 C     6.0000    0    12.011   -5.467801   -2.130585   -0.063016
   9 C     6.0000    0    12.011    5.464575   -2.120065    0.200300
  10 C     6.0000    0    12.011   -5.472971    2.081430    0.115316
  11 C     6.0000    0    12.011    5.461648    2.092042    0.023034
  12 C     6.0000    0    12.011   -2.077234   -5.406851    0.000765
  13 C     6.0000    0    12.011    2.080367   -5.402857    0.135874
  14 C     6.0000    0    12.011   -2.088466    5.364367    0.104155
  15 C     6.0000    0    12.011    2.070710    5.368321    0.034251
  16 C     6.0000    0    12.011   -4.588949   -4.580981   -0.075870
  17 C     6.0000    0    12.011    4.590511   -4.572158    0.212586
  18 C     6.0000    0    12.011   -4.599348    4.533577    0.141797
  19 C     6.0000    0    12.011    4.583247    4.542477   -0.003006
  20 C     6.0000    0    12.011   -1.286820   -7.992681    0.024528
  21 C     6.0000    0    12.011    1.294910   -7.990210    0.112369
  22 C     6.0000    0    12.011   -1.302708    7.951855    0.092538
  23 C     6.0000    0    12.011    1.280014    7.954306    0.045220
  24 H     1.0000    0     1.008   -8.980427   -1.940064   -2.095508
  25 H     1.0000    0     1.008   -9.372970   -2.507465    1.149735
  26 H     1.0000    0     1.008    8.975803   -1.922168    2.234098
  27 H     1.0000    0     1.008    9.371070   -2.489590   -1.010871
  28 H     1.0000    0     1.008   -9.360049    2.451013   -1.156593
  29 H     1.0000    0     1.008   -9.015493    1.884737    2.094314
  30 H     1.0000    0     1.008    9.348264    2.469063    1.293968
  31 H     1.0000    0     1.008    9.004039    1.901874   -1.956899
  32 H     1.0000    0     1.008   -6.008887   -6.053850   -0.150357
  33 H     1.0000    0     1.008    6.013249   -6.042321    0.287037
  34 H     1.0000    0     1.008   -6.023141    6.003652    0.194646
  35 H     1.0000    0     1.008    6.004152    6.015356   -0.055489
  36 H     1.0000    0     1.008   -2.538900   -9.601249   -0.018009
  37 H     1.0000    0     1.008    2.550046   -9.596387    0.155255
  38 H     1.0000    0     1.008   -2.558811    9.557682    0.115234
  39 H     1.0000    0     1.008    2.533064    9.562509    0.021566
  40 Mg   12.0000    0    24.305   -0.003102   -0.019062    0.068819

--------------------------------
INTERNAL COORDINATES (ANGSTROEM)
--------------------------------
 N      0   0   0     0.000000000000     0.00000000     0.00000000
 N      1   0   0     4.245416085717     0.00000000     0.00000000
 N      2   1   0     2.939011375942    43.75967239     0.00000000
 N      1   2   3     2.939129070827    43.76187171   180.00255177
 C      1   2   3     2.370352009699   161.12036003   351.01820559
 C      2   1   3     2.370334321602   161.11898876   350.98604815
 C      5   1   2     1.534507198399    71.11414070   179.93485080
 C      6   2   1     1.534495241103    71.11492103   179.93600990
 C      1   2   3     1.355550048196   124.63056083   357.60358136
 C      2   1   3     1.355582128298   124.62977820   357.59599889
 C      1   2   3     1.355546123926   124.62160127   177.56972785
 C      2   1   3     1.355563808831   124.62364954   177.56200688
 C      3   2   1     1.370826670960   172.75333140     8.90847460
 C      3   2   1     1.370815363532    80.36235659   181.15564598
 C      4   1   2     1.370777821536    80.36358993   181.14305473
 C      4   1   2     1.370782906164   172.74430185     9.13892315
 C      9   1   2     1.377588111167   125.66613610     2.25390691
 C     10   2   1     1.377579558700   125.66739448     2.25241290
 C     11   1   2     1.377584022390   125.67739340     2.30114869
 C     12   2   1     1.377579356145   125.67503938     2.29624379
 C     13   3  14     1.430916519652   109.64262364   359.95276415
 C     21  13   3     1.366983719650   106.94919461     0.12079397
 C     15   4   1     1.430996176158   109.64179711   181.00446043
 C     23  15   4     1.366947587917   106.94825517     0.12005675
 H      5   1   2     1.093619998274   117.48119229   285.29610054
 H      5   1   2     1.090336727187   129.77292185    74.83365878
 H      6   2   1     1.093624260422   117.45243435   285.29735237
 H      6   2   1     1.090329122694   129.79853465    74.83293182
 H      7   5   1     1.090334418898   113.35711182   126.06534071
 H      7   5   1     1.093615512790   111.83148131   247.14860792
 H      8   6   2     1.090336113225   113.35342562   126.07482105
 H      8   6   2     1.093607292633   111.83547187   247.16406460
 H     17   9   1     1.083342905325   116.30988331   179.63283291
 H     18  10   2     1.083341733356   116.31217148   179.64366974
 H     19  11   1     1.083340715870   116.31275699   179.62575756
 H     20  12   2     1.083340310464   116.31350810   179.62687671
 H     21  13   3     1.078925603982   125.08340360   180.05189031
 H     22  21  13     1.078925857550   127.96702129   179.92425103
 H     23  15   4     1.078923414896   125.06844783   180.04988392
 H     24  23  15     1.078926070118   127.98362874   179.91361688
 Mg     4   1   2     2.032731255388    46.24671301     0.00000000

---------------------------
INTERNAL COORDINATES (A.U.)
---------------------------
 N      0   0   0     0.000000000000     0.00000000     0.00000000
 N      1   0   0     8.022673726548     0.00000000     0.00000000
 N      2   1   0     5.553926605009    43.75967239     0.00000000
 N      1   2   3     5.554149016110    43.76187171   180.00255177
 C      1   2   3     4.479316139321   161.12036003   351.01820559
 C      2   1   3     4.479282713662   161.11898876   350.98604815
 C      5   1   2     2.899798355505    71.11414070   179.93485080
 C      6   2   1     2.899775759491    71.11492103   179.93600990
 C      1   2   3     2.561618351915   124.63056083   357.60358136
 C      2   1   3     2.561678974521   124.62977820   357.59599889
 C      1   2   3     2.561610936119   124.62160127   177.56972785
 C      2   1   3     2.561644355746   124.62364954   177.56200688
 C      3   2   1     2.590486985190   172.75333140     8.90847460
 C      3   2   1     2.590465617247    80.36235659   181.15564598
 C      4   1   2     2.590394673157    80.36358993   181.14305473
 C      4   1   2     2.590404281711   172.74430185     9.13892315
 C      9   1   2     2.603264255451   125.66613610     2.25390691
 C     10   2   1     2.603248093630   125.66739448     2.25241290
 C     11   1   2     2.603256528784   125.67739340     2.30114869
 C     12   2   1     2.603247710858   125.67503938     2.29624379
 C     13   3  14     2.704040342647   109.64262364   359.95276415
 C     21  13   3     2.583224859667   106.94919461     0.12079397
 C     15   4   1     2.704190871627   109.64179711   181.00446043
 C     23  15   4     2.583156580588   106.94825517     0.12005675
 H      5   1   2     2.066642291317   117.48119229   285.29610054
 H      5   1   2     2.060437808139   129.77292185    74.83365878
 H      6   2   1     2.066650345610   117.45243435   285.29735237
 H      6   2   1     2.060423437730   129.79853465    74.83293182
 H      7   5   1     2.060433446106   113.35711182   126.06534071
 H      7   5   1     2.066633814981   111.83148131   247.14860792
 H      8   6   2     2.060436647919   113.35342562   126.07482105
 H      8   6   2     2.066618281135   111.83547187   247.16406460
 H     17   9   1     2.047221400191   116.30988331   179.63283291
 H     18  10   2     2.047219185490   116.31217148   179.64366974
 H     19  11   1     2.047217262721   116.31275699   179.62575756
 H     20  12   2     2.047216496614   116.31350810   179.62687671
 H     21  13   3     2.038873910402   125.08340360   180.05189031
 H     22  21  13     2.038874389575   127.96702129   179.92425103
 H     23  15   4     2.038869773628   125.06844783   180.04988392
 H     24  23  15     2.038874791271   127.98362874   179.91361688
 Mg     4   1   2     3.841305376545    46.24671301     0.00000000

---------------------
BASIS SET INFORMATION
---------------------
There are 4 groups of distinct atoms

 Group   1 Type N   : 11s6p2d1f contracted to 5s3p2d1f pattern {62111/411/11/1}
 Group   2 Type C   : 11s6p2d1f contracted to 5s3p2d1f pattern {62111/411/11/1}
 Group   3 Type H   : 5s1p contracted to 3s1p pattern {311/1}
 Group   4 Type Mg  : 14s8p3d contracted to 5s4p3d pattern {73211/5111/111}

Atom   0N    basis set group =>   1
Atom   1N    basis set group =>   1
Atom   2N    basis set group =>   1
Atom   3N    basis set group =>   1
Atom   4C    basis set group =>   2
Atom   5C    basis set group =>   2
Atom   6C    basis set group =>   2
Atom   7C    basis set group =>   2
Atom   8C    basis set group =>   2
Atom   9C    basis set group =>   2
Atom  10C    basis set group =>   2
Atom  11C    basis set group =>   2
Atom  12C    basis set group =>   2
Atom  13C    basis set group =>   2
Atom  14C    basis set group =>   2
Atom  15C    basis set group =>   2
Atom  16C    basis set group =>   2
Atom  17C    basis set group =>   2
Atom  18C    basis set group =>   2
Atom  19C    basis set group =>   2
Atom  20C    basis set group =>   2
Atom  21C    basis set group =>   2
Atom  22C    basis set group =>   2
Atom  23C    basis set group =>   2
Atom  24H    basis set group =>   3
Atom  25H    basis set group =>   3
Atom  26H    basis set group =>   3
Atom  27H    basis set group =>   3
Atom  28H    basis set group =>   3
Atom  29H    basis set group =>   3
Atom  30H    basis set group =>   3
Atom  31H    basis set group =>   3
Atom  32H    basis set group =>   3
Atom  33H    basis set group =>   3
Atom  34H    basis set group =>   3
Atom  35H    basis set group =>   3
Atom  36H    basis set group =>   3
Atom  37H    basis set group =>   3
Atom  38H    basis set group =>   3
Atom  39H    basis set group =>   3
Atom  40Mg   basis set group =>   4
---------------------------------
AUXILIARY/J BASIS SET INFORMATION
---------------------------------
There are 4 groups of distinct atoms

 Group   1 Type N   : 12s5p4d2f1g contracted to 6s4p3d1f1g pattern {711111/2111/211/2/1}
 Group   2 Type C   : 12s5p4d2f1g contracted to 6s4p3d1f1g pattern {711111/2111/211/2/1}
 Group   3 Type H   : 5s2p1d contracted to 3s1p1d pattern {311/2/1}
 Group   4 Type Mg  : 14s5p5d2f1g contracted to 8s4p4d1f1g pattern {71111111/2111/2111/2/1}

Atom   0N    basis set group =>   1
Atom   1N    basis set group =>   1
Atom   2N    basis set group =>   1
Atom   3N    basis set group =>   1
Atom   4C    basis set group =>   2
Atom   5C    basis set group =>   2
Atom   6C    basis set group =>   2
Atom   7C    basis set group =>   2
Atom   8C    basis set group =>   2
Atom   9C    basis set group =>   2
Atom  10C    basis set group =>   2
Atom  11C    basis set group =>   2
Atom  12C    basis set group =>   2
Atom  13C    basis set group =>   2
Atom  14C    basis set group =>   2
Atom  15C    basis set group =>   2
Atom  16C    basis set group =>   2
Atom  17C    basis set group =>   2
Atom  18C    basis set group =>   2
Atom  19C    basis set group =>   2
Atom  20C    basis set group =>   2
Atom  21C    basis set group =>   2
Atom  22C    basis set group =>   2
Atom  23C    basis set group =>   2
Atom  24H    basis set group =>   3
Atom  25H    basis set group =>   3
Atom  26H    basis set group =>   3
Atom  27H    basis set group =>   3
Atom  28H    basis set group =>   3
Atom  29H    basis set group =>   3
Atom  30H    basis set group =>   3
Atom  31H    basis set group =>   3
Atom  32H    basis set group =>   3
Atom  33H    basis set group =>   3
Atom  34H    basis set group =>   3
Atom  35H    basis set group =>   3
Atom  36H    basis set group =>   3
Atom  37H    basis set group =>   3
Atom  38H    basis set group =>   3
Atom  39H    basis set group =>   3
Atom  40Mg   basis set group =>   4


           ************************************************************
           *        Program running with 4 parallel MPI-processes     *
           *              working on a common directory               *
           ************************************************************
------------------------------------------------------------------------------
                             ORCA STARTUP CALCULATIONS
                           -- RI-GTO INTEGRALS CHOSEN --
------------------------------------------------------------------------------
------------------------------------------------------------------------------
                   ___                                                        
                  /   \      - P O W E R E D   B Y -                         
                 /     \                                                     
                 |  |  |   _    _      __       _____    __    __             
                 |  |  |  | |  | |    /  \     |  _  \  |  |  /  |          
                  \  \/   | |  | |   /    \    | | | |  |  | /  /          
                 / \  \   | |__| |  /  /\  \   | |_| |  |  |/  /          
                |  |  |   |  __  | /  /__\  \  |    /   |      \           
                |  |  |   | |  | | |   __   |  |    \   |  |\   \          
                \     /   | |  | | |  |  |  |  | |\  \  |  | \   \       
                 \___/    |_|  |_| |__|  |__|  |_| \__\ |__|  \__/        
                                                                              
                      - O R C A' S   B I G   F R I E N D -                    
                                      &                                       
                       - I N T E G R A L  F E E D E R -                       
                                                                              
 v1 FN, 2020, v2 2021, v3 2022-2024                                           
------------------------------------------------------------------------------


----------------------
SHARK INTEGRAL PACKAGE
----------------------

Number of atoms                             ...     41
Number of basis functions                   ...    872
Number of shells                            ...    340
Maximum angular momentum                    ...      3
Integral batch strategy                     ... SHARK/LIBINT Hybrid
RI-J (if used) integral strategy            ... SPLIT-RIJ (Revised 2003 algorithm where possible)
Printlevel                                  ...      1
Contraction scheme used                     ... SEGMENTED contraction
Prescreening option                         ... SCHWARTZ
   Thresh                                   ... 2.500e-11
   Tcut                                     ... 2.500e-12
   Tpresel                                  ... 2.500e-12 
Coulomb Range Separation                    ... NOT USED
Exchange Range Separation                   ... NOT USED
Multipole approximations                    ... NOT USED
Finite Nucleus Model                        ... NOT USED
CABS basis                                  ... NOT available
Auxiliary Coulomb fitting basis             ... AVAILABLE
   # of basis functions in Aux-J            ...   1408
   # of shells in Aux-J                     ...    458
   Maximum angular momentum in Aux-J        ...      4
Auxiliary J/K fitting basis                 ... NOT available
Auxiliary Correlation fitting basis         ... NOT available
Auxiliary 'external' fitting basis          ... NOT available

Checking pre-screening integrals            ... done (  0.0 sec) Dimension = 340
   => SHARK Basis and OBASIS are compatible. Storing Pre-screening
Shell pair information
Shell pair cut-off parameter TPreSel        ...   2.5e-12
Total number of shell pairs                 ...     57970
Shell pairs after pre-screening             ...     40545
Total number of primitive shell pairs       ...    181512
Primitive shell pairs kept                  ...     83416
          la=0 lb=0:   9964 shell pairs
          la=1 lb=0:  11660 shell pairs
          la=1 lb=1:   3400 shell pairs
          la=2 lb=0:   5941 shell pairs
          la=2 lb=1:   3556 shell pairs
          la=2 lb=2:    970 shell pairs
          la=3 lb=0:   2548 shell pairs
          la=3 lb=1:   1556 shell pairs
          la=3 lb=2:    780 shell pairs
          la=3 lb=3:    170 shell pairs

Checking whether 4 symmetric matrices of dimension 872 fit in memory
:Max Core in MB      =   3000.00
 MB in use           =     52.70
 MB left             =   2947.30
 MB needed           =     11.62
 Data fit in memory  = YES
Calculating RI/J V-Matrix + Cholesky decomp.... done (  1.0 sec)
Calculating Nuclear repulsion               ... done (  0.0 sec) ENN=   2190.086224452672 Eh

Diagonalization of the overlap matrix:
Smallest eigenvalue                        ... 1.019e-05
Time for diagonalization                   ...    0.664 sec
Threshold for overlap eigenvalues          ... 1.000e-07
Number of eigenvalues below threshold      ... 0
Time for construction of square roots      ...    0.482 sec
Total time needed                          ...    1.182 sec

-------------------
DFT GRID GENERATION
-------------------

General Integration Accuracy     IntAcc      ... 4.959
Radial Grid Type                 RadialGrid  ... OptM3 with GC (2021)
Angular Grid (max. ang.)         AngularGrid ... 6 (Lebedev-590)
Angular grid pruning method      GridPruning ... 4 (adaptive)
Weight generation scheme         WeightScheme... mBecke (2022)
Basis function cutoff            BFCut       ... 1.0000e-11
Integration weight cutoff        WCut        ... 1.0000e-14
Partially contracted basis set               ... off
Rotationally invariant grid construction     ... off
Angular grids for H and He will be reduced by one unit

Total number of grid points                  ...   489901
Total number of batches                      ...     7676
Average number of points per batch           ...       63
Average number of grid points per atom       ...    11949

--------------------
COSX GRID GENERATION
--------------------

GRIDX 1
-------
General Integration Accuracy     IntAcc      ... 4.020
Radial Grid Type                 RadialGrid  ... OptM3 with GC (2021)
Angular Grid (max. ang.)         AngularGrid ... 2 (Lebedev-110)
Angular grid pruning method      GridPruning ... 4 (adaptive)
Weight generation scheme         WeightScheme... mBecke (2022)
Basis function cutoff            BFCut       ... 1.0000e-11
Integration weight cutoff        WCut        ... 1.0000e-14
Partially contracted basis set               ... on
Rotationally invariant grid construction     ... off
Angular grids for H and He will be reduced by one unit

Total number of grid points                  ...    55413
Total number of batches                      ...      455
Average number of points per batch           ...      121
Average number of grid points per atom       ...     1352
UseSFitting                                  ... on

GRIDX 2
-------
General Integration Accuracy     IntAcc      ... 4.338
Radial Grid Type                 RadialGrid  ... OptM3 with GC (2021)
Angular Grid (max. ang.)         AngularGrid ... 3 (Lebedev-194)
Angular grid pruning method      GridPruning ... 4 (adaptive)
Weight generation scheme         WeightScheme... mBecke (2022)
Basis function cutoff            BFCut       ... 1.0000e-11
Integration weight cutoff        WCut        ... 1.0000e-14
Partially contracted basis set               ... on
Rotationally invariant grid construction     ... off
Angular grids for H and He will be reduced by one unit

Total number of grid points                  ...   121895
Total number of batches                      ...      972
Average number of points per batch           ...      125
Average number of grid points per atom       ...     2973
UseSFitting                                  ... on

GRIDX 3
-------
General Integration Accuracy     IntAcc      ... 4.871
Radial Grid Type                 RadialGrid  ... OptM3 with GC (2021)
Angular Grid (max. ang.)         AngularGrid ... 4 (Lebedev-302)
Angular grid pruning method      GridPruning ... 4 (adaptive)
Weight generation scheme         WeightScheme... mBecke (2022)
Basis function cutoff            BFCut       ... 1.0000e-11
Integration weight cutoff        WCut        ... 1.0000e-14
Partially contracted basis set               ... on
Rotationally invariant grid construction     ... off
Angular grids for H and He will be reduced by one unit

Total number of grid points                  ...   225543
Total number of batches                      ...     1784
Average number of points per batch           ...      126
Average number of grid points per atom       ...     5501
UseSFitting                                  ... on
Grids setup in  25.3 sec
Initializing property integral containers    ... done (  0.0 sec)

SHARK setup successfully completed in  30.6 seconds

Maximum memory used throughout the entire STARTUP-calculation: 159.8 MB


           ************************************************************
           *        Program running with 4 parallel MPI-processes     *
           *              working on a common directory               *
           ************************************************************
-------------------------------------------------------------------------------
                                 ORCA GUESS
                   Start orbitals & Density for SCF / CASSCF
-------------------------------------------------------------------------------

------------
SCF SETTINGS
------------
Hamiltonian:
 Density Functional     Method          .... DFT(GTOs)
 Exchange Functional    Exchange        .... PBE
   PBE kappa parameter   XKappa         ....  0.804000
   PBE mue parameter    XMuePBE         ....  0.219520
 Correlation Functional Correlation     .... PBE
   PBE beta parameter  CBetaPBE         ....  0.066725
 LDA part of GGA corr.  LDAOpt          .... PW91-LDA
 Gradients option       PostSCFGGA      .... off
 Hybrid DFT is turned on
   Fraction HF Exchange ScalHFX         ....  0.250000
   Scaling of DF-GGA-X  ScalDFX         ....  0.750000
   Scaling of DF-GGA-C  ScalDFC         ....  1.000000
   Scaling of DF-LDA-C  ScalLDAC        ....  1.000000
   Perturbative correction              ....  0.000000
   NL short-range parameter             ....  6.900000
 RI-approximation to the Coulomb term is turned on
   Number of AuxJ basis functions       .... 1408
   RIJ-COSX (HFX calculated with COS-X)).... on


General Settings:
 Integral files         IntName         .... tddft
 Hartree-Fock type      HFTyp           .... RHF
 Total Charge           Charge          ....    0
 Multiplicity           Mult            ....    1
 Number of Electrons    NEL             ....  176
 Basis Dimension        Dim             ....  872
 Nuclear Repulsion      ENuc            ....   2190.0862244527 Eh

Convergence Acceleration:
 AO-DIIS                CNVDIIS         .... on
   Start iteration      DIISMaxIt       ....    12
   Startup error        DIISStart       ....  0.200000
   # of expansion vecs  DIISMaxEq       ....     5
   Bias factor          DIISBfac        ....   1.050
   Max. coefficient     DIISMaxC        ....  10.000
 MO-DIIS                CNVKDIIS        .... off
 Trust-Rad. Augm. Hess. CNVTRAH         .... auto
   Auto Start mean grad. ratio tolernc. ....  1.125000
   Auto Start start iteration           ....    50
   Auto Start num. interpolation iter.  ....    10
   Max. Number of Micro iterations      ....    24
   Max. Number of Macro iterations      .... Maxiter - #DIIS iter
   Number of Davidson start vectors     ....     2
   Converg. threshold    (grad. norm)   ....   1.000e-05
   Grad. Scal. Fac. for Micro threshold ....   0.100
   Minimum threshold for Micro iter.    ....   1.000e-02
   NR start threshold (gradient norm)   ....   1.000e-04
   Initial trust radius                 ....   0.400
   Minimum AH scaling param. (alpha)    ....   1.000
   Maximum AH scaling param. (alpha)    .... 1000.000
   Quad. conv. algorithm                .... NR
   White noise on init. David. guess    .... on
   Maximum white noise                  ....   0.010
   Pseudo random numbers                .... off
   Inactive MOs                         .... canonical
   Orbital update algorithm             .... Taylor
   Preconditioner                       .... Diag
   Full preconditioner red. dimension   ....   250
 SOSCF                 CNVSOSCF           .... on
   Start iteration     SOSCFMaxIt         ....   150
   Startup grad/error  SOSCFStart         ....  0.003300
   Hessian update      SOSCFHessUp        .... L-BFGS
   Autom. constraints  SOSCFAutoConstrain .... off
 Level Shifting         CNVShift        .... on
   Level shift para.    LevelShift      ....    0.2500
   Turn off err/grad.   ShiftErr        ....    0.0010
 Zerner damping         CNVZerner       .... off
 Static damping         CNVDamp         .... on
   Fraction old density DampFac         ....    0.7000
   Max. Damping (<1)    DampMax         ....    0.9800
   Min. Damping (>=0)   DampMin         ....    0.0000
   Turn off err/grad.   DampErr         ....    0.1000

SCF Procedure:
 Maximum # iterations   MaxIter         ....   125
 SCF integral mode      SCFMode         .... Direct
   Integral package                     .... SHARK and LIBINT hybrid scheme
 Reset frequency        DirectResetFreq ....    20
 Integral Threshold     Thresh          ....  2.500e-11 Eh
 Primitive CutOff       TCut            ....  2.500e-12 Eh

Convergence Tolerance:
 Convergence Check Mode ConvCheckMode   .... Total+1el-Energy
 Convergence forced     ConvForced      .... 1
 Energy Change          TolE            ....  1.000e-08 Eh
 1-El. energy change                    ....  1.000e-05 Eh
 Orbital Gradient       TolG            ....  1.000e-05
 Orbital Rotation angle TolX            ....  1.000e-05
 DIIS Error             TolErr          ....  5.000e-07

------------------------------
INITIAL GUESS: MODEL POTENTIAL
------------------------------
Loading Hartree-Fock densities                     ... done
Calculating cut-offs                               ... done
Initializing the effective Hamiltonian             ... done
Setting up the integral package (SHARK)            ... done
Starting the Coulomb interaction                   ... done (   2.3 sec)
Making the grid                                    ... done (   0.8 sec)
Mapping shells                                     ... done
Starting the XC term evaluation                    ... done (   1.3 sec)
  promolecular density results
     # of electrons  =    176.013752315
     EX              =   -149.316411799
     EC              =     -5.985031575
     EX+EC           =   -155.301443373
Transforming the Hamiltonian                       ... done (   0.2 sec)
Diagonalizing the Hamiltonian                      ... done (   0.4 sec)
Back transforming the eigenvectors                 ... done (   0.4 sec)
Now organizing SCF variables                       ... done
                      ------------------
                      INITIAL GUESS DONE (   5.9 sec)
                      ------------------
             **** ENERGY FILE WAS UPDATED (tddft.en.tmp) ****
Finished Guess after   9.7 sec
Maximum memory used throughout the entire GUESS-calculation: 88.7 MB


           ************************************************************
           *        Program running with 4 parallel MPI-processes     *
           *              working on a common directory               *
           ************************************************************

-------------------------------------------------------------------------------------------
                                      ORCA LEAN-SCF
                              memory conserving SCF solver
-------------------------------------------------------------------------------------------

----------------------------------------D-I-I-S--------------------------------------------
Iteration    Energy (Eh)           Delta-E    RMSDP     MaxDP     DIISErr   Damp  Time(sec)
-------------------------------------------------------------------------------------------
               ***  Starting incremental Fock matrix formation  ***
    1    -1189.5219551012851298     0.00e+00  1.73e-03  4.25e-02  2.28e-01  0.700 147.8
Warning: op=0 Small HOMO/LUMO gap (   0.087) - skipping pre-diagonalization
         Will do a full diagonalization
    2    -1189.7756910454563695    -2.54e-01  1.35e-03  2.69e-02  1.08e-01  0.700  79.4
                               ***Turning on AO-DIIS***
    3    -1189.8871631478423296    -1.11e-01  6.30e-04  1.36e-02  3.91e-02  0.700  81.0
    4    -1189.9520215188667862    -6.49e-02  1.26e-03  3.37e-02  2.46e-02  0.000  76.4
    5    -1190.0911434566687603    -1.39e-01  2.70e-04  5.93e-03  4.64e-03  0.000  74.5
                              *** Initializing SOSCF ***
---------------------------------------S-O-S-C-F--------------------------------------
Iteration    Energy (Eh)           Delta-E    RMSDP     MaxDP     MaxGrad    Time(sec)
--------------------------------------------------------------------------------------
    6    -1190.0918275944427478    -6.84e-04  1.33e-04  2.84e-03  2.09e-03    65.3
               *** Restarting incremental Fock matrix formation ***
    7    -1190.0918652871828272    -3.77e-05  9.26e-05  2.22e-03  3.03e-04   146.7
    8    -1190.0918680551949365    -2.77e-06  3.44e-05  7.07e-04  3.20e-04    95.3
    9    -1190.0918724689277042    -4.41e-06  2.56e-05  5.34e-04  9.64e-05   108.5
   10    -1190.0918727768930694    -3.08e-07  4.50e-06  9.84e-05  5.69e-05    89.3
   11    -1190.0918729714999245    -1.95e-07  8.53e-06  2.91e-04  2.10e-05    74.0
   12    -1190.0918729763657211    -4.87e-09  2.87e-06  7.49e-05  1.59e-05    78.0
                 **** Energy Check signals convergence ****

               *****************************************************
               *                     SUCCESS                       *
               *           SCF CONVERGED AFTER  12 CYCLES          *
               *****************************************************

Recomputing exchange energy using gridx3       ... done (  211.706 sec)
Old exchange energy                            :    -38.039521101 Eh
New exchange energy                            :    -38.039546248 Eh
Exchange energy change after final integration :     -0.000025146 Eh
Total energy after final integration           :  -1190.091898119 Eh
             **** ENERGY FILE WAS UPDATED (tddft.en.tmp) ****

----------------
TOTAL SCF ENERGY
----------------

Total Energy       :      -1190.09189811863575 Eh          -32384.04692 eV

Components:
Nuclear Repulsion  :       2190.08622445267247 Eh           59595.27593 eV
Electronic Energy  :      -3380.17809742498775 Eh          -91979.32217 eV
One Electron Energy:      -5978.20296737497756 Eh         -162675.17299 eV
Two Electron Energy:       2598.02486994998981 Eh           70695.85082 eV

Virial components:
Potential Energy   :      -2374.66854060044261 Eh          -64618.01611 eV
Kinetic Energy     :       1184.57664248180686 Eh           32233.96919 eV
Virial Ratio       :          2.00465588754584

DFT components:
N(Alpha)           :       87.999996735471 electrons
N(Beta)            :       87.999996735471 electrons
N(Total)           :      175.999993470942 electrons
E(X)               :     -113.815790772570 Eh       
E(C)               :       -5.990883302321 Eh       
E(XC)              :     -119.806674074891 Eh       

---------------
SCF CONVERGENCE
---------------

  Last Energy change         ...    4.8658e-09  Tolerance :   1.0000e-08
  Last MAX-Density change    ...    7.4911e-05  Tolerance :   1.0000e-07
  Last RMS-Density change    ...    2.8719e-06  Tolerance :   5.0000e-09
  Last DIIS Error            ...    2.0946e-03  Tolerance :   5.0000e-07
  Last Orbital Gradient      ...    1.5928e-05  Tolerance :   1.0000e-05
  Last Orbital Rotation      ...    3.3206e-05  Tolerance :   1.0000e-05


----------------
ORBITAL ENERGIES
----------------

  NO   OCC          E(Eh)            E(eV) 
   0   2.0000     -46.876658     -1275.5787 
   1   2.0000     -14.392813      -391.6483 
   2   2.0000     -14.392807      -391.6482 
   3   2.0000     -14.364318      -390.8730 
   4   2.0000     -14.364303      -390.8725 
   5   2.0000     -10.261566      -279.2314 
   6   2.0000     -10.261557      -279.2312 
   7   2.0000     -10.261535      -279.2306 
   8   2.0000     -10.261526      -279.2303 
   9   2.0000     -10.248111      -278.8653 
  10   2.0000     -10.248094      -278.8648 
  11   2.0000     -10.248081      -278.8645 
  12   2.0000     -10.248063      -278.8640 
  13   2.0000     -10.230827      -278.3949 
  14   2.0000     -10.230821      -278.3948 
  15   2.0000     -10.230588      -278.3885 
  16   2.0000     -10.230583      -278.3883 
  17   2.0000     -10.217715      -278.0382 
  18   2.0000     -10.217710      -278.0380 
  19   2.0000     -10.217710      -278.0380 
  20   2.0000     -10.217704      -278.0379 
  21   2.0000     -10.212678      -277.9011 
  22   2.0000     -10.212648      -277.9003 
  23   2.0000     -10.211938      -277.8810 
  24   2.0000     -10.211909      -277.8802 
  25   2.0000      -3.098991       -84.3278 
  26   2.0000      -1.826048       -49.6893 
  27   2.0000      -1.820538       -49.5394 
  28   2.0000      -1.819426       -49.5091 
  29   2.0000      -0.987376       -26.8679 
  30   2.0000      -0.982757       -26.7422 
  31   2.0000      -0.971246       -26.4290 
  32   2.0000      -0.965747       -26.2793 
  33   2.0000      -0.834439       -22.7062 
  34   2.0000      -0.811731       -22.0883 
  35   2.0000      -0.801671       -21.8146 
  36   2.0000      -0.796719       -21.6798 
  37   2.0000      -0.795720       -21.6526 
  38   2.0000      -0.776681       -21.1346 
  39   2.0000      -0.776647       -21.1336 
  40   2.0000      -0.752929       -20.4882 
  41   2.0000      -0.737342       -20.0641 
  42   2.0000      -0.678995       -18.4764 
  43   2.0000      -0.668525       -18.1915 
  44   2.0000      -0.635987       -17.3061 
  45   2.0000      -0.614865       -16.7313 
  46   2.0000      -0.585067       -15.9205 
  47   2.0000      -0.584915       -15.9163 
  48   2.0000      -0.579968       -15.7817 
  49   2.0000      -0.570348       -15.5200 
  50   2.0000      -0.546387       -14.8680 
  51   2.0000      -0.531832       -14.4719 
  52   2.0000      -0.525291       -14.2939 
  53   2.0000      -0.516971       -14.0675 
  54   2.0000      -0.511381       -13.9154 
  55   2.0000      -0.498644       -13.5688 
  56   2.0000      -0.492892       -13.4123 
  57   2.0000      -0.490691       -13.3524 
  58   2.0000      -0.451639       -12.2897 
  59   2.0000      -0.449303       -12.2262 
  60   2.0000      -0.428472       -11.6593 
  61   2.0000      -0.423146       -11.5144 
  62   2.0000      -0.422148       -11.4872 
  63   2.0000      -0.416034       -11.3209 
  64   2.0000      -0.414688       -11.2842 
  65   2.0000      -0.411653       -11.2016 
  66   2.0000      -0.398630       -10.8473 
  67   2.0000      -0.394386       -10.7318 
  68   2.0000      -0.389829       -10.6078 
  69   2.0000      -0.387515       -10.5448 
  70   2.0000      -0.386344       -10.5130 
  71   2.0000      -0.375843       -10.2272 
  72   2.0000      -0.374152       -10.1812 
  73   2.0000      -0.372945       -10.1483 
  74   2.0000      -0.370905       -10.0928 
  75   2.0000      -0.370445       -10.0803 
  76   2.0000      -0.369445       -10.0531 
  77   2.0000      -0.362591        -9.8666 
  78   2.0000      -0.322553        -8.7771 
  79   2.0000      -0.322061        -8.7637 
  80   2.0000      -0.314541        -8.5591 
  81   2.0000      -0.294981        -8.0268 
  82   2.0000      -0.280160        -7.6235 
  83   2.0000      -0.267028        -7.2662 
  84   2.0000      -0.255382        -6.9493 
  85   2.0000      -0.248750        -6.7688 
  86   2.0000      -0.203564        -5.5393 
  87   2.0000      -0.171892        -4.6774 
  88   0.0000      -0.090751        -2.4695 
  89   0.0000      -0.034586        -0.9411 
  90   0.0000       0.013184         0.3588 
  91   0.0000       0.022341         0.6079 
  92   0.0000       0.024812         0.6752 
  93   0.0000       0.040669         1.1067 
  94   0.0000       0.040868         1.1121 
  95   0.0000       0.042104         1.1457 
  96   0.0000       0.057952         1.5770 
  97   0.0000       0.063809         1.7363 
  98   0.0000       0.069977         1.9042 
*Only the first 10 virtual orbitals were printed.

                    ********************************
                    * MULLIKEN POPULATION ANALYSIS *
                    ********************************

-----------------------
MULLIKEN ATOMIC CHARGES
-----------------------
   0 N :   -0.312165
   1 N :   -0.312001
   2 N :   -0.351147
   3 N :   -0.351111
   4 C :   -0.167294
   5 C :   -0.167533
   6 C :   -0.167439
   7 C :   -0.167333
   8 C :    0.208332
   9 C :    0.208576
  10 C :    0.208548
  11 C :    0.208321
  12 C :    0.347924
  13 C :    0.347972
  14 C :    0.348054
  15 C :    0.347931
  16 C :   -0.444418
  17 C :   -0.444514
  18 C :   -0.444597
  19 C :   -0.444388
  20 C :   -0.225898
  21 C :   -0.225822
  22 C :   -0.225872
  23 C :   -0.225822
  24 H :    0.104580
  25 H :    0.119176
  26 H :    0.104567
  27 H :    0.119224
  28 H :    0.119183
  29 H :    0.104598
  30 H :    0.119183
  31 H :    0.104598
  32 H :    0.109281
  33 H :    0.109279
  34 H :    0.109284
  35 H :    0.109290
  36 H :    0.111002
  37 H :    0.111010
  38 H :    0.111020
  39 H :    0.111005
  40 Mg:    0.675416
Sum of atomic charges:    0.0000000

--------------------------------
MULLIKEN REDUCED ORBITAL CHARGES
--------------------------------
  0 N s       :     3.651921  s :     3.651921
      pz      :     1.272726  p :     3.593109
      px      :     1.290392
      py      :     1.029991
      dz2     :     0.004337  d :     0.063498
      dxz     :     0.005784
      dyz     :     0.016788
      dx2y2   :     0.017731
      dxy     :     0.018858
      f0      :     0.000650  f :     0.003636
      f+1     :     0.000250
      f-1     :     0.000391
      f+2     :     0.000098
      f-2     :     0.000582
      f+3     :     0.000632
      f-3     :     0.001034

  1 N s       :     3.651875  s :     3.651875
      pz      :     1.272862  p :     3.592997
      px      :     1.290191
      py      :     1.029943
      dz2     :     0.004336  d :     0.063494
      dxz     :     0.005780
      dyz     :     0.016789
      dx2y2   :     0.017733
      dxy     :     0.018855
      f0      :     0.000650  f :     0.003636
      f+1     :     0.000250
      f-1     :     0.000391
      f+2     :     0.000097
      f-2     :     0.000582
      f+3     :     0.000632
      f-3     :     0.001034

  2 N s       :     3.639924  s :     3.639924
      pz      :     1.386116  p :     3.648298
      px      :     1.026960
      py      :     1.235222
      dz2     :     0.004459  d :     0.059274
      dxz     :     0.014381
      dyz     :     0.005476
      dx2y2   :     0.017284
      dxy     :     0.017674
      f0      :     0.000666  f :     0.003651
      f+1     :     0.000430
      f-1     :     0.000321
      f+2     :     0.000071
      f-2     :     0.000615
      f+3     :     0.000935
      f-3     :     0.000612

  3 N s       :     3.639933  s :     3.639933
      pz      :     1.386425  p :     3.648249
      px      :     1.026626
      py      :     1.235199
      dz2     :     0.004438  d :     0.059278
      dxz     :     0.014400
      dyz     :     0.005466
      dx2y2   :     0.017293
      dxy     :     0.017681
      f0      :     0.000667  f :     0.003651
      f+1     :     0.000429
      f-1     :     0.000321
      f+2     :     0.000070
      f-2     :     0.000615
      f+3     :     0.000936
      f-3     :     0.000612

  4 C s       :     3.118462  s :     3.118462
      pz      :     1.047897  p :     2.958424
      px      :     0.947701
      py      :     0.962827
      dz2     :     0.006863  d :     0.084681
      dxz     :     0.016988
      dyz     :     0.017446
      dx2y2   :     0.017817
      dxy     :     0.025567
      f0      :     0.000724  f :     0.005727
      f+1     :     0.000617
      f-1     :     0.000535
      f+2     :     0.000818
      f-2     :     0.000387
      f+3     :     0.001546
      f-3     :     0.001099

  5 C s       :     3.118778  s :     3.118778
      pz      :     1.047879  p :     2.958343
      px      :     0.947837
      py      :     0.962626
      dz2     :     0.006876  d :     0.084686
      dxz     :     0.016978
      dyz     :     0.017444
      dx2y2   :     0.017815
      dxy     :     0.025573
      f0      :     0.000725  f :     0.005727
      f+1     :     0.000618
      f-1     :     0.000534
      f+2     :     0.000817
      f-2     :     0.000388
      f+3     :     0.001548
      f-3     :     0.001098

  6 C s       :     3.118608  s :     3.118608
      pz      :     1.047631  p :     2.958418
      px      :     0.948126
      py      :     0.962662
      dz2     :     0.006706  d :     0.084686
      dxz     :     0.017150
      dyz     :     0.017485
      dx2y2   :     0.017808
      dxy     :     0.025538
      f0      :     0.000703  f :     0.005727
      f+1     :     0.000632
      f-1     :     0.000543
      f+2     :     0.000821
      f-2     :     0.000383
      f+3     :     0.001550
      f-3     :     0.001094

  7 C s       :     3.118527  s :     3.118527
      pz      :     1.047636  p :     2.958390
      px      :     0.947970
      py      :     0.962785
      dz2     :     0.006715  d :     0.084689
      dxz     :     0.017149
      dyz     :     0.017479
      dx2y2   :     0.017810
      dxy     :     0.025536
      f0      :     0.000704  f :     0.005727
      f+1     :     0.000631
      f-1     :     0.000544
      f+2     :     0.000822
      f-2     :     0.000382
      f+3     :     0.001549
      f-3     :     0.001096

  8 C s       :     3.137079  s :     3.137079
      pz      :     0.905720  p :     2.476648
      px      :     0.831873
      py      :     0.739056
      dz2     :     0.003543  d :     0.163918
      dxz     :     0.022001
      dyz     :     0.042581
      dx2y2   :     0.051873
      dxy     :     0.043921
      f0      :     0.001985  f :     0.014022
      f+1     :     0.000922
      f-1     :     0.000948
      f+2     :     0.001234
      f-2     :     0.001564
      f+3     :     0.002580
      f-3     :     0.004790

  9 C s       :     3.136973  s :     3.136973
      pz      :     0.905724  p :     2.476503
      px      :     0.831394
      py      :     0.739385
      dz2     :     0.003545  d :     0.163926
      dxz     :     0.022010
      dyz     :     0.042578
      dx2y2   :     0.051881
      dxy     :     0.043912
      f0      :     0.001985  f :     0.014022
      f+1     :     0.000922
      f-1     :     0.000947
      f+2     :     0.001232
      f-2     :     0.001567
      f+3     :     0.002592
      f-3     :     0.004777

 10 C s       :     3.136963  s :     3.136963
      pz      :     0.906049  p :     2.476555
      px      :     0.831093
      py      :     0.739413
      dz2     :     0.003385  d :     0.163912
      dxz     :     0.022073
      dyz     :     0.042567
      dx2y2   :     0.051970
      dxy     :     0.043917
      f0      :     0.001990  f :     0.014022
      f+1     :     0.000915
      f-1     :     0.000945
      f+2     :     0.001232
      f-2     :     0.001566
      f+3     :     0.002593
      f-3     :     0.004780

 11 C s       :     3.137057  s :     3.137057
      pz      :     0.906049  p :     2.476677
      px      :     0.831486
      py      :     0.739141
      dz2     :     0.003384  d :     0.163923
      dxz     :     0.022065
      dyz     :     0.042580
      dx2y2   :     0.051962
      dxy     :     0.043931
      f0      :     0.001991  f :     0.014022
      f+1     :     0.000914
      f-1     :     0.000945
      f+2     :     0.001234
      f-2     :     0.001564
      f+3     :     0.002581
      f-3     :     0.004792

 12 C s       :     3.099630  s :     3.099630
      pz      :     0.903999  p :     2.370607
      px      :     0.705174
      py      :     0.761434
      dz2     :     0.004172  d :     0.167350
      dxz     :     0.039816
      dyz     :     0.031579
      dx2y2   :     0.049326
      dxy     :     0.042458
      f0      :     0.002180  f :     0.014488
      f+1     :     0.001070
      f-1     :     0.000865
      f+2     :     0.000872
      f-2     :     0.002169
      f+3     :     0.004449
      f-3     :     0.002883

 13 C s       :     3.099591  s :     3.099591
      pz      :     0.903992  p :     2.370598
      px      :     0.705027
      py      :     0.761579
      dz2     :     0.004173  d :     0.167351
      dxz     :     0.039823
      dyz     :     0.031572
      dx2y2   :     0.049308
      dxy     :     0.042475
      f0      :     0.002180  f :     0.014488
      f+1     :     0.001070
      f-1     :     0.000865
      f+2     :     0.000877
      f-2     :     0.002165
      f+3     :     0.004463
      f-3     :     0.002869

 14 C s       :     3.099571  s :     3.099571
      pz      :     0.904235  p :     2.370528
      px      :     0.704737
      py      :     0.761556
      dz2     :     0.004085  d :     0.167357
      dxz     :     0.039935
      dyz     :     0.031557
      dx2y2   :     0.049296
      dxy     :     0.042484
      f0      :     0.002187  f :     0.014489
      f+1     :     0.001063
      f-1     :     0.000863
      f+2     :     0.000873
      f-2     :     0.002165
      f+3     :     0.004468
      f-3     :     0.002870

 15 C s       :     3.099594  s :     3.099594
      pz      :     0.904236  p :     2.370633
      px      :     0.704949
      py      :     0.761448
      dz2     :     0.004087  d :     0.167353
      dxz     :     0.039926
      dyz     :     0.031566
      dx2y2   :     0.049299
      dxy     :     0.042474
      f0      :     0.002187  f :     0.014489
      f+1     :     0.001062
      f-1     :     0.000864
      f+2     :     0.000869
      f-2     :     0.002169
      f+3     :     0.004454
      f-3     :     0.002884

 16 C s       :     3.361899  s :     3.361899
      pz      :     1.065786  p :     3.000834
      px      :     0.962015
      py      :     0.973033
      dz2     :     0.002742  d :     0.074398
      dxz     :     0.015706
      dyz     :     0.016150
      dx2y2   :     0.008107
      dxy     :     0.031693
      f0      :     0.001509  f :     0.007287
      f+1     :     0.000678
      f-1     :     0.000665
      f+2     :     0.000837
      f-2     :     0.000414
      f+3     :     0.001502
      f-3     :     0.001682

 17 C s       :     3.361951  s :     3.361951
      pz      :     1.065808  p :     3.000873
      px      :     0.962043
      py      :     0.973021
      dz2     :     0.002743  d :     0.074403
      dxz     :     0.015656
      dyz     :     0.016198
      dx2y2   :     0.008116
      dxy     :     0.031689
      f0      :     0.001509  f :     0.007287
      f+1     :     0.000678
      f-1     :     0.000665
      f+2     :     0.000837
      f-2     :     0.000414
      f+3     :     0.001507
      f-3     :     0.001676

 18 C s       :     3.361983  s :     3.361983
      pz      :     1.066096  p :     3.000939
      px      :     0.961755
      py      :     0.973087
      dz2     :     0.002725  d :     0.074388
      dxz     :     0.015683
      dyz     :     0.016183
      dx2y2   :     0.008100
      dxy     :     0.031697
      f0      :     0.001512  f :     0.007287
      f+1     :     0.000675
      f-1     :     0.000667
      f+2     :     0.000837
      f-2     :     0.000411
      f+3     :     0.001508
      f-3     :     0.001678

 19 C s       :     3.361770  s :     3.361770
      pz      :     1.066125  p :     3.000949
      px      :     0.961783
      py      :     0.973040
      dz2     :     0.002726  d :     0.074382
      dxz     :     0.015733
      dyz     :     0.016133
      dx2y2   :     0.008084
      dxy     :     0.031707
      f0      :     0.001512  f :     0.007287
      f+1     :     0.000675
      f-1     :     0.000667
      f+2     :     0.000836
      f-2     :     0.000411
      f+3     :     0.001502
      f-3     :     0.001684

 20 C s       :     3.254247  s :     3.254247
      pz      :     1.017440  p :     2.878826
      px      :     0.951490
      py      :     0.909896
      dz2     :     0.005103  d :     0.084998
      dxz     :     0.019880
      dyz     :     0.011376
      dx2y2   :     0.018388
      dxy     :     0.030251
      f0      :     0.001530  f :     0.007826
      f+1     :     0.000614
      f-1     :     0.000762
      f+2     :     0.001207
      f-2     :     0.000228
      f+3     :     0.001217
      f-3     :     0.002268

 21 C s       :     3.254187  s :     3.254187
      pz      :     1.017449  p :     2.878815
      px      :     0.951458
      py      :     0.909909
      dz2     :     0.005103  d :     0.084993
      dxz     :     0.019851
      dyz     :     0.011405
      dx2y2   :     0.018393
      dxy     :     0.030242
      f0      :     0.001530  f :     0.007826
      f+1     :     0.000614
      f-1     :     0.000761
      f+2     :     0.001210
      f-2     :     0.000225
      f+3     :     0.001220
      f-3     :     0.002266

 22 C s       :     3.254257  s :     3.254257
      pz      :     1.017456  p :     2.878795
      px      :     0.951403
      py      :     0.909936
      dz2     :     0.005069  d :     0.084994
      dxz     :     0.019884
      dyz     :     0.011387
      dx2y2   :     0.018397
      dxy     :     0.030257
      f0      :     0.001535  f :     0.007826
      f+1     :     0.000607
      f-1     :     0.000762
      f+2     :     0.001213
      f-2     :     0.000221
      f+3     :     0.001219
      f-3     :     0.002269

 23 C s       :     3.254225  s :     3.254225
      pz      :     1.017456  p :     2.878777
      px      :     0.951423
      py      :     0.909898
      dz2     :     0.005068  d :     0.084995
      dxz     :     0.019913
      dyz     :     0.011360
      dx2y2   :     0.018387
      dxy     :     0.030267
      f0      :     0.001535  f :     0.007826
      f+1     :     0.000606
      f-1     :     0.000763
      f+2     :     0.001210
      f-2     :     0.000225
      f+3     :     0.001217
      f-3     :     0.002271

 24 H s       :     0.873493  s :     0.873493
      pz      :     0.011250  p :     0.021927
      px      :     0.005754
      py      :     0.004922

 25 H s       :     0.859030  s :     0.859030
      pz      :     0.007860  p :     0.021794
      px      :     0.007199
      py      :     0.006736

 26 H s       :     0.873507  s :     0.873507
      pz      :     0.011255  p :     0.021927
      px      :     0.005755
      py      :     0.004917

 27 H s       :     0.858982  s :     0.858982
      pz      :     0.007855  p :     0.021794
      px      :     0.007211
      py      :     0.006727

 28 H s       :     0.859023  s :     0.859023
      pz      :     0.007952  p :     0.021794
      px      :     0.007116
      py      :     0.006726

 29 H s       :     0.873476  s :     0.873476
      pz      :     0.011159  p :     0.021927
      px      :     0.005848
      py      :     0.004919

 30 H s       :     0.859024  s :     0.859024
      pz      :     0.007951  p :     0.021794
      px      :     0.007108
      py      :     0.006736

 31 H s       :     0.873475  s :     0.873475
      pz      :     0.011161  p :     0.021927
      px      :     0.005843
      py      :     0.004922

 32 H s       :     0.868042  s :     0.868042
      pz      :     0.005620  p :     0.022677
      px      :     0.008340
      py      :     0.008717

 33 H s       :     0.868044  s :     0.868044
      pz      :     0.005620  p :     0.022677
      px      :     0.008359
      py      :     0.008698

 34 H s       :     0.868039  s :     0.868039
      pz      :     0.005615  p :     0.022677
      px      :     0.008365
      py      :     0.008697

 35 H s       :     0.868033  s :     0.868033
      pz      :     0.005615  p :     0.022677
      px      :     0.008345
      py      :     0.008717

 36 H s       :     0.866527  s :     0.866527
      pz      :     0.005105  p :     0.022471
      px      :     0.007338
      py      :     0.010028

 37 H s       :     0.866520  s :     0.866520
      pz      :     0.005105  p :     0.022471
      px      :     0.007357
      py      :     0.010009

 38 H s       :     0.866509  s :     0.866509
      pz      :     0.005102  p :     0.022471
      px      :     0.007361
      py      :     0.010007

 39 H s       :     0.866525  s :     0.866525
      pz      :     0.005103  p :     0.022471
      px      :     0.007343
      py      :     0.010025

 40 Mgs       :     4.576895  s :     4.576895
      pz      :     2.086063  p :     6.465843
      px      :     2.173233
      py      :     2.206547
      dz2     :     0.033031  d :     0.281846
      dxz     :     0.016604
      dyz     :     0.036692
      dx2y2   :     0.173336
      dxy     :     0.022183



                     *******************************
                     * LOEWDIN POPULATION ANALYSIS *
                     *******************************

----------------------
LOEWDIN ATOMIC CHARGES
----------------------
   0 N :    0.200848
   1 N :    0.200837
   2 N :    0.161816
   3 N :    0.161846
   4 C :   -0.199898
   5 C :   -0.199898
   6 C :   -0.199892
   7 C :   -0.199887
   8 C :   -0.203922
   9 C :   -0.203899
  10 C :   -0.203900
  11 C :   -0.203880
  12 C :   -0.205053
  13 C :   -0.205054
  14 C :   -0.205050
  15 C :   -0.205043
  16 C :   -0.123056
  17 C :   -0.123064
  18 C :   -0.123081
  19 C :   -0.123089
  20 C :   -0.125624
  21 C :   -0.125627
  22 C :   -0.125598
  23 C :   -0.125602
  24 H :    0.147161
  25 H :    0.143495
  26 H :    0.147175
  27 H :    0.143489
  28 H :    0.143494
  29 H :    0.147159
  30 H :    0.143497
  31 H :    0.147157
  32 H :    0.159383
  33 H :    0.159383
  34 H :    0.159388
  35 H :    0.159389
  36 H :    0.138685
  37 H :    0.138684
  38 H :    0.138685
  39 H :    0.138685
  40 Mg:    0.349859

-------------------------------
LOEWDIN REDUCED ORBITAL CHARGES
-------------------------------
  0 N s       :     2.978410  s :     2.978410
      pz      :     1.119250  p :     3.587016
      px      :     1.346798
      py      :     1.120969
      dz2     :     0.016485  d :     0.215080
      dxz     :     0.009747
      dyz     :     0.050352
      dx2y2   :     0.064514
      dxy     :     0.073983
      f0      :     0.001124  f :     0.018646
      f+1     :     0.000778
      f-1     :     0.001780
      f+2     :     0.000319
      f-2     :     0.003560
      f+3     :     0.003774
      f-3     :     0.007312

  1 N s       :     2.978377  s :     2.978377
      pz      :     1.119338  p :     3.587067
      px      :     1.346765
      py      :     1.120964
      dz2     :     0.016484  d :     0.215074
      dxz     :     0.009745
      dyz     :     0.050351
      dx2y2   :     0.064516
      dxy     :     0.073978
      f0      :     0.001124  f :     0.018645
      f+1     :     0.000778
      f-1     :     0.001780
      f+2     :     0.000319
      f-2     :     0.003560
      f+3     :     0.003773
      f-3     :     0.007311

  2 N s       :     2.976326  s :     2.976326
      pz      :     1.214446  p :     3.641646
      px      :     1.103912
      py      :     1.323288
      dz2     :     0.016180  d :     0.201888
      dxz     :     0.043710
      dyz     :     0.011509
      dx2y2   :     0.061651
      dxy     :     0.068839
      f0      :     0.001125  f :     0.018323
      f+1     :     0.001729
      f-1     :     0.000853
      f+2     :     0.000190
      f-2     :     0.003728
      f+3     :     0.006812
      f-3     :     0.003887

  3 N s       :     2.976272  s :     2.976272
      pz      :     1.214498  p :     3.641644
      px      :     1.103859
      py      :     1.323286
      dz2     :     0.016135  d :     0.201913
      dxz     :     0.043732
      dyz     :     0.011466
      dx2y2   :     0.061693
      dxy     :     0.068886
      f0      :     0.001123  f :     0.018326
      f+1     :     0.001731
      f-1     :     0.000849
      f+2     :     0.000183
      f-2     :     0.003730
      f+3     :     0.006820
      f-3     :     0.003889

  4 C s       :     2.766997  s :     2.766997
      pz      :     1.033078  p :     3.024319
      px      :     0.993627
      py      :     0.997613
      dz2     :     0.048487  d :     0.368381
      dxz     :     0.072484
      dyz     :     0.068495
      dx2y2   :     0.086456
      dxy     :     0.092459
      f0      :     0.004438  f :     0.040201
      f+1     :     0.003505
      f-1     :     0.003491
      f+2     :     0.005507
      f-2     :     0.004678
      f+3     :     0.011238
      f-3     :     0.007345

  5 C s       :     2.766992  s :     2.766992
      pz      :     1.033068  p :     3.024307
      px      :     0.993651
      py      :     0.997589
      dz2     :     0.048541  d :     0.368396
      dxz     :     0.072525
      dyz     :     0.068399
      dx2y2   :     0.086407
      dxy     :     0.092524
      f0      :     0.004441  f :     0.040202
      f+1     :     0.003503
      f-1     :     0.003488
      f+2     :     0.005506
      f-2     :     0.004681
      f+3     :     0.011249
      f-3     :     0.007334

  6 C s       :     2.767002  s :     2.767002
      pz      :     1.033115  p :     3.024313
      px      :     0.993611
      py      :     0.997587
      dz2     :     0.047440  d :     0.368376
      dxz     :     0.073506
      dyz     :     0.068759
      dx2y2   :     0.086494
      dxy     :     0.092176
      f0      :     0.004360  f :     0.040200
      f+1     :     0.003586
      f-1     :     0.003547
      f+2     :     0.005454
      f-2     :     0.004622
      f+3     :     0.011295
      f-3     :     0.007336

  7 C s       :     2.767002  s :     2.767002
      pz      :     1.033110  p :     3.024304
      px      :     0.993581
      py      :     0.997613
      dz2     :     0.047472  d :     0.368381
      dxz     :     0.073413
      dyz     :     0.068826
      dx2y2   :     0.086534
      dxy     :     0.092135
      f0      :     0.004361  f :     0.040200
      f+1     :     0.003584
      f-1     :     0.003548
      f+2     :     0.005457
      f-2     :     0.004620
      f+3     :     0.011283
      f-3     :     0.007347

  8 C s       :     2.711135  s :     2.711135
      pz      :     0.836199  p :     2.782571
      px      :     0.957082
      py      :     0.989291
      dz2     :     0.043072  d :     0.632891
      dxz     :     0.069213
      dyz     :     0.123005
      dx2y2   :     0.204140
      dxy     :     0.193462
      f0      :     0.005321  f :     0.077325
      f+1     :     0.004512
      f-1     :     0.006088
      f+2     :     0.006792
      f-2     :     0.010608
      f+3     :     0.015434
      f-3     :     0.028569

  9 C s       :     2.711129  s :     2.711129
      pz      :     0.836202  p :     2.782561
      px      :     0.956927
      py      :     0.989432
      dz2     :     0.043073  d :     0.632886
      dxz     :     0.069238
      dyz     :     0.122988
      dx2y2   :     0.204105
      dxy     :     0.193482
      f0      :     0.005321  f :     0.077323
      f+1     :     0.004516
      f-1     :     0.006085
      f+2     :     0.006779
      f-2     :     0.010621
      f+3     :     0.015504
      f-3     :     0.028497

 10 C s       :     2.711131  s :     2.711131
      pz      :     0.836001  p :     2.782552
      px      :     0.957105
      py      :     0.989446
      dz2     :     0.042804  d :     0.632894
      dxz     :     0.069328
      dyz     :     0.122927
      dx2y2   :     0.204300
      dxy     :     0.193535
      f0      :     0.005329  f :     0.077323
      f+1     :     0.004487
      f-1     :     0.006068
      f+2     :     0.006786
      f-2     :     0.010613
      f+3     :     0.015519
      f-3     :     0.028521

 11 C s       :     2.711129  s :     2.711129
      pz      :     0.836002  p :     2.782542
      px      :     0.957246
      py      :     0.989294
      dz2     :     0.042805  d :     0.632888
      dxz     :     0.069299
      dyz     :     0.122961
      dx2y2   :     0.204307
      dxy     :     0.193516
      f0      :     0.005329  f :     0.077322
      f+1     :     0.004484
      f-1     :     0.006071
      f+2     :     0.006795
      f-2     :     0.010604
      f+3     :     0.015450
      f-3     :     0.028589

 12 C s       :     2.695970  s :     2.695970
      pz      :     0.838771  p :     2.780742
      px      :     0.967390
      py      :     0.974581
      dz2     :     0.043664  d :     0.648170
      dxz     :     0.113262
      dyz     :     0.094785
      dx2y2   :     0.200101
      dxy     :     0.196359
      f0      :     0.005060  f :     0.080171
      f+1     :     0.006033
      f-1     :     0.004734
      f+2     :     0.006269
      f-2     :     0.013605
      f+3     :     0.026475
      f-3     :     0.017995

 13 C s       :     2.695969  s :     2.695969
      pz      :     0.838762  p :     2.780736
      px      :     0.967241
      py      :     0.974733
      dz2     :     0.043665  d :     0.648177
      dxz     :     0.113319
      dyz     :     0.094732
      dx2y2   :     0.200072
      dxy     :     0.196389
      f0      :     0.005060  f :     0.080172
      f+1     :     0.006036
      f-1     :     0.004731
      f+2     :     0.006294
      f-2     :     0.013580
      f+3     :     0.026564
      f-3     :     0.017906

 14 C s       :     2.695966  s :     2.695966
      pz      :     0.838656  p :     2.780718
      px      :     0.967356
      py      :     0.974706
      dz2     :     0.043530  d :     0.648191
      dxz     :     0.113405
      dyz     :     0.094643
      dx2y2   :     0.200149
      dxy     :     0.196464
      f0      :     0.005061  f :     0.080176
      f+1     :     0.006032
      f-1     :     0.004718
      f+2     :     0.006273
[...]
     Transition      Energy     Energy  Wavelength fosc(P2)      P2        PX        PY        PZ   
                      (eV)      (cm-1)    (nm)                 (au**2)    (au)      (au)      (au)  
----------------------------------------------------------------------------------------------------
  0-1A  ->  1-1A    2.302254   18568.9   538.5   0.600835362   0.07625  -0.00026   0.27614   0.00002
  0-1A  ->  2-1A    2.601982   20986.4   476.5   0.009791593   0.00140  -0.03747  -0.00004  -0.00032
  0-1A  ->  3-1A    3.464777   27945.3   357.8   0.000034693   0.00001  -0.00008  -0.00002   0.00257
  0-1A  ->  4-1A    3.640801   29365.0   340.5   0.005058401   0.00102   0.03186   0.00003   0.00026
  0-1A  ->  5-1A    4.166362   33604.0   297.6   0.000000001   0.00000   0.00001   0.00000  -0.00000
  0-1A  ->  6-1A    4.191727   33808.6   295.8   0.000137255   0.00003  -0.00004   0.00000   0.00563
  0-1A  ->  7-1A    4.355373   35128.5   284.7   0.000294213   0.00007  -0.00840  -0.00000  -0.00003
  0-1A  ->  8-1A    4.450944   35899.3   278.6   0.000415704   0.00010  -0.00001   0.01010   0.00003
  0-1A  ->  9-1A    4.548897   36689.3   272.6   0.000005419   0.00000  -0.00001  -0.00014   0.00116
  0-1A  -> 10-1A    4.570269   36861.7   271.3   0.000000220   0.00000   0.00000   0.00024   0.00000
  0-1A  -> 11-1A    4.585757   36986.6   270.4   0.008992888   0.00227   0.00004  -0.04768  -0.00003
  0-1A  -> 12-1A    4.859939   39198.1   255.1   0.000000001   0.00000  -0.00001   0.00001  -0.00000
  0-1A  -> 13-1A    4.959513   40001.2   250.0   0.000000653   0.00000  -0.00004  -0.00001   0.00042
  0-1A  -> 14-1A    4.979065   40158.9   249.0   0.000042447   0.00001  -0.00007  -0.00001   0.00341
  0-1A  -> 15-1A    5.059286   40805.9   245.1   0.000451322   0.00013  -0.01122  -0.00009  -0.00010
  0-1A  -> 16-1A    5.088442   41041.1   243.7   0.014109903   0.00396  -0.00008   0.06291   0.00001
  0-1A  -> 17-1A    5.173520   41727.3   239.7   0.000000007   0.00000   0.00001   0.00004  -0.00002
  0-1A  -> 18-1A    5.184470   41815.6   239.1   0.000000015   0.00000  -0.00001   0.00007   0.00000
  0-1A  -> 19-1A    5.221794   42116.6   237.4   0.005369366   0.00155  -0.00032  -0.00006   0.03931
  0-1A  -> 20-1A    5.342248   43088.1   232.1   0.000000175   0.00000   0.00002   0.00023   0.00000
  0-1A  -> 21-1A    5.357775   43213.4   231.4   0.003782835   0.00112   0.00003  -0.03342  -0.00001
  0-1A  -> 22-1A    5.481189   44208.8   226.2   0.000000005   0.00000  -0.00003  -0.00003  -0.00000
  0-1A  -> 23-1A    5.582280   45024.1   222.1   0.000000699   0.00000  -0.00003  -0.00019   0.00042
  0-1A  -> 24-1A    5.595567   45131.3   221.6   0.019975060   0.00616  -0.00008   0.07849   0.00004
  0-1A  -> 25-1A    5.644968   45529.7   219.6   0.002015611   0.00063  -0.00002   0.02504  -0.00000
  0-1A  -> 26-1A    5.730204   46217.2   216.4   0.000000001   0.00000  -0.00002  -0.00001  -0.00000
  0-1A  -> 27-1A    5.853111   47208.5   211.8   0.001800624   0.00058  -0.00007  -0.00001   0.02410
  0-1A  -> 28-1A    5.862065   47280.7   211.5   0.018949506   0.00612   0.07825   0.00007   0.00056
  0-1A  -> 29-1A    5.900142   47587.9   210.1   0.000284327   0.00009   0.00008   0.00962   0.00000
  0-1A  -> 30-1A    5.924334   47783.0   209.3   0.000002957   0.00000   0.00098  -0.00000   0.00002

------------------------------------------------------------------------------------------
                     CD SPECTRUM VIA TRANSITION ELECTRIC DIPOLE MOMENTS    
------------------------------------------------------------------------------------------
     Transition      Energy     Energy  Wavelength    R        MX        MY        MZ   
                      (eV)      (cm-1)    (nm)   (1e40*cgs)   (au)      (au)      (au)  
------------------------------------------------------------------------------------------
  0-1A  ->  1-1A    2.302254   18568.9   538.5  -54.23818  -0.00006   0.04144   0.00022
  0-1A  ->  2-1A    2.601982   20986.4   476.5   -1.38885  -0.00408   0.00000  -0.00037
  0-1A  ->  3-1A    3.464777   27945.3   357.8   -0.46670  -0.00060   0.00007   0.07181
  0-1A  ->  4-1A    3.640801   29365.0   340.5    0.77788   0.00697   0.00001   0.00010
  0-1A  ->  5-1A    4.166362   33604.0   297.6   -0.00001  -0.00001   0.00002  -0.00003
  0-1A  ->  6-1A    4.191727   33808.6   295.8    6.31420   0.00426  -0.00003  -0.54846
  0-1A  ->  7-1A    4.355373   35128.5   284.7  -33.20947   0.01616   0.00002   0.00048
  0-1A  ->  8-1A    4.450944   35899.3   278.6  -76.00021  -0.00031   0.32219   0.00029
  0-1A  ->  9-1A    4.548897   36689.3   272.6   54.70478   0.01030   0.00028  -1.31934
  0-1A  -> 10-1A    4.570269   36861.7   271.3    0.00303   0.00001  -0.00035   0.00011
  0-1A  -> 11-1A    4.585757   36986.6   270.4   26.64722  -0.00006   0.01589   0.00346
  0-1A  -> 12-1A    4.859939   39198.1   255.1   -0.00003  -0.00002   0.00009   0.00002
  0-1A  -> 13-1A    4.959513   40001.2   250.0    6.45017   0.00209  -0.00004  -0.26410
  0-1A  -> 14-1A    4.979065   40158.9   249.0   -3.23098   0.00417  -0.00001  -0.53782
  0-1A  -> 15-1A    5.059286   40805.9   245.1    0.79812   0.00958  -0.00001   0.00178
  0-1A  -> 16-1A    5.088442   41041.1   243.7    7.56371  -0.00002   0.01615  -0.00026
  0-1A  -> 17-1A    5.173520   41727.3   239.7   -0.00008   0.00003  -0.00010  -0.00005
  0-1A  -> 18-1A    5.184470   41815.6   239.1    0.00009  -0.00007   0.00004   0.00002
  0-1A  -> 19-1A    5.221794   42116.6   237.4   -2.07271  -0.00053  -0.00011   0.07180
  0-1A  -> 20-1A    5.342248   43088.1   232.1   -0.00059   0.00004   0.00011   0.00001
  0-1A  -> 21-1A    5.357775   43213.4   231.4  -13.85891   0.00003  -0.02032  -0.00007
  0-1A  -> 22-1A    5.481189   44208.8   226.2    0.00001  -0.00001  -0.00004   0.00006
  0-1A  -> 23-1A    5.582280   45024.1   222.1   -3.30611  -0.00132  -0.00018   0.16573
  0-1A  -> 24-1A    5.595567   45131.3   221.6   54.28343  -0.00006   0.06181   0.00043
  0-1A  -> 25-1A    5.644968   45529.7   219.6  -22.10199   0.00011  -0.11140  -0.00015
  0-1A  -> 26-1A    5.730204   46217.2   216.4    0.00008   0.00004  -0.00020   0.00002
  0-1A  -> 27-1A    5.853111   47208.5   211.8   -0.48301   0.00006  -0.00002  -0.01020
  0-1A  -> 28-1A    5.862065   47280.7   211.5   -3.44970  -0.01348   0.00012   0.00006
  0-1A  -> 29-1A    5.900142   47587.9   210.1  -11.07540   0.00007  -0.13317   0.00015
  0-1A  -> 30-1A    5.924334   47783.0   209.3   -5.58089  -0.31089  -0.00029  -0.00256

------------------------------------------------------------------------------------------
                     CD SPECTRUM VIA TRANSITION VELOCITY DIPOLE MOMENTS    
------------------------------------------------------------------------------------------
     Transition      Energy     Energy  Wavelength    R        MX        MY        MZ   
                      (eV)      (cm-1)    (nm)   (1e40*cgs)   (au)      (au)      (au)  
------------------------------------------------------------------------------------------
  0-1A  ->  1-1A    2.302254   18568.9   538.5   63.76251  -0.00006   0.04144   0.00022
  0-1A  ->  2-1A    2.601982   20986.4   476.5    0.75365  -0.00408   0.00000  -0.00037
  0-1A  ->  3-1A    3.464777   27945.3   357.8    0.68426  -0.00060   0.00007   0.07181
  0-1A  ->  4-1A    3.640801   29365.0   340.5    0.78310   0.00697   0.00001   0.00010
  0-1A  ->  5-1A    4.166362   33604.0   297.6   -0.00000  -0.00001   0.00002  -0.00003
  0-1A  ->  6-1A    4.191727   33808.6   295.8   -9.45332   0.00426  -0.00003  -0.54846
  0-1A  ->  7-1A    4.355373   35128.5   284.7   -0.39998   0.01616   0.00002   0.00048
  0-1A  ->  8-1A    4.450944   35899.3   278.6    9.37858  -0.00031   0.32219   0.00029
  0-1A  ->  9-1A    4.548897   36689.3   272.6   -4.30548   0.01030   0.00028  -1.31934
  0-1A  -> 10-1A    4.570269   36861.7   271.3   -0.00023   0.00001  -0.00035   0.00011
  0-1A  -> 11-1A    4.585757   36986.6   270.4   -2.12019  -0.00006   0.01589   0.00346
  0-1A  -> 12-1A    4.859939   39198.1   255.1    0.00000  -0.00002   0.00009   0.00002
  0-1A  -> 13-1A    4.959513   40001.2   250.0   -0.28746   0.00209  -0.00004  -0.26410
  0-1A  -> 14-1A    4.979065   40158.9   249.0   -4.72958   0.00417  -0.00001  -0.53782
  0-1A  -> 15-1A    5.059286   40805.9   245.1   -0.27296   0.00958  -0.00001   0.00178
  0-1A  -> 16-1A    5.088442   41041.1   243.7    2.56127  -0.00002   0.01615  -0.00026
  0-1A  -> 17-1A    5.173520   41727.3   239.7   -0.00001   0.00003  -0.00010  -0.00005
  0-1A  -> 18-1A    5.184470   41815.6   239.1    0.00001  -0.00007   0.00004   0.00002
  0-1A  -> 19-1A    5.221794   42116.6   237.4    6.93462  -0.00053  -0.00011   0.07180
  0-1A  -> 20-1A    5.342248   43088.1   232.1    0.00006   0.00004   0.00011   0.00001
  0-1A  -> 21-1A    5.357775   43213.4   231.4    1.62606   0.00003  -0.02032  -0.00007
  0-1A  -> 22-1A    5.481189   44208.8   226.2    0.00000  -0.00001  -0.00004   0.00006
  0-1A  -> 23-1A    5.582280   45024.1   222.1    0.16140  -0.00132  -0.00018   0.16573
  0-1A  -> 24-1A    5.595567   45131.3   221.6   11.12409  -0.00006   0.06181   0.00043
  0-1A  -> 25-1A    5.644968   45529.7   219.6   -6.34019   0.00011  -0.11140  -0.00015
  0-1A  -> 26-1A    5.730204   46217.2   216.4    0.00000   0.00004  -0.00020   0.00002
  0-1A  -> 27-1A    5.853111   47208.5   211.8   -0.53897   0.00006  -0.00002  -0.01020
  0-1A  -> 28-1A    5.862065   47280.7   211.5   -2.30818  -0.01348   0.00012   0.00006
  0-1A  -> 29-1A    5.900142   47587.9   210.1   -2.78441   0.00007  -0.13317   0.00015
  0-1A  -> 30-1A    5.924334   47783.0   209.3   -0.66149  -0.31089  -0.00029  -0.00256

Total run time:     2383.346 sec

           *** ORCA-CIS/TD-DFT FINISHED WITHOUT ERROR ***
-----------------------
CIS/TD-DFT TOTAL ENERGY
-----------------------

    E(SCF)  =  -1190.091898119 Eh
    DE(CIS) =      0.084606283 Eh (Root  1)
    ----------------------------- ---------
    E(tot)  =  -1190.007291835 Eh


Maximum memory used throughout the entire CIS-calculation: 2695.0 MB
=> NOW LEAVING ORCA_CIS

-------------------------   --------------------
FINAL SINGLE POINT ENERGY     -1190.007291835363
-------------------------   --------------------



           ************************************************************
           *        Program running with 4 parallel MPI-processes     *
           *              working on a common directory               *
           ************************************************************

------------------------------------------------------------------------------
                              ORCA PROPERTY CALCULATIONS
------------------------------------------------------------------------------

GBWName                                 ... tddft.gbw
Number of atoms                         ...     41
Number of basis functions               ...    872
Max core memory                         ...   3000 MB

Electric properties:
Dipole moment                           ... YES
Quadrupole moment                       ...  NO
Static polarizability (Dipole/Dipole)   ...  NO
Static polarizability (Dipole/Quad.)    ...  NO
Static polarizability (Quad./Quad.)     ...  NO
Static polarizability (Velocity)        ...  NO
Static hyperpolarizability              ...  NO

Atomic electric properties:
Dipole moment                           ...  NO
Quadrupole moment                       ...  NO
Static polarizability                   ...  NO

Choice of electric origin               ... Center of mass
Position of electric origin             ...    -0.003613    -0.019229     0.068836

General magnetic properties:
Magnetizability                         ...  NO

EPR properties:
g-Tensor (aka g-matrix)                 ...  NO
Zero-Field splitting spin-orbit         ...  NO
Zero-field splitting spin-spin          ...  NO
Hyperfine couplings                     ...  NO (   0 nuclei)
Quadrupole couplings                    ...  NO (   0 nuclei)
Contact density                         ...  NO (   0 nuclei)

NMR properties:
Chemical shifts                         ...  NO (   0 nuclei)
Spin-rotation constants                 ...  NO (   0 nuclei)
Spin-spin couplings                     ...  NO (   0 nuclei,    0 pairs)

Choice of magnetic origin               ... GIAO
Position of magnetic origin             ...     0.000000     0.000000     0.000000

Properties with geometric perturbations:
SCF Hessian                             ...  NO
IR spectrum                             ...  NO
VCD spectrum                            ...  NO
X-ray spectroscopy properties:
SCF XES/XAS/RIXS spectra                ...  NO

SCF SOC stabilization energy            ...  NO
Diagonal Born-Oppenheimer correction    ...  NO

-------------
DIPOLE MOMENT
-------------

Method             : SCF
Type of density    : Electron Density
Multiplicity       :   1
Irrep              :   0
Energy             : -1190.0918981186357541 Eh
Basis              : AO
                                X                 Y                 Z
Electronic contribution:      0.000817123       0.000447426      -0.000403584
Nuclear contribution   :     -0.000660183       0.000201001       0.000373176
                        -----------------------------------------
Total Dipole Moment    :      0.000156940       0.000648427      -0.000030408
                        -----------------------------------------
Magnitude (a.u.)       :      0.000667842
Magnitude (Debye)      :      0.001697518



--------------------
Rotational spectrum 
--------------------
 
Rotational constants in cm-1:             0.008915             0.008207             0.004290 
Rotational constants in MHz :           267.260438           246.047427           128.597541 

Dipole components along the rotational axes: 
x,y,z [a.u.] :     0.000157    -0.000648    -0.000032 
x,y,z [Debye]:     0.000400    -0.001648    -0.000081 

 

Dipole moment calculation done in   0.0 sec 

Maximum memory used throughout the entire PROP-calculation: 90.9 MB

--------------------------------
SUGGESTED CITATIONS FOR THIS RUN
--------------------------------

Below you find a list of papers that are relevant to this ORCA run
We neither can nor want to force you to cite these papers, but we appreciate if you do
You receive ORCA, which is the product of decades of hard work by many enthusiastic individuals, for free
The only thing we kindly ask in return is that you cite our papers,
We deeply appreciate it, if you show your appreciation for ORCA by not just citing the generic ORCA reference.

Please note that relegating all ORCA citations to the supporting information does *not* help us.
SI sections are not indexed - citations you put there will not count into any citation statistics
But we need these citations in order to attract the funding resources that allow us to do what we are doing

Therefore, if you are a happy ORCA user, please consider citing a few of the papers listed below in the main body of your paper

In addition to the list printed below, the program has created the file tddft.bibtex that contains the list in bibtex format
You can import this file easily into all common literature databanks and citation aid programs

It goes without saying that in many instances, there are alternative algorithms to achieve similar
results as the ones you have gotten from ORCA. It is, of course, also the case that in some instances
ORCA just re-implements algorithms worked out by others. We are fully aware of that and we are also
fully appreciative of our colleagues work. Hence this citation list should not be read as indicating
that the listed papers, which are focused on our own work, are the only ones worth citing. It simply
meant to make it easier for users to cite ORCA specific papers. It is not a substitute for doing your
own literature research and citing the relevant literature in a scientifically appropriate manner.

List of essential papers. We consider these as the minimum necessary citations

  1. Neese, F.
     Software update: the ORCA program system, version 6.0
     WIRES Comput. Molec. Sci. 2025 15(1), e70019
     doi.org/10.1002/wcms.70019

List of papers to cite with high priority. The work reported in these papers was absolutely
necessary for this run to complete.
Our perspective: the developers of density functionals and basis sets usually get cited in chemistry papers
Good! But without the algorithms to do something with them, the functionals or basis sets would not do anything.
Hence, in our opinion, the algorithm design and method developments papers are equally worthy of getting cited

  1. Neese, F.; Olbrich, G.
     Efficient use of the resolution of the identity approximation in time-dependent density functional calculations with hybrid density functionals
     Chem. Phys. Lett. 2002 362 , 170-178
     doi.org/10.1016/s0009-2614(02)01053-9
  2. Neese, F.
     An improvement of the resolution of the identity approximation for the formation of the Coulomb matrix
     J. Comp. Chem. 2003 24(14), 1740-1747
     doi.org/10.1002/jcc.10318
  3. Neese, F.; Wennmohs, F.; Hansen, A.; Becker, U.
     Efficient, approximate and parallel Hartree-Fock and hybrid DFT calculations. A 'chain-of-spheres' algorithm for the Hartree-Fock exchange
     Chem. Phys. 2009 356(1-3), 98-109
     doi.org/10.1016/j.chemphys.2008.10.036
  4. Helmich-Paris, B.; de Souza, B.; Neese, F.; Izsák, R.
     An improved chain of spheres for exchange algorithm
     J. Chem. Phys. 2021 155(10), 104109
     doi.org/10.1063/5.0058766
  5. Neese, F.
     The SHARK Integral Generation and Digestion System
     J. Comp. Chem. 2022 44(3), 381
     doi.org/10.1002/jcc.26942

List of suggested additional citations. These are papers that are important in the 'surrounding' of 
of this run, or papers that preceded the highly important papers. If you like your results we are grateful for a citation.

  1. Izsak, R.; Neese, F.
     An overlap fitted chain of spheres exchange method
     J. Chem. Phys. 2011 135 , 144105
     doi.org/10.1063/1.3646921
  2. Izsak, R.; Hansen, A.; Neese, F.
     The resolution of identity and chain of spheres approximations for the LPNO-CCSD singles Fock term
     Molec. Phys. 2012 110 , 2413-2417
     doi.org/10.1080/00268976.2012.687466
  3. Neese, F.
     The ORCA program system
     WIRES Comput. Molec. Sci. 2012 2(1), 73-78
     doi.org/10.1002/wcms.81
  4. Izsak, R.; Neese, F.; Klopper, W.
     Robust fitting techniques in the chain of spheres approximation to the Fock exchange: The role of the complementary space
     J. Chem. Phys. 2013 139 , 
     doi.org/10.1063/1.4819264
  5. Neese, F.
     Software update: the ORCA program system, version 4.0
     WIRES Comput. Molec. Sci. 2018 8(1), 1-6
     doi.org/10.1002/wcms.1327
  6. Neese, F.; Wennmohs, F.; Becker, U.; Riplinger, C.
     The ORCA quantum chemistry program package
     J. Chem. Phys. 2020 152(22), 224108
     doi.org/10.1063/5.0004608
  7. Neese, F.
     Software update: The ORCA program system—Version 5.0
     WIRES Comput. Molec. Sci. 2022 12(1), e1606
     doi.org/10.1002/wcms.1606

List of optional additional citations

  1. Neese, F.
     Approximate second-order SCF convergence for spin unrestricted wavefunctions
     Chem. Phys. Lett. 2000 325(1-3), 93-98
     doi.org/10.1016/s0009-2614(00)00662-x

Timings for individual modules:

Sum of individual times          ...     3821.498 sec (=  63.692 min)
Startup calculation              ...       31.466 sec (=   0.524 min)   0.8 %
SCF iterations                   ...     1404.765 sec (=  23.413 min)  36.8 %
Property integrals               ...        1.030 sec (=   0.017 min)   0.0 %
Property calculations            ...        0.564 sec (=   0.009 min)   0.0 %
CIS module                       ...     2383.673 sec (=  39.728 min)  62.4 %
                             ****ORCA TERMINATED NORMALLY****
TOTAL RUN TIME: 0 days 1 hours 3 minutes 41 seconds 874 msec
