
                                 *****************
                                 * O   R   C   A *
                                 *****************

                                            #,                                       
                                            ###                                      
                                            ####                                     
                                            #####                                    
                                            ######                                   
                                           ########,                                 
                                     ,,################,,,,,                         
                               ,,#################################,,                 
                          ,,##########################################,,             
                       ,#########################################, ''#####,          
                    ,#############################################,,   '####,        
                  ,##################################################,,,,####,       
                ,###########''''           ''''###############################       
              ,#####''   ,,,,##########,,,,          '''####'''          '####       
            ,##' ,,,,###########################,,,                        '##       
           ' ,,###''''                  '''############,,,                           
         ,,##''                                '''############,,,,        ,,,,,,###''
      ,#''                                            '''#######################'''  
     '                                                          ''''####''''         
             ,#######,   #######,   ,#######,      ##                                
            ,#'     '#,  ##    ##  ,#'     '#,    #''#        ,####,    ,#,          
            ##       ##  ##   ,#'  ##            #'  '#       #'       ,# #          
            ##       ##  #######   ##           ,######,      #####,      #          
            '#,     ,#'  ##    ##  '#,     ,#' ,#      #,     #,   #      #          
             '#######'   ##     ##  '#######'  #'      '#     '####' #    #          



                #########################################################
                #                        -***-                          #
                #          Department of theory and spectroscopy        #
                #                                                       #
                #                      Frank Neese                      #
                #                                                       #
                #     Directorship, Architecture, Infrastructure        #
                #                    SHARK, DRIVERS                     #
                #        Core code/Algorithms in most modules           #
                #                                                       #
                #        Max Planck Institute fuer Kohlenforschung      #
                #                Kaiser Wilhelm Platz 1                 #
                #                 D-45470 Muelheim/Ruhr                 #
                #                      Germany                          #
                #                                                       #
                #                  All rights reserved                  #
                #                        -***-                          #
                #########################################################


                         Program Version 6.1.1  -  RELEASE   -
                                (GIT: $487d211c$)
                          ($2025-11-21 10:33:24 +0100$)


 With contributions from (in alphabetic order):
[Max-Planck-Institut fuer Kohlenforschung]                               
  Daniel Aravena         : Magnetic Suceptibility                        
  Michael Atanasov       : Ab Initio Ligand Field Theory (pilot matlab implementation)
  Alexander A. Auer      : GIAO ZORA, VPT2 properties, NMR spectrum      
  Ute Becker             : All parallelization in ORCA, NUMFREQ, NUMCALC 
  Giovanni Bistoni       : ED, misc. LED, open-shell LED, HFLD           
  Dmytro Bykov           : pre 5.0 version of the SCF Hessian            
  Marcos Casanova-Páez   : Triplet and SCS-CIS(D). UHF-(DLPNO)-IP/EA/STEOM-CCSD. UHF-CVS-IP/STEOM-CCSD   
  Vijay G. Chilkuri      : MRCI spin determinant printing, contributions to CSF-ICE 
  Pauline Colinet        : FMM embedding                                 
  Dipayan Datta          : RHF DLPNO-CCSD density                        
  Achintya Kumar Dutta   : EOM-CC, STEOM-CC                              
  Nicolas Foglia         : Exact transition moments, OPA infrastructure, MCD improvements    
  Dmitry Ganyushin       : Spin-Orbit,Spin-Spin,Magnetic field MRCI      
  Miquel Garcia-Rates    : C-PCM and meta-GGA Hessian, CCSD/C-PCM, Gaussian charge scheme 
  Tiago L. C. Gouveia    : GS-ROHF, GS-ROCIS                             
  Yang Guo               : DLPNO-NEVPT2, F12-NEVPT2, CIM, IAO-localization        
  Andreas Hansen         : Spin unrestricted coupled pair/coupled cluster methods 
  Ingolf Harden          : AUTO-CI MPn and infrastructure                
  Benjamin Helmich-Paris : MC-RPA, TRAH-(SCF,CASSCF), AVAS, COSX integrals, SCF dyn. polar., MC-PDFT, srDFT 
  Lee Huntington         : MR-EOM, pCC                                   
  Robert Izsak           : Overlap fitted RIJCOSX, COSX-SCS-MP3, EOM     
  Riya Kayal             : Wick's Theorem for AUTO-CI, AUTO-CI UHF-CCSDT 
  Emily Kempfer          : AUTO-CI RHF CISDT and CCSDT, approximate NEVPT4
  Christian Kollmar      : KDIIS, OOCD, Brueckner-CCSD(T), CCSD density, CASPT2, CASPT2-K, improved NEVPT2 
  Axel Koslowski         : Symmetry handling                             
  Simone Kossmann        : meta-GGA functionals, TD-DFT gradient, OOMP2, (MP2 Hessian; deprecated post 5.0) 
  Lucas Lang             : DCDCAS, Hyperfine gauge corrections, ICE-SOC+SSC
  Marvin Lechner         : AUTO-CI (C++ implementation), FIC-MRCC        
  Spencer Leger          : CASSCF response                               
  Dagmar Lenk            : GEPOL surface, SMD, ORCA-2-JSON               
  Dimitrios Liakos       : Extrapolation schemes; Compound Job, Property file
  Dimitrios Manganas     : Further ROCIS development; embedding schemes. LFT, Crystal Embedding 
  Dimitrios Pantazis     : SARC Basis sets                               
  Anastasios Papadopoulos: AUTO-CI, single reference methods and gradients 
  Taras Petrenko         : pre 6.0 DFT Hessian and TD-DFT gradient,  ECA, NRVS 
  Petra Pikulova         : Analytic Raman intensities                    
  Peter Pinski           : DLPNO-MP2, DLPNO-MP2 Gradient                 
  Shashank Vittal Rao    : ES-AILFT, MagRelax                            
  Christoph Reimann      : Effective Core Potentials                     
  Marius Retegan         : Local ZFS, SOC                                
  Christoph Riplinger    : Optimizer, TS searches, QM/MM, DLPNO-CCSD(T), (RO)-DLPNO pert. Triples 
  Michael Roemelt        : Original ROCIS implementation, recursive CI coupling coefficients
  Masaaki Saitow         : Open-shell DLPNO-CCSD energy and density      
  Barbara Sandhoefer     : DKH picture change effects                    
  Yorick L. A. Schmerwitz: GMF and freeze-and-release deltaSCF, NEB S-IDPP initial path                    
  Kantharuban Sivalingam : CASSCF convergence/infrastructure, NEVPT2, NEVPT3, NEVPT4(SD), FIC-MRCI and CEPA variants
  Bernardo de Souza      : ESD, SOC TD-DFT                               
  Georgi L. Stoychev     : AutoAux, RI-MP2 NMR, DLPNO-MP2 response, X2C  
  Van Anh Tran           : RI-MP2 g-tensors                              
  Willem Van den Heuvel  : Paramagnetic NMR                              
  Zikuan Wang            : NOTCH, Electric field optimization            
  Frank Wennmohs         : Technical directorship and infrastructure     
  Hang Xu                : AUTO-CI-Response properties                   
                                                                         
[FACCTs GmbH]                                                            
  Markus Bursch, Nicolas Foglia, Miquel Garcia-Rates, Ingolf Harden, Hagen Neugebauer, Anastasios Papadopoulos, 
  Christoph Riplinger, Bernardo de Souza, Georgi L. Stoychev                                                    
                                                                 
  APM, various basis sets, CI-OPT, improved COSX, DLPNO-Multilevel,           
  DOCKER, DRACO, updates on ESD, Fragmentator, GOAT, IRC, LR-CPCM, L-BFGS, MBIS, meta-GGA TD-DFT gradient, ML-optimized integration grids, 
  MM, NACMEs, nearIR, NEB, NEB-TS, NL-DFT gradient (VV10), 2- and 3-layer-ONIOM, interface openCOSMO-RS, QMMM,   
  Crystal-QMMM, RESP, rigid body optimization, SF, symmetry and pop. for TD-DFT, various functionals, SOLVATOR                                   
                                                                         
[Other institutions]                                                     
  V. Asgeirsson          : NEB                                           
  Christoph Bannwarth    : sTDA-DFT, sTD-DFT, PBEh-3c, B97-3c, D3        
  Giovanni Bistoni       : ETS/NOCV, ADLD/ADEX, COVALED                  
  Martin Brehm           : Molecular dynamics                            
  Ronald Cardenas        : ETS/NOCV                                      
  Martina Colucci        : COVALED                                       
  Sebastian Ehlert       : rSCAN, r2SCAN, r2SCAN-3c, D4, dhf basis sets  
  Marvin Friede          : D4 for Fr, Ra, Ac-Lr                          
  Lars Goerigk           : TD-DFT with DH, B97 family of functionals     
  Stefan Grimme          : VdW corrections, initial TS optimization, DFT functionals, gCP, sTDA/sTD-DF 
  Waldemar Hujo          : DFT-NL                                        
  H. Jonsson             : NEB                                           
  Holger Kruse           : gCP                                           
  Marcel Mueller         : wB97X-3c, vDZP basis set                      
  Hagen Neugebauer       : wr2SCAN, Native XTB                           
  Gianluca Regni         : ADLD/ADEX                                     
  Tobias Risthaus        : pre 6.0 range-separated hybrid DFT and stability analysis
  Lukas Wittmann         : regularized MP2, r2SCAN double-hybrids, wr2SCAN        
                                                                         
We gratefully acknowledge several colleagues who have allowed us to      
interface, adapt or use parts of their codes:                            
  Ed Valeev, F. Pavosevic, A. Kumar             : LibInt (2-el integral package), F12 methods 
  Garnet Chan, S. Sharma, J. Yang, R. Olivares  : DMRG                   
  Ulf Ekstrom                                   : XCFun DFT Library      
  Mihaly Kallay                                 : mrcc  (arbitrary order and MRCC methods)
  Frank Weinhold                                : gennbo (NPA and NBO analysis)           
  Simon Mueller                                 : openCOSMO-RS                            
  Christopher J. Cramer and Donald G. Truhlar   : smd solvation model                     
  S Lehtola, MJT Oliveira, MAL Marques          : LibXC Library                           
  Liviu Ungur et al                             : ANISO software                          


 Your calculation uses the libint2 library for the computation of 2-el integrals
 For citations please refer to: http://libint.valeyev.net

 Your ORCA version has been built with support for libXC version: 7.0.0
 For citations please refer to: https://libxc.gitlab.io

 This ORCA versions uses:
   CBLAS   interface :  Fast vector & matrix operations
   LAPACKE interface :  Fast linear algebra routines
   SCALAPACK package :  Parallel linear algebra routines
   Shared memory     :  Shared parallel matrices
   BLAS/LAPACK       :  OpenBLAS 0.3.29  USE64BITINT DYNAMIC_ARCH NO_AFFINITY Haswell SINGLE_THREADED
        Core in use  :  Haswell
   Copyright (c) 2011-2014, The OpenBLAS Project


  ***********************************
  * Starting time: Sun Jul  5 17:30:35 2026
  * Host name:     steezy
  * Process ID:    1278421
  * Working dir.:  /home/jannes/chlorophyll-ladder/007-mg-core-ladder/mgchlorin/02_tddft/m062x
  ***********************************

NOTE: MaxCore=3000 MB was set to SCF,MP2,MDCI,CIPSI,MRCI,RASCI and CIS
      => If you want to overwrite this, your respective input block should be placed after the MaxCore statement


***************************************
The coordinates will be read from file: /home/jannes/chlorophyll-ladder/007-mg-core-ladder/mgchlorin/01_opt/mgchlorin_opt_b3lypd4_tzvp.xyz
***************************************


XCFun DFT library Copyright 2009-2010 Ulf Ekstrom and contributors.
See http://admol.org/xcfun for more information.
This is free software; see the source code for copying conditions.
There is ABSOLUTELY NO WARRANTY; not even for MERCHANTABILITY or FITNESS FOR A PARTICULAR PURPOSE.
For details see the documentation.
Scientific users of this library should cite U. Ekstrom, L. Visscher, R. Bast, A. J. Thorvaldsen and K. Ruud;
J.Chem.Theor.Comp. 2010, DOI: 10.1021/ct100117s
XCFun Version 0.99 

================================================================================

----- Orbital basis set information -----
Your calculation utilizes the basis: def2-TZVP
   F. Weigend and R. Ahlrichs, Phys. Chem. Chem. Phys. 7, 3297 (2005).

----- AuxJ basis set information -----
Your calculation utilizes the auxiliary basis: def2/J
   H-Rn: F. Weigend, Phys. Chem. Chem. Phys. 8, 1057 (2006).
   Fr-Lr: K. Eichkorn, F. Weigend, O. Treutler, R. Ahlrichs; Theor. Chem. Acc. 97, 119 (1997).

================================================================================
                                        WARNINGS
                       Please study these warnings very carefully!
================================================================================

WARNING: Functional chosen is sensitive to the integration grid.
         DEFGRID3 seems to be a minimum grid for robust results!

WARNING: CIS/ROCIS methods need fully converged wavefunctions
  ===> : Setting SCFConvForced true
         You can overwrite this default with %scf ConvForced false 


================================================================================
                                       INPUT FILE
================================================================================
NAME = tddft.inp
|  1> %pal nprocs 4 end
|  2> %maxcore 3000
|  3> ! M062X def2-TZVP def2/J RIJCOSX DefGrid3 TightSCF
|  4> %tddft
|  5>   nroots 30
|  6>   triplets false
|  7> end
|  8> * xyzfile 0 1 /home/jannes/chlorophyll-ladder/007-mg-core-ladder/mgchlorin/01_opt/mgchlorin_opt_b3lypd4_tzvp.xyz
|  9> 
| 10>                          ****END OF INPUT****
================================================================================

                       ****************************
                       * Single Point Calculation *
                       ****************************

---------------------------------
CARTESIAN COORDINATES (ANGSTROEM)
---------------------------------
  N      1.617376    1.330383    0.004551
  N     -1.306529    1.580997    0.003644
  N      1.276091   -1.584198   -0.002271
  N     -1.612608   -1.304895   -0.003475
  C      2.875203    3.342362   -0.063685
  C      3.840630    2.159068    0.079915
  C      1.509656    2.684377   -0.016153
  C      2.922172    0.953296    0.027878
  C      0.336508    3.400638   -0.015219
  C      3.388460   -0.339731    0.025539
  C     -0.976132    2.896056   -0.002122
  C      2.630796   -1.524412    0.007627
  C     -2.686758    1.511059    0.009704
  C      0.930668   -2.922223   -0.012658
  C     -2.169427    3.701790    0.002039
  C      3.180636   -2.855093    0.001851
  C     -3.225855    2.843438    0.009928
  C      2.127735   -3.717737   -0.011279
  C     -3.426856    0.343504    0.009772
  C     -0.361658   -3.413010   -0.017853
  C     -2.938073   -0.969119    0.002267
  C     -1.549551   -2.670848   -0.012186
  C     -3.737889   -2.157029   -0.002719
  C     -2.873771   -3.216052   -0.012243
  H      3.004410    3.866805   -1.013495
  H      2.986016    4.085160    0.727134
  H      4.377829    2.179169    1.031116
  H      4.592202    2.120440   -0.709370
  H      0.429527    4.479453   -0.029677
  H      4.463992   -0.464803    0.042863
  H     -2.189602    4.780461   -0.001150
  H      4.233282   -3.091377    0.007587
  H     -4.277438    3.085144    0.014504
  H      2.153498   -4.796427   -0.018419
  H     -4.504247    0.454657    0.013550
  H     -0.468513   -4.490823   -0.024516
  H     -4.816548   -2.181344    0.000207
  H     -3.114006   -4.267872   -0.018337
  Mg    -0.018551   -0.004412    0.000625

----------------------------
CARTESIAN COORDINATES (A.U.)
----------------------------
  NO LB      ZA    FRAG     MASS         X           Y           Z
   0 N     7.0000    0    14.007    3.056398    2.514059    0.008600
   1 N     7.0000    0    14.007   -2.468981    2.987652    0.006887
   2 N     7.0000    0    14.007    2.411463   -2.993700   -0.004293
   3 N     7.0000    0    14.007   -3.047387   -2.465895   -0.006567
   4 C     6.0000    0    12.011    5.433346    6.316149   -0.120347
   5 C     6.0000    0    12.011    7.257738    4.080048    0.151018
   6 C     6.0000    0    12.011    2.852836    5.072737   -0.030524
   7 C     6.0000    0    12.011    5.522104    1.801468    0.052683
   8 C     6.0000    0    12.011    0.635908    6.426274   -0.028760
   9 C     6.0000    0    12.011    6.403262   -0.641999    0.048262
  10 C     6.0000    0    12.011   -1.844622    5.472752   -0.004009
  11 C     6.0000    0    12.011    4.971483   -2.880721    0.014414
  12 C     6.0000    0    12.011   -5.077236    2.855488    0.018338
  13 C     6.0000    0    12.011    1.758707   -5.522200   -0.023920
  14 C     6.0000    0    12.011   -4.099623    6.995369    0.003853
  15 C     6.0000    0    12.011    6.010530   -5.395343    0.003498
  16 C     6.0000    0    12.011   -6.095983    5.373319    0.018761
  17 C     6.0000    0    12.011    4.020836   -7.025504   -0.021315
  18 C     6.0000    0    12.011   -6.475819    0.649128    0.018466
  19 C     6.0000    0    12.011   -0.683435   -6.449655   -0.033738
  20 C     6.0000    0    12.011   -5.552153   -1.831369    0.004284
  21 C     6.0000    0    12.011   -2.928227   -5.047171   -0.023027
  22 C     6.0000    0    12.011   -7.063586   -4.076195   -0.005137
  23 C     6.0000    0    12.011   -5.430639   -6.077458   -0.023136
  24 H     1.0000    0     1.008    5.677511    7.307202   -1.915228
  25 H     1.0000    0     1.008    5.642753    7.719833    1.374085
  26 H     1.0000    0     1.008    8.272899    4.118034    1.948527
  27 H     1.0000    0     1.008    8.678005    4.007051   -1.340516
  28 H     1.0000    0     1.008    0.811688    8.464939   -0.056081
  29 H     1.0000    0     1.008    8.435723   -0.878351    0.081000
  30 H     1.0000    0     1.008   -4.137748    9.033761   -0.002174
  31 H     1.0000    0     1.008    7.999744   -5.841856    0.014337
  32 H     1.0000    0     1.008   -8.083187    5.830076    0.027408
  33 H     1.0000    0     1.008    4.069522   -9.063934   -0.034807
  34 H     1.0000    0     1.008   -8.511794    0.859178    0.025605
  35 H     1.0000    0     1.008   -0.885361   -8.486426   -0.046329
  36 H     1.0000    0     1.008   -9.101956   -4.122142    0.000392
  37 H     1.0000    0     1.008   -5.884618   -8.065109   -0.034653
  38 Mg   12.0000    0    24.305   -0.035057   -0.008338    0.001182

--------------------------------
INTERNAL COORDINATES (ANGSTROEM)
--------------------------------
 N      0   0   0     0.000000000000     0.00000000     0.00000000
 N      1   0   0     2.934625567277     0.00000000     0.00000000
 N      1   2   0     2.934502219461    88.22026361     0.00000000
 N      2   1   3     2.902087324163    91.15525092     0.00000000
 C      1   2   3     2.373783144973   117.10066924   178.00775617
 C      5   1   2     1.533901517256    71.15336793   175.74864028
 C      1   2   3     1.358430124362    80.55312792   178.98494255
 C      1   2   3     1.358392392334   168.73866091   354.91154939
 C      7   1   2     1.374520448020   125.94914713     0.55405638
 C      8   1   7     1.374536203187   125.94130379   181.39600351
 C      2   1   3     1.355940334932    80.79598169   180.38241652
 C      3   1   2     1.356059119169    80.79364978   180.38854817
 C      2   1   3     1.382013227933   172.19563123     2.11228019
 C      3   1   2     1.381931604181   172.19772945     2.18695519
 C     11   2   1     1.439853693466   109.92374504   180.32182958
 C     12   3   1     1.439815791155   109.92104971   180.32893451
 C     15  11   2     1.361202173100   106.87870823     0.00000000
 C     16  12   3     1.361222836597   106.87868208     0.00000000
 C     13   2  11     1.382364012124   125.27049495   179.64780351
 C     14   3  12     1.382391454942   125.27124228   179.65348396
 C      4   2   1     1.367346283750    81.83816516   179.76221527
 C      4   2   1     1.367434918034   171.29992091   358.49070100
 C     21   4   2     1.432083165488   109.73552966   179.80925939
 C     23  21   4     1.366865067502   106.83566180   359.97041685
 H      5   1   2     1.092645014934   119.63454595   281.07952700
 H      5   1   2     1.090606617469   127.60927975    70.55922818
 H      6   5   1     1.092598204440   112.13340192   244.83271966
 H      6   5   1     1.090562030620   113.16139441   123.71896896
 H      9   7   1     1.082914591440   116.47481442   179.76700295
 H     10   8   1     1.082918427081   116.45780824   179.78631778
 H     15  11   2     1.078863876263   125.09848097   180.00420488
 H     16  12   3     1.078854659017   125.09944828   180.00572083
 H     17  15  11     1.079013379288   127.96205293   180.02317060
 H     18  16  12     1.079022169130   127.96119491   180.02286464
 H     19  13   2     1.083116608289   116.47961750   180.08384249
 H     20  14   3     1.083117372845   116.45786284   180.08863448
 H     23  21   4     1.078936570721   125.24249032   179.99600471
 H     24  23  21     1.078923308856   127.92239530   180.01162826
 Mg     3   1   2     2.042506205857    46.01341093     0.00000000

---------------------------
INTERNAL COORDINATES (A.U.)
---------------------------
 N      0   0   0     0.000000000000     0.00000000     0.00000000
 N      1   0   0     5.545638627757     0.00000000     0.00000000
 N      1   2   0     5.545405534166    88.22026361     0.00000000
 N      2   1   3     5.484150259393    91.15525092     0.00000000
 C      1   2   3     4.485800045317   117.10066924   178.00775617
 C      5   1   2     2.898653784021    71.15336793   175.74864028
 C      1   2   3     2.567060907114    80.55312792   178.98494255
 C      1   2   3     2.566989603913   168.73866091   354.91154939
 C      7   1   2     2.597467212233   125.94914713     0.55405638
 C      8   1   7     2.597496985183   125.94130379   181.39600351
 C      2   1   3     2.562355886959    80.79598169   180.38241652
 C      3   1   2     2.562580356635    80.79364978   180.38854817
 C      2   1   3     2.611626514250   172.19563123     2.11228019
 C      3   1   2     2.611472267713   172.19772945     2.18695519
 C     11   2   1     2.720929153566   109.92374504   180.32182958
 C     12   3   1     2.720857528579   109.92104971   180.32893451
 C     15  11   2     2.572299320058   106.87870823     0.00000000
 C     16  12   3     2.572338368408   106.87868208     0.00000000
 C     13   2  11     2.612289400304   125.27049495   179.64780351
 C     14   3  12     2.612341259714   125.27124228   179.65348396
 C      4   2   1     2.583910006522    81.83816516   179.76221527
 C      4   2   1     2.584077501046   171.29992091   358.49070100
 C     21   4   2     2.706244983771   109.73552966   179.80925939
 C     23  21   4     2.583000639603   106.83566180   359.97041685
 H      5   1   2     2.064799839820   119.63454595   281.07952700
 H      5   1   2     2.060947826859   127.60927975    70.55922818
 H      6   5   1     2.064711380806   112.13340192   244.83271966
 H      6   5   1     2.060863569926   113.16139441   123.71896896
 H      9   7   1     2.046412004250   116.47481442   179.76700295
 H     10   8   1     2.046419252561   116.45780824   179.78631778
 H     15  11   2     2.038757261919   125.09848097   180.00420488
 H     16  12   3     2.038739843848   125.09944828   180.00572083
 H     17  15  11     2.039039781691   127.96205293   180.02317060
 H     18  16  12     2.039056392086   127.96119491   180.02286464
 H     19  13   2     2.046793760768   116.47961750   180.08384249
 H     20  14   3     2.046795205569   116.45786284   180.08863448
 H     23  21   4     2.038894634535   125.24249032   179.99600471
 H     24  23  21     2.038869573241   127.92239530   180.01162826
 Mg     3   1   2     3.859777355904    46.01341093     0.00000000

---------------------
BASIS SET INFORMATION
---------------------
There are 4 groups of distinct atoms

 Group   1 Type N   : 11s6p2d1f contracted to 5s3p2d1f pattern {62111/411/11/1}
 Group   2 Type C   : 11s6p2d1f contracted to 5s3p2d1f pattern {62111/411/11/1}
 Group   3 Type H   : 5s1p contracted to 3s1p pattern {311/1}
 Group   4 Type Mg  : 14s8p3d contracted to 5s4p3d pattern {73211/5111/111}

Atom   0N    basis set group =>   1
Atom   1N    basis set group =>   1
Atom   2N    basis set group =>   1
Atom   3N    basis set group =>   1
Atom   4C    basis set group =>   2
Atom   5C    basis set group =>   2
Atom   6C    basis set group =>   2
Atom   7C    basis set group =>   2
Atom   8C    basis set group =>   2
Atom   9C    basis set group =>   2
Atom  10C    basis set group =>   2
Atom  11C    basis set group =>   2
Atom  12C    basis set group =>   2
Atom  13C    basis set group =>   2
Atom  14C    basis set group =>   2
Atom  15C    basis set group =>   2
Atom  16C    basis set group =>   2
Atom  17C    basis set group =>   2
Atom  18C    basis set group =>   2
Atom  19C    basis set group =>   2
Atom  20C    basis set group =>   2
Atom  21C    basis set group =>   2
Atom  22C    basis set group =>   2
Atom  23C    basis set group =>   2
Atom  24H    basis set group =>   3
Atom  25H    basis set group =>   3
Atom  26H    basis set group =>   3
Atom  27H    basis set group =>   3
Atom  28H    basis set group =>   3
Atom  29H    basis set group =>   3
Atom  30H    basis set group =>   3
Atom  31H    basis set group =>   3
Atom  32H    basis set group =>   3
Atom  33H    basis set group =>   3
Atom  34H    basis set group =>   3
Atom  35H    basis set group =>   3
Atom  36H    basis set group =>   3
Atom  37H    basis set group =>   3
Atom  38Mg   basis set group =>   4
---------------------------------
AUXILIARY/J BASIS SET INFORMATION
---------------------------------
There are 4 groups of distinct atoms

 Group   1 Type N   : 12s5p4d2f1g contracted to 6s4p3d1f1g pattern {711111/2111/211/2/1}
 Group   2 Type C   : 12s5p4d2f1g contracted to 6s4p3d1f1g pattern {711111/2111/211/2/1}
 Group   3 Type H   : 5s2p1d contracted to 3s1p1d pattern {311/2/1}
 Group   4 Type Mg  : 14s5p5d2f1g contracted to 8s4p4d1f1g pattern {71111111/2111/2111/2/1}

Atom   0N    basis set group =>   1
Atom   1N    basis set group =>   1
Atom   2N    basis set group =>   1
Atom   3N    basis set group =>   1
Atom   4C    basis set group =>   2
Atom   5C    basis set group =>   2
Atom   6C    basis set group =>   2
Atom   7C    basis set group =>   2
Atom   8C    basis set group =>   2
Atom   9C    basis set group =>   2
Atom  10C    basis set group =>   2
Atom  11C    basis set group =>   2
Atom  12C    basis set group =>   2
Atom  13C    basis set group =>   2
Atom  14C    basis set group =>   2
Atom  15C    basis set group =>   2
Atom  16C    basis set group =>   2
Atom  17C    basis set group =>   2
Atom  18C    basis set group =>   2
Atom  19C    basis set group =>   2
Atom  20C    basis set group =>   2
Atom  21C    basis set group =>   2
Atom  22C    basis set group =>   2
Atom  23C    basis set group =>   2
Atom  24H    basis set group =>   3
Atom  25H    basis set group =>   3
Atom  26H    basis set group =>   3
Atom  27H    basis set group =>   3
Atom  28H    basis set group =>   3
Atom  29H    basis set group =>   3
Atom  30H    basis set group =>   3
Atom  31H    basis set group =>   3
Atom  32H    basis set group =>   3
Atom  33H    basis set group =>   3
Atom  34H    basis set group =>   3
Atom  35H    basis set group =>   3
Atom  36H    basis set group =>   3
Atom  37H    basis set group =>   3
Atom  38Mg   basis set group =>   4


           ************************************************************
           *        Program running with 4 parallel MPI-processes     *
           *              working on a common directory               *
           ************************************************************
------------------------------------------------------------------------------
                             ORCA STARTUP CALCULATIONS
                           -- RI-GTO INTEGRALS CHOSEN --
------------------------------------------------------------------------------
------------------------------------------------------------------------------
                   ___                                                        
                  /   \      - P O W E R E D   B Y -                         
                 /     \                                                     
                 |  |  |   _    _      __       _____    __    __             
                 |  |  |  | |  | |    /  \     |  _  \  |  |  /  |          
                  \  \/   | |  | |   /    \    | | | |  |  | /  /          
                 / \  \   | |__| |  /  /\  \   | |_| |  |  |/  /          
                |  |  |   |  __  | /  /__\  \  |    /   |      \           
                |  |  |   | |  | | |   __   |  |    \   |  |\   \          
                \     /   | |  | | |  |  |  |  | |\  \  |  | \   \       
                 \___/    |_|  |_| |__|  |__|  |_| \__\ |__|  \__/        
                                                                              
                      - O R C A' S   B I G   F R I E N D -                    
                                      &                                       
                       - I N T E G R A L  F E E D E R -                       
                                                                              
 v1 FN, 2020, v2 2021, v3 2022-2024                                           
------------------------------------------------------------------------------


----------------------
SHARK INTEGRAL PACKAGE
----------------------

Number of atoms                             ...     39
Number of basis functions                   ...    860
Number of shells                            ...    332
Maximum angular momentum                    ...      3
Integral batch strategy                     ... SHARK/LIBINT Hybrid
RI-J (if used) integral strategy            ... SPLIT-RIJ (Revised 2003 algorithm where possible)
Printlevel                                  ...      1
Contraction scheme used                     ... SEGMENTED contraction
Prescreening option                         ... SCHWARTZ
   Thresh                                   ... 2.500e-11
   Tcut                                     ... 2.500e-12
   Tpresel                                  ... 2.500e-12 
Coulomb Range Separation                    ... NOT USED
Exchange Range Separation                   ... NOT USED
Multipole approximations                    ... NOT USED
Finite Nucleus Model                        ... NOT USED
CABS basis                                  ... NOT available
Auxiliary Coulomb fitting basis             ... AVAILABLE
   # of basis functions in Aux-J            ...   1386
   # of shells in Aux-J                     ...    448
   Maximum angular momentum in Aux-J        ...      4
Auxiliary J/K fitting basis                 ... NOT available
Auxiliary Correlation fitting basis         ... NOT available
Auxiliary 'external' fitting basis          ... NOT available

Checking pre-screening integrals            ... done (  0.0 sec) Dimension = 332
   => SHARK Basis and OBASIS are compatible. Storing Pre-screening
Shell pair information
Shell pair cut-off parameter TPreSel        ...   2.5e-12
Total number of shell pairs                 ...     55278
Shell pairs after pre-screening             ...     38985
Total number of primitive shell pairs       ...    174360
Primitive shell pairs kept                  ...     80636
          la=0 lb=0:   9326 shell pairs
          la=1 lb=0:  11131 shell pairs
          la=1 lb=1:   3288 shell pairs
          la=2 lb=0:   5767 shell pairs
          la=2 lb=1:   3529 shell pairs
          la=2 lb=2:    978 shell pairs
          la=3 lb=0:   2472 shell pairs
          la=3 lb=1:   1540 shell pairs
          la=3 lb=2:    784 shell pairs
          la=3 lb=3:    170 shell pairs

Checking whether 4 symmetric matrices of dimension 860 fit in memory
:Max Core in MB      =   3000.00
 MB in use           =     50.97
 MB left             =   2949.03
 MB needed           =     11.30
 Data fit in memory  = YES
Calculating RI/J V-Matrix + Cholesky decomp.... done (  1.0 sec)
Calculating Nuclear repulsion               ... done (  0.0 sec) ENN=   2155.857692955848 Eh

Diagonalization of the overlap matrix:
Smallest eigenvalue                        ... 1.000e-05
Time for diagonalization                   ...    0.240 sec
Threshold for overlap eigenvalues          ... 1.000e-07
Number of eigenvalues below threshold      ... 0
Time for construction of square roots      ...    0.114 sec
Total time needed                          ...    0.365 sec

-------------------
DFT GRID GENERATION
-------------------

General Integration Accuracy     IntAcc      ... 4.959
Radial Grid Type                 RadialGrid  ... OptM3 with GC (2021)
Angular Grid (max. ang.)         AngularGrid ... 6 (Lebedev-590)
Angular grid pruning method      GridPruning ... 4 (adaptive)
Weight generation scheme         WeightScheme... mBecke (2022)
Basis function cutoff            BFCut       ... 1.0000e-11
Integration weight cutoff        WCut        ... 1.0000e-14
Partially contracted basis set               ... off
Rotationally invariant grid construction     ... off
Angular grids for H and He will be reduced by one unit

Total number of grid points                  ...   473102
Total number of batches                      ...     7410
Average number of points per batch           ...       63
Average number of grid points per atom       ...    12131

--------------------
COSX GRID GENERATION
--------------------

GRIDX 1
-------
General Integration Accuracy     IntAcc      ... 4.020
Radial Grid Type                 RadialGrid  ... OptM3 with GC (2021)
Angular Grid (max. ang.)         AngularGrid ... 2 (Lebedev-110)
Angular grid pruning method      GridPruning ... 4 (adaptive)
Weight generation scheme         WeightScheme... mBecke (2022)
Basis function cutoff            BFCut       ... 1.0000e-11
Integration weight cutoff        WCut        ... 1.0000e-14
Partially contracted basis set               ... on
Rotationally invariant grid construction     ... off
Angular grids for H and He will be reduced by one unit

Total number of grid points                  ...    54054
Total number of batches                      ...      445
Average number of points per batch           ...      121
Average number of grid points per atom       ...     1386
UseSFitting                                  ... on

GRIDX 2
-------
General Integration Accuracy     IntAcc      ... 4.338
Radial Grid Type                 RadialGrid  ... OptM3 with GC (2021)
Angular Grid (max. ang.)         AngularGrid ... 3 (Lebedev-194)
Angular grid pruning method      GridPruning ... 4 (adaptive)
Weight generation scheme         WeightScheme... mBecke (2022)
Basis function cutoff            BFCut       ... 1.0000e-11
Integration weight cutoff        WCut        ... 1.0000e-14
Partially contracted basis set               ... on
Rotationally invariant grid construction     ... off
Angular grids for H and He will be reduced by one unit

Total number of grid points                  ...   119051
Total number of batches                      ...      950
Average number of points per batch           ...      125
Average number of grid points per atom       ...     3053
UseSFitting                                  ... on

GRIDX 3
-------
General Integration Accuracy     IntAcc      ... 4.871
Radial Grid Type                 RadialGrid  ... OptM3 with GC (2021)
Angular Grid (max. ang.)         AngularGrid ... 4 (Lebedev-302)
Angular grid pruning method      GridPruning ... 4 (adaptive)
Weight generation scheme         WeightScheme... mBecke (2022)
Basis function cutoff            BFCut       ... 1.0000e-11
Integration weight cutoff        WCut        ... 1.0000e-14
Partially contracted basis set               ... on
Rotationally invariant grid construction     ... off
Angular grids for H and He will be reduced by one unit

Total number of grid points                  ...   219016
Total number of batches                      ...     1726
Average number of points per batch           ...      126
Average number of grid points per atom       ...     5616
UseSFitting                                  ... on
Grids setup in  21.1 sec
Initializing property integral containers    ... done (  0.0 sec)

SHARK setup successfully completed in  25.7 seconds

Maximum memory used throughout the entire STARTUP-calculation: 154.4 MB


           ************************************************************
           *        Program running with 4 parallel MPI-processes     *
           *              working on a common directory               *
           ************************************************************
-------------------------------------------------------------------------------
                                 ORCA GUESS
                   Start orbitals & Density for SCF / CASSCF
-------------------------------------------------------------------------------

------------
SCF SETTINGS
------------
Hamiltonian:
 Density Functional     Method          .... DFT(GTOs)
 Exchange Functional    Exchange        .... M062X
 Correlation Functional Correlation     .... M062X
 Gradients option       PostSCFGGA      .... off
 Hybrid DFT is turned on
   Fraction HF Exchange ScalHFX         ....  0.540000
   Scaling of DF-GGA-X  ScalDFX         ....  0.460000
   Scaling of DF-GGA-C  ScalDFC         ....  1.000000
   Scaling of DF-LDA-C  ScalLDAC        ....  1.000000
   Perturbative correction              ....  0.000000
 RI-approximation to the Coulomb term is turned on
   Number of AuxJ basis functions       .... 1386
   RIJ-COSX (HFX calculated with COS-X)).... on


General Settings:
 Integral files         IntName         .... tddft
 Hartree-Fock type      HFTyp           .... RHF
 Total Charge           Charge          ....    0
 Multiplicity           Mult            ....    1
 Number of Electrons    NEL             ....  174
 Basis Dimension        Dim             ....  860
 Nuclear Repulsion      ENuc            ....   2155.8576929558 Eh

Convergence Acceleration:
 AO-DIIS                CNVDIIS         .... on
   Start iteration      DIISMaxIt       ....    12
   Startup error        DIISStart       ....  0.200000
   # of expansion vecs  DIISMaxEq       ....     5
   Bias factor          DIISBfac        ....   1.050
   Max. coefficient     DIISMaxC        ....  10.000
 MO-DIIS                CNVKDIIS        .... off
 Trust-Rad. Augm. Hess. CNVTRAH         .... auto
   Auto Start mean grad. ratio tolernc. ....  1.125000
   Auto Start start iteration           ....    50
   Auto Start num. interpolation iter.  ....    10
   Max. Number of Micro iterations      ....    24
   Max. Number of Macro iterations      .... Maxiter - #DIIS iter
   Number of Davidson start vectors     ....     2
   Converg. threshold    (grad. norm)   ....   1.000e-05
   Grad. Scal. Fac. for Micro threshold ....   0.100
   Minimum threshold for Micro iter.    ....   1.000e-02
   NR start threshold (gradient norm)   ....   1.000e-04
   Initial trust radius                 ....   0.400
   Minimum AH scaling param. (alpha)    ....   1.000
   Maximum AH scaling param. (alpha)    .... 1000.000
   Quad. conv. algorithm                .... NR
   White noise on init. David. guess    .... on
   Maximum white noise                  ....   0.010
   Pseudo random numbers                .... off
   Inactive MOs                         .... canonical
   Orbital update algorithm             .... Taylor
   Preconditioner                       .... Diag
   Full preconditioner red. dimension   ....   250
 SOSCF                 CNVSOSCF           .... on
   Start iteration     SOSCFMaxIt         ....   150
   Startup grad/error  SOSCFStart         ....  0.003300
   Hessian update      SOSCFHessUp        .... L-BFGS
   Autom. constraints  SOSCFAutoConstrain .... off
 Level Shifting         CNVShift        .... on
   Level shift para.    LevelShift      ....    0.2500
   Turn off err/grad.   ShiftErr        ....    0.0010
 Zerner damping         CNVZerner       .... off
 Static damping         CNVDamp         .... on
   Fraction old density DampFac         ....    0.7000
   Max. Damping (<1)    DampMax         ....    0.9800
   Min. Damping (>=0)   DampMin         ....    0.0000
   Turn off err/grad.   DampErr         ....    0.1000

SCF Procedure:
 Maximum # iterations   MaxIter         ....   125
 SCF integral mode      SCFMode         .... Direct
   Integral package                     .... SHARK and LIBINT hybrid scheme
 Reset frequency        DirectResetFreq ....    20
 Integral Threshold     Thresh          ....  2.500e-11 Eh
 Primitive CutOff       TCut            ....  2.500e-12 Eh

Convergence Tolerance:
 Convergence Check Mode ConvCheckMode   .... Total+1el-Energy
 Convergence forced     ConvForced      .... 1
 Energy Change          TolE            ....  1.000e-08 Eh
 1-El. energy change                    ....  1.000e-05 Eh
 Orbital Gradient       TolG            ....  1.000e-05
 Orbital Rotation angle TolX            ....  1.000e-05
 DIIS Error             TolErr          ....  5.000e-07

------------------------------
INITIAL GUESS: MODEL POTENTIAL
------------------------------
Loading Hartree-Fock densities                     ... done
Calculating cut-offs                               ... done
Initializing the effective Hamiltonian             ... done
Setting up the integral package (SHARK)            ... done
Starting the Coulomb interaction                   ... done (   3.9 sec)
Making the grid                                    ... done (   1.5 sec)
Mapping shells                                     ... done
Starting the XC term evaluation                    ... done (   2.1 sec)
  promolecular density results
     # of electrons  =    173.997675708
     EX              =   -148.716356810
     EC              =     -5.920044363
     EX+EC           =   -154.636401173
Transforming the Hamiltonian                       ... done (   0.2 sec)
Diagonalizing the Hamiltonian                      ... done (   0.4 sec)
Back transforming the eigenvectors                 ... done (   0.1 sec)
Now organizing SCF variables                       ... done
                      ------------------
                      INITIAL GUESS DONE (   8.4 sec)
                      ------------------
             **** ENERGY FILE WAS UPDATED (tddft.en.tmp) ****
Finished Guess after   9.6 sec
Maximum memory used throughout the entire GUESS-calculation: 86.1 MB


           ************************************************************
           *        Program running with 4 parallel MPI-processes     *
           *              working on a common directory               *
           ************************************************************

-------------------------------------------------------------------------------------------
                                      ORCA LEAN-SCF
                              memory conserving SCF solver
-------------------------------------------------------------------------------------------

----------------------------------------D-I-I-S--------------------------------------------
Iteration    Energy (Eh)           Delta-E    RMSDP     MaxDP     DIISErr   Damp  Time(sec)
-------------------------------------------------------------------------------------------
               ***  Starting incremental Fock matrix formation  ***
    1    -1189.1262845091305280     0.00e+00  2.40e-03  5.25e-02  2.35e-01  0.700 156.5
    2    -1189.3822312515144404    -2.56e-01  1.94e-03  4.58e-02  1.24e-01  0.700  76.6
                               ***Turning on AO-DIIS***
    3    -1189.5075607533640323    -1.25e-01  1.31e-03  3.28e-02  5.39e-02  0.700  74.4
    4    -1189.5817358300473643    -7.42e-02  3.03e-03  7.26e-02  3.73e-02  0.000  79.4
    5    -1189.7398306604845857    -1.58e-01  2.22e-04  4.30e-03  4.50e-03  0.000  88.6
                              *** Initializing SOSCF ***
---------------------------------------S-O-S-C-F--------------------------------------
Iteration    Energy (Eh)           Delta-E    RMSDP     MaxDP     MaxGrad    Time(sec)
--------------------------------------------------------------------------------------
    6    -1189.7403335751432678    -5.03e-04  9.17e-05  1.57e-03  2.21e-03    79.7
               *** Restarting incremental Fock matrix formation ***
    7    -1189.7404266478602040    -9.31e-05  6.83e-05  1.26e-03  9.31e-04   157.7
    8    -1189.7404642088613400    -3.76e-05  6.39e-05  1.07e-03  4.41e-04   113.4
    9    -1189.7404730777316217    -8.87e-06  2.92e-05  4.67e-04  4.05e-04   101.3
   10    -1189.7404787651025799    -5.69e-06  1.06e-05  2.35e-04  1.76e-04   134.7
   11    -1189.7404792293641549    -4.64e-07  4.36e-06  6.79e-05  9.22e-05   109.5
   12    -1189.7404796320392961    -4.03e-07  2.67e-06  7.82e-05  4.52e-05   104.8
   13    -1189.7404796639762026    -3.19e-08  1.34e-06  4.73e-05  1.91e-05    94.8
   14    -1189.7404797149124533    -5.09e-08  1.28e-06  3.43e-05  6.15e-06    77.7
   15    -1189.7404797102435623     4.67e-09  9.20e-07  1.82e-05  2.67e-06    68.1
                 **** Energy Check signals convergence ****

               *****************************************************
               *                     SUCCESS                       *
               *           SCF CONVERGED AFTER  15 CYCLES          *
               *****************************************************

Recomputing exchange energy using gridx3       ... done (  215.872 sec)
Old exchange energy                            :    -81.779722291 Eh
New exchange energy                            :    -81.779719248 Eh
Exchange energy change after final integration :      0.000003043 Eh
Total energy after final integration           :  -1189.740476665 Eh
             **** ENERGY FILE WAS UPDATED (tddft.en.tmp) ****

----------------
TOTAL SCF ENERGY
----------------

Total Energy       :      -1189.74047666492788 Eh          -32374.48426 eV

Components:
Nuclear Repulsion  :       2155.85769295584805 Eh           58663.87024 eV
Electronic Energy  :      -3345.59817266420259 Eh          -91038.35458 eV
One Electron Energy:      -5907.48391455995170 Eh         -160750.80973 eV
Two Electron Energy:       2561.88574189574911 Eh           69712.45515 eV

Virial components:
Potential Energy   :      -2373.76717322200284 Eh          -64593.48865 eV
Kinetic Energy     :       1184.02669655707496 Eh           32219.00440 eV
Virial Ratio       :          2.00482571898460

DFT components:
N(Alpha)           :       86.999986784007 electrons
N(Beta)            :       86.999986784007 electrons
N(Total)           :      173.999973568014 electrons
E(XC)              :      -76.134924939418 Eh       

---------------
SCF CONVERGENCE
---------------

  Last Energy change         ...   -4.6689e-09  Tolerance :   1.0000e-08
  Last MAX-Density change    ...    1.8249e-05  Tolerance :   1.0000e-07
  Last RMS-Density change    ...    9.2046e-07  Tolerance :   5.0000e-09
  Last DIIS Error            ...    2.2100e-03  Tolerance :   5.0000e-07
  Last Orbital Gradient      ...    2.6713e-06  Tolerance :   1.0000e-05
  Last Orbital Rotation      ...    1.7464e-05  Tolerance :   1.0000e-05


----------------
ORBITAL ENERGIES
----------------

  NO   OCC          E(Eh)            E(eV) 
   0   2.0000     -47.516121     -1292.9794 
   1   2.0000     -14.759271      -401.6202 
   2   2.0000     -14.736134      -400.9906 
   3   2.0000     -14.736113      -400.9900 
   4   2.0000     -14.735891      -400.9840 
   5   2.0000     -10.588022      -288.1147 
   6   2.0000     -10.587988      -288.1138 
   7   2.0000     -10.577427      -287.8264 
   8   2.0000     -10.577424      -287.8263 
   9   2.0000     -10.567268      -287.5500 
  10   2.0000     -10.567248      -287.5494 
  11   2.0000     -10.565045      -287.4895 
  12   2.0000     -10.565009      -287.4885 
  13   2.0000     -10.550945      -287.1058 
  14   2.0000     -10.550941      -287.1057 
  15   2.0000     -10.550412      -287.0913 
  16   2.0000     -10.550048      -287.0814 
  17   2.0000     -10.540597      -286.8242 
  18   2.0000     -10.540587      -286.8240 
  19   2.0000     -10.535172      -286.6766 
  20   2.0000     -10.535166      -286.6764 
  21   2.0000     -10.533155      -286.6217 
  22   2.0000     -10.533152      -286.6216 
  23   2.0000     -10.532171      -286.5949 
  24   2.0000     -10.531247      -286.5698 
  25   2.0000      -3.270927       -89.0064 
  26   2.0000      -1.966164       -53.5020 
  27   2.0000      -1.962350       -53.3983 
  28   2.0000      -1.962141       -53.3926 
  29   2.0000      -1.073537       -29.2124 
  30   2.0000      -1.062758       -28.9191 
  31   2.0000      -1.061215       -28.8771 
  32   2.0000      -1.050871       -28.5956 
  33   2.0000      -0.915024       -24.8991 
  34   2.0000      -0.887608       -24.1530 
  35   2.0000      -0.883661       -24.0456 
  36   2.0000      -0.876076       -23.8393 
  37   2.0000      -0.861713       -23.4484 
  38   2.0000      -0.859724       -23.3943 
  39   2.0000      -0.852709       -23.2034 
  40   2.0000      -0.829046       -22.5595 
  41   2.0000      -0.809297       -22.0221 
  42   2.0000      -0.745724       -20.2922 
  43   2.0000      -0.738513       -20.0960 
  44   2.0000      -0.697063       -18.9680 
  45   2.0000      -0.660569       -17.9750 
  46   2.0000      -0.650477       -17.7004 
  47   2.0000      -0.648595       -17.6492 
  48   2.0000      -0.646513       -17.5925 
  49   2.0000      -0.628188       -17.0939 
  50   2.0000      -0.614618       -16.7246 
  51   2.0000      -0.597964       -16.2714 
  52   2.0000      -0.591840       -16.1048 
  53   2.0000      -0.578224       -15.7343 
  54   2.0000      -0.571145       -15.5417 
  55   2.0000      -0.561947       -15.2914 
  56   2.0000      -0.555717       -15.1218 
  57   2.0000      -0.510811       -13.8999 
  58   2.0000      -0.501442       -13.6449 
  59   2.0000      -0.496781       -13.5181 
  60   2.0000      -0.486913       -13.2496 
  61   2.0000      -0.486154       -13.2289 
  62   2.0000      -0.481117       -13.0919 
  63   2.0000      -0.472831       -12.8664 
  64   2.0000      -0.472158       -12.8481 
  65   2.0000      -0.470354       -12.7990 
  66   2.0000      -0.451606       -12.2888 
  67   2.0000      -0.449644       -12.2354 
  68   2.0000      -0.447908       -12.1882 
  69   2.0000      -0.436247       -11.8709 
  70   2.0000      -0.435563       -11.8523 
  71   2.0000      -0.430062       -11.7026 
  72   2.0000      -0.430056       -11.7024 
  73   2.0000      -0.427817       -11.6415 
  74   2.0000      -0.425794       -11.5864 
  75   2.0000      -0.419131       -11.4051 
  76   2.0000      -0.378167       -10.2905 
  77   2.0000      -0.377925       -10.2839 
  78   2.0000      -0.376434       -10.2433 
  79   2.0000      -0.348489        -9.4829 
  80   2.0000      -0.332312        -9.0427 
  81   2.0000      -0.324233        -8.8228 
  82   2.0000      -0.312677        -8.5084 
  83   2.0000      -0.302917        -8.2428 
  84   2.0000      -0.298521        -8.1232 
  85   2.0000      -0.236796        -6.4436 
  86   2.0000      -0.218695        -5.9510 
  87   0.0000      -0.070647        -1.9224 
  88   0.0000      -0.045333        -1.2336 
  89   0.0000       0.021189         0.5766 
  90   0.0000       0.033762         0.9187 
  91   0.0000       0.044105         1.2002 
  92   0.0000       0.064851         1.7647 
  93   0.0000       0.064860         1.7649 
  94   0.0000       0.080610         2.1935 
  95   0.0000       0.087803         2.3892 
  96   0.0000       0.089514         2.4358 
  97   0.0000       0.092422         2.5149 
*Only the first 10 virtual orbitals were printed.

                    ********************************
                    * MULLIKEN POPULATION ANALYSIS *
                    ********************************

-----------------------
MULLIKEN ATOMIC CHARGES
-----------------------
   0 N :   -0.401846
   1 N :   -0.431522
   2 N :   -0.431011
   3 N :   -0.422696
   4 C :   -0.310567
   5 C :   -0.310705
   6 C :    0.206614
   7 C :    0.205514
   8 C :   -0.294172
   9 C :   -0.292058
  10 C :    0.255227
  11 C :    0.253552
  12 C :    0.224255
  13 C :    0.224564
  14 C :   -0.210311
  15 C :   -0.210053
  16 C :   -0.203885
  17 C :   -0.204272
  18 C :   -0.247552
  19 C :   -0.247877
  20 C :    0.226001
  21 C :    0.226504
  22 C :   -0.210391
  23 C :   -0.210151
  24 H :    0.154078
  25 H :    0.157276
  26 H :    0.154135
  27 H :    0.157318
  28 H :    0.144705
  29 H :    0.144822
  30 H :    0.144160
  31 H :    0.144099
  32 H :    0.145552
  33 H :    0.145617
  34 H :    0.147214
  35 H :    0.147211
  36 H :    0.142327
  37 H :    0.142257
  38 Mg:    0.746067
Sum of atomic charges:    0.0000000

--------------------------------
MULLIKEN REDUCED ORBITAL CHARGES
--------------------------------
  0 N s       :     3.674322  s :     3.674322
      pz      :     1.311870  p :     3.672793
      px      :     1.210829
      py      :     1.150094
      dz2     :     0.003853  d :     0.051276
      dxz     :     0.009038
      dyz     :     0.010505
      dx2y2   :     0.014570
      dxy     :     0.013310
      f0      :     0.000682  f :     0.003455
      f+1     :     0.000363
      f-1     :     0.000397
      f+2     :     0.000422
      f-2     :     0.000109
      f+3     :     0.000809
      f-3     :     0.000674

  1 N s       :     3.684961  s :     3.684961
      pz      :     1.383890  p :     3.692853
      px      :     1.134271
      py      :     1.174692
      dz2     :     0.004185  d :     0.050192
      dxz     :     0.009798
      dyz     :     0.008987
      dx2y2   :     0.014090
      dxy     :     0.013132
      f0      :     0.000718  f :     0.003516
      f+1     :     0.000442
      f-1     :     0.000403
      f+2     :     0.000506
      f-2     :     0.000087
      f+3     :     0.000650
      f-3     :     0.000710

  2 N s       :     3.684775  s :     3.684775
      pz      :     1.383896  p :     3.692537
      px      :     1.125070
      py      :     1.183572
      dz2     :     0.004185  d :     0.050183
      dxz     :     0.010546
      dyz     :     0.008239
      dx2y2   :     0.013807
      dxy     :     0.013405
      f0      :     0.000718  f :     0.003516
      f+1     :     0.000432
      f-1     :     0.000413
      f+2     :     0.000497
      f-2     :     0.000096
      f+3     :     0.000608
      f-3     :     0.000752

  3 N s       :     3.683894  s :     3.683894
      pz      :     1.358135  p :     3.683343
      px      :     1.187797
      py      :     1.137411
      dz2     :     0.004196  d :     0.051914
      dxz     :     0.009257
      dyz     :     0.011085
      dx2y2   :     0.014024
      dxy     :     0.013352
      f0      :     0.000707  f :     0.003545
      f+1     :     0.000400
      f-1     :     0.000428
      f+2     :     0.000555
      f-2     :     0.000092
      f+3     :     0.000732
      f-3     :     0.000632

  4 C s       :     3.298444  s :     3.298444
      pz      :     1.083348  p :     2.933738
      px      :     0.896222
      py      :     0.954168
      dz2     :     0.004233  d :     0.073342
      dxz     :     0.015942
      dyz     :     0.015094
      dx2y2   :     0.022104
      dxy     :     0.015969
      f0      :     0.000513  f :     0.005042
      f+1     :     0.000324
      f-1     :     0.000907
      f+2     :     0.000464
      f-2     :     0.000675
      f+3     :     0.001029
      f-3     :     0.001130

  5 C s       :     3.298864  s :     3.298864
      pz      :     1.083470  p :     2.933508
      px      :     0.952442
      py      :     0.897596
      dz2     :     0.004255  d :     0.073293
      dxz     :     0.014740
      dyz     :     0.016241
      dx2y2   :     0.020652
      dxy     :     0.017406
      f0      :     0.000515  f :     0.005040
      f+1     :     0.000923
      f-1     :     0.000306
      f+2     :     0.000452
      f-2     :     0.000686
      f+3     :     0.000837
      f-3     :     0.001322

  6 C s       :     3.145874  s :     3.145874
      pz      :     0.866652  p :     2.505178
      px      :     0.890823
      py      :     0.747704
      dz2     :     0.001451  d :     0.129762
      dxz     :     0.026603
      dyz     :     0.039072
      dx2y2   :     0.031771
      dxy     :     0.030865
      f0      :     0.001820  f :     0.012572
      f+1     :     0.000908
      f-1     :     0.001182
      f+2     :     0.001551
      f-2     :     0.001005
      f+3     :     0.004507
      f-3     :     0.001600

  7 C s       :     3.146323  s :     3.146323
      pz      :     0.866596  p :     2.505887
      px      :     0.738640
      py      :     0.900651
      dz2     :     0.001471  d :     0.129705
      dxz     :     0.033969
      dyz     :     0.031694
      dx2y2   :     0.035128
      dxy     :     0.027443
      f0      :     0.001820  f :     0.012571
      f+1     :     0.001157
      f-1     :     0.000933
      f+2     :     0.001317
      f-2     :     0.001238
      f+3     :     0.002902
      f-3     :     0.003203

  8 C s       :     3.139356  s :     3.139356
      pz      :     1.106837  p :     3.098562
      px      :     0.908222
      py      :     1.083503
      dz2     :     0.004071  d :     0.049525
      dxz     :     0.022867
      dyz     :     0.003045
      dx2y2   :     0.010237
      dxy     :     0.009305
      f0      :     0.001370  f :     0.006729
      f+1     :     0.000883
      f-1     :     0.000756
      f+2     :     0.000394
      f-2     :     0.000621
      f+3     :     0.001708
      f-3     :     0.000997

  9 C s       :     3.137872  s :     3.137872
      pz      :     1.106747  p :     3.097917
      px      :     1.081178
      py      :     0.909991
      dz2     :     0.004071  d :     0.049540
      dxz     :     0.002972
      dyz     :     0.022938
      dx2y2   :     0.010355
      dxy     :     0.009204
      f0      :     0.001370  f :     0.006729
      f+1     :     0.000772
      f-1     :     0.000868
      f+2     :     0.000431
      f-2     :     0.000583
      f+3     :     0.001103
      f-3     :     0.001602

 10 C s       :     3.136162  s :     3.136162
      pz      :     0.866861  p :     2.469234
      px      :     0.856095
      py      :     0.746278
      dz2     :     0.002518  d :     0.126312
      dxz     :     0.034678
      dyz     :     0.036676
      dx2y2   :     0.028246
      dxy     :     0.024194
      f0      :     0.001986  f :     0.013064
      f+1     :     0.001043
      f-1     :     0.001179
      f+2     :     0.001697
      f-2     :     0.000988
      f+3     :     0.003562
      f-3     :     0.002608

 11 C s       :     3.137012  s :     3.137012
      pz      :     0.866832  p :     2.470167
      px      :     0.749112
      py      :     0.854222
      dz2     :     0.002527  d :     0.126211
      dxz     :     0.038874
      dyz     :     0.032439
      dx2y2   :     0.026060
      dxy     :     0.026311
      f0      :     0.001985  f :     0.013059
      f+1     :     0.001233
      f-1     :     0.000989
      f+2     :     0.002099
      f-2     :     0.000585
      f+3     :     0.001579
      f-3     :     0.004589

 12 C s       :     3.124795  s :     3.124795
      pz      :     0.941325  p :     2.523345
      px      :     0.736133
      py      :     0.845887
      dz2     :     0.002730  d :     0.114778
      dxz     :     0.036502
      dyz     :     0.028248
      dx2y2   :     0.024934
      dxy     :     0.022362
      f0      :     0.002102  f :     0.012828
      f+1     :     0.001229
      f-1     :     0.000997
      f+2     :     0.002015
      f-2     :     0.000495
      f+3     :     0.001483
      f-3     :     0.004506

 13 C s       :     3.124118  s :     3.124118
      pz      :     0.941359  p :     2.523707
      px      :     0.845435
      py      :     0.736913
      dz2     :     0.002709  d :     0.114779
      dxz     :     0.029909
      dyz     :     0.034853
      dx2y2   :     0.026356
      dxy     :     0.020951
      f0      :     0.002103  f :     0.012831
      f+1     :     0.001041
      f-1     :     0.001187
      f+2     :     0.001566
      f-2     :     0.000946
      f+3     :     0.003497
      f-3     :     0.002492

 14 C s       :     3.209998  s :     3.209998
      pz      :     1.022213  p :     2.931238
      px      :     0.900269
      py      :     1.008757
      dz2     :     0.005309  d :     0.062084
      dxz     :     0.020120
      dyz     :     0.007094
      dx2y2   :     0.015902
      dxy     :     0.013659
      f0      :     0.001355  f :     0.006990
      f+1     :     0.000596
      f-1     :     0.000992
      f+2     :     0.000058
      f-2     :     0.001068
      f+3     :     0.001800
      f-3     :     0.001122

 15 C s       :     3.209780  s :     3.209780
      pz      :     1.022235  p :     2.931202
      px      :     1.012372
      py      :     0.896594
      dz2     :     0.005312  d :     0.062082
      dxz     :     0.008620
      dyz     :     0.018596
      dx2y2   :     0.019565
      dxy     :     0.009988
      f0      :     0.001354  f :     0.006989
      f+1     :     0.000949
      f-1     :     0.000640
      f+2     :     0.000325
      f-2     :     0.000801
      f+3     :     0.001619
      f-3     :     0.001301

 16 C s       :     3.227150  s :     3.227150
      pz      :     0.978344  p :     2.903937
      px      :     1.020680
      py      :     0.904912
      dz2     :     0.005243  d :     0.065807
      dxz     :     0.009254
      dyz     :     0.022729
      dx2y2   :     0.018605
      dxy     :     0.009976
      f0      :     0.001286  f :     0.006991
      f+1     :     0.000921
      f-1     :     0.000617
      f+2     :     0.000427
      f-2     :     0.000806
      f+3     :     0.001648
      f-3     :     0.001286

 17 C s       :     3.227449  s :     3.227449
      pz      :     0.978346  p :     2.904011
      px      :     0.907609
      py      :     1.018056
      dz2     :     0.005247  d :     0.065820
      dxz     :     0.024914
      dyz     :     0.007066
      dx2y2   :     0.014957
      dxy     :     0.013637
      f0      :     0.001286  f :     0.006992
      f+1     :     0.000575
      f-1     :     0.000964
      f+2     :     0.000090
      f-2     :     0.001143
      f+3     :     0.001792
      f-3     :     0.001142

 18 C s       :     3.159953  s :     3.159953
      pz      :     0.976737  p :     3.017725
      px      :     1.096356
      py      :     0.944632
      dz2     :     0.004299  d :     0.063446
      dxz     :     0.002885
      dyz     :     0.031818
      dx2y2   :     0.012976
      dxy     :     0.011467
      f0      :     0.001129  f :     0.006428
      f+1     :     0.000668
      f-1     :     0.000816
      f+2     :     0.000388
      f-2     :     0.000626
      f+3     :     0.001114
      f-3     :     0.001687

 19 C s       :     3.160186  s :     3.160186
      pz      :     0.976713  p :     3.017818
      px      :     0.943801
      py      :     1.097304
      dz2     :     0.004300  d :     0.063446
      dxz     :     0.031787
      dyz     :     0.002918
      dx2y2   :     0.012464
      dxy     :     0.011977
      f0      :     0.001129  f :     0.006428
      f+1     :     0.000808
      f-1     :     0.000676
      f+2     :     0.000403
      f-2     :     0.000611
      f+3     :     0.001671
      f-3     :     0.001131

 20 C s       :     3.124717  s :     3.124717
      pz      :     0.937898  p :     2.520478
      px      :     0.745233
      py      :     0.837346
      dz2     :     0.002750  d :     0.115843
      dxz     :     0.034739
      dyz     :     0.029342
      dx2y2   :     0.027034
      dxy     :     0.021978
      f0      :     0.002086  f :     0.012961
      f+1     :     0.001202
      f-1     :     0.001077
      f+2     :     0.001566
      f-2     :     0.000965
      f+3     :     0.002542
      f-3     :     0.003523

 21 C s       :     3.125159  s :     3.125159
      pz      :     0.937892  p :     2.519561
      px      :     0.838317
      py      :     0.743352
      dz2     :     0.002770  d :     0.115819
      dxz     :     0.028717
      dyz     :     0.035343
      dx2y2   :     0.024660
      dxy     :     0.024328
      f0      :     0.002085  f :     0.012957
      f+1     :     0.001022
      f-1     :     0.001255
      f+2     :     0.002024
      f-2     :     0.000505
      f+3     :     0.004571
      f-3     :     0.001495

 22 C s       :     3.214264  s :     3.214264
      pz      :     1.011070  p :     2.924550
      px      :     1.010158
      py      :     0.903322
      dz2     :     0.005376  d :     0.064488
      dxz     :     0.006888
      dyz     :     0.023472
      dx2y2   :     0.015252
      dxy     :     0.013500
      f0      :     0.001339  f :     0.007088
      f+1     :     0.000994
      f-1     :     0.000596
      f+2     :     0.000068
      f-2     :     0.001181
      f+3     :     0.001112
      f-3     :     0.001798

 23 C s       :     3.214212  s :     3.214212
      pz      :     1.011062  p :     2.924364
      px      :     0.900141
      py      :     1.013161
      dz2     :     0.005376  d :     0.064488
      dxz     :     0.021631
      dyz     :     0.008735
      dx2y2   :     0.018728
      dxy     :     0.010018
      f0      :     0.001339  f :     0.007087
      f+1     :     0.000634
      f-1     :     0.000955
      f+2     :     0.000387
      f-2     :     0.000862
      f+3     :     0.001313
      f-3     :     0.001596

 24 H s       :     0.826331  s :     0.826331
      pz      :     0.009916  p :     0.019590
      px      :     0.003724
      py      :     0.005950

 25 H s       :     0.823215  s :     0.823215
      pz      :     0.007851  p :     0.019509
      px      :     0.003712
      py      :     0.007946

 26 H s       :     0.826274  s :     0.826274
      pz      :     0.009935  p :     0.019591
      px      :     0.006076
      py      :     0.003580

 27 H s       :     0.823168  s :     0.823168
      pz      :     0.007835  p :     0.019514
      px      :     0.008064
      py      :     0.003615

 28 H s       :     0.834639  s :     0.834639
      pz      :     0.004988  p :     0.020656
      px      :     0.002761
      py      :     0.012907

 29 H s       :     0.834524  s :     0.834524
      pz      :     0.004988  p :     0.020654
      px      :     0.012859
      py      :     0.002807

 30 H s       :     0.835546  s :     0.835546
      pz      :     0.004200  p :     0.020294
      px      :     0.002804
      py      :     0.013290

 31 H s       :     0.835609  s :     0.835609
      pz      :     0.004201  p :     0.020292
      px      :     0.012728
      py      :     0.003363

 32 H s       :     0.834251  s :     0.834251
      pz      :     0.003958  p :     0.020197
      px      :     0.012819
      py      :     0.003420

 33 H s       :     0.834184  s :     0.834184
      pz      :     0.003958  p :     0.020199
      px      :     0.002840
      py      :     0.013401

 34 H s       :     0.832311  s :     0.832311
      pz      :     0.004231  p :     0.020475
      px      :     0.013384
      py      :     0.002860

 35 H s       :     0.832314  s :     0.832314
      pz      :     0.004232  p :     0.020475
      px      :     0.002840
      py      :     0.013404

 36 H s       :     0.837443  s :     0.837443
      pz      :     0.004160  p :     0.020229
      px      :     0.013242
      py      :     0.002827

 37 H s       :     0.837516  s :     0.837516
      pz      :     0.004160  p :     0.020228
      px      :     0.003392
      py      :     0.012676

 38 Mgs       :     4.537969  s :     4.537969
      pz      :     2.090016  p :     6.454881
      px      :     2.180701
      py      :     2.184164
      dz2     :     0.030857  d :     0.261083
      dxz     :     0.024777
      dyz     :     0.026381
      dx2y2   :     0.022213
      dxy     :     0.156856



                     *******************************
                     * LOEWDIN POPULATION ANALYSIS *
                     *******************************

----------------------
LOEWDIN ATOMIC CHARGES
----------------------
   0 N :    0.189245
   1 N :    0.169979
   2 N :    0.169953
   3 N :    0.179683
   4 C :   -0.196575
   5 C :   -0.196520
   6 C :   -0.190161
   7 C :   -0.190165
   8 C :   -0.135125
   9 C :   -0.135115
  10 C :   -0.190963
  11 C :   -0.190880
  12 C :   -0.205771
  13 C :   -0.205845
  14 C :   -0.120359
  15 C :   -0.120368
  16 C :   -0.104734
  17 C :   -0.104747
  18 C :   -0.068250
  19 C :   -0.068230
  20 C :   -0.208822
  21 C :   -0.208766
  22 C :   -0.121696
  23 C :   -0.121687
  24 H :    0.149022
  25 H :    0.146132
  26 H :    0.149009
  27 H :    0.146134
  28 H :    0.157963
  29 H :    0.157959
  30 H :    0.140158
  31 H :    0.140147
  32 H :    0.141948
  33 H :    0.141957
  34 H :    0.161398
  35 H :    0.161397
  36 H :    0.139806
  37 H :    0.139796
  38 Mg:    0.303093

-------------------------------
LOEWDIN REDUCED ORBITAL CHARGES
-------------------------------
  0 N s       :     2.977429  s :     2.977429
      pz      :     1.140567  p :     3.609145
      px      :     1.257329
      py      :     1.211249
      dz2     :     0.016082  d :     0.205975
      dxz     :     0.023726
      dyz     :     0.030433
      dx2y2   :     0.072365
      dxy     :     0.063369
      f0      :     0.001165  f :     0.018206
      f+1     :     0.001192
      f-1     :     0.001403
      f+2     :     0.002976
      f-2     :     0.000446
      f+3     :     0.006554
      f-3     :     0.004471

  1 N s       :     2.975326  s :     2.975326
      pz      :     1.201239  p :     3.637873
      px      :     1.188991
      py      :     1.247643
      dz2     :     0.015917  d :     0.198567
      dxz     :     0.030742
      dyz     :     0.023460
      dx2y2   :     0.068263
      dxy     :     0.060185
      f0      :     0.001124  f :     0.018256
      f+1     :     0.001354
      f-1     :     0.001251
      f+2     :     0.003474
      f-2     :     0.000292
      f+3     :     0.004625
      f-3     :     0.006136

  2 N s       :     2.975338  s :     2.975338
      pz      :     1.201247  p :     3.637889
      px      :     1.202790
      py      :     1.233852
      dz2     :     0.015920  d :     0.198565
      dxz     :     0.029865
      dyz     :     0.024340
      dx2y2   :     0.067337
      dxy     :     0.061103
      f0      :     0.001124  f :     0.018254
      f+1     :     0.001437
      f-1     :     0.001169
      f+2     :     0.003392
      f-2     :     0.000374
      f+3     :     0.004356
      f-3     :     0.006402

  3 N s       :     2.976692  s :     2.976692
      pz      :     1.181123  p :     3.622955
      px      :     1.243325
      py      :     1.198507
      dz2     :     0.015864  d :     0.202167
      dxz     :     0.025500
      dyz     :     0.032802
      dx2y2   :     0.067484
      dxy     :     0.060517
      f0      :     0.001093  f :     0.018503
      f+1     :     0.001195
      f-1     :     0.001378
      f+2     :     0.003759
      f-2     :     0.000317
      f+3     :     0.006271
      f-3     :     0.004489

  4 C s       :     2.766040  s :     2.766040
      pz      :     1.037432  p :     3.029978
      px      :     0.988673
      py      :     1.003873
      dz2     :     0.041262  d :     0.360249
      dxz     :     0.049224
      dyz     :     0.093502
      dx2y2   :     0.092028
      dxy     :     0.084233
      f0      :     0.004011  f :     0.040308
      f+1     :     0.003345
      f-1     :     0.004147
      f+2     :     0.004604
      f-2     :     0.005262
      f+3     :     0.009228
      f-3     :     0.009711

  5 C s       :     2.766056  s :     2.766056
      pz      :     1.037429  p :     3.029983
      px      :     1.002562
      py      :     0.989991
      dz2     :     0.041405  d :     0.360177
      dxz     :     0.093184
      dyz     :     0.049340
      dx2y2   :     0.087406
      dxy     :     0.088841
      f0      :     0.004024  f :     0.040304
      f+1     :     0.004164
      f-1     :     0.003310
      f+2     :     0.004594
      f-2     :     0.005282
      f+3     :     0.007405
      f-3     :     0.011526

  6 C s       :     2.713877  s :     2.713877
      pz      :     0.808057  p :     2.764309
      px      :     1.013579
      py      :     0.942673
      dz2     :     0.041344  d :     0.635055
      dxz     :     0.086215
      dyz     :     0.115793
      dx2y2   :     0.192161
      dxy     :     0.199542
      f0      :     0.005055  f :     0.076920
      f+1     :     0.004206
      f-1     :     0.006292
      f+2     :     0.011148
      f-2     :     0.006570
      f+3     :     0.030915
      f-3     :     0.012734

  7 C s       :     2.713892  s :     2.713892
      pz      :     0.808119  p :     2.764319
      px      :     0.936015
      py      :     1.020185
      dz2     :     0.041379  d :     0.635033
      dxz     :     0.103191
      dyz     :     0.098786
      dx2y2   :     0.189477
      dxy     :     0.202200
      f0      :     0.005054  f :     0.076921
      f+1     :     0.005959
      f-1     :     0.004546
      f+2     :     0.010138
      f-2     :     0.007578
      f+3     :     0.020371
      f-3     :     0.023274

  8 C s       :     2.744415  s :     2.744415
      pz      :     0.974496  p :     2.990180
      px      :     1.028020
      py      :     0.987664
      dz2     :     0.025106  d :     0.360748
      dxz     :     0.073628
      dyz     :     0.011280
      dx2y2   :     0.154620
      dxy     :     0.096114
      f0      :     0.003081  f :     0.039783
      f+1     :     0.004927
      f-1     :     0.003191
      f+2     :     0.002042
      f-2     :     0.005433
      f+3     :     0.012468
      f-3     :     0.008642

  9 C s       :     2.744427  s :     2.744427
      pz      :     0.974473  p :     2.990164
      px      :     0.985293
      py      :     1.030398
      dz2     :     0.025107  d :     0.360743
      dxz     :     0.011652
      dyz     :     0.073275
      dx2y2   :     0.151895
      dxy     :     0.098813
      f0      :     0.003081  f :     0.039781
      f+1     :     0.003166
      f-1     :     0.004950
      f+2     :     0.002139
      f-2     :     0.005338
      f+3     :     0.008789
      f-3     :     0.012316

 10 C s       :     2.699371  s :     2.699371
      pz      :     0.807331  p :     2.760918
      px      :     1.009104
      py      :     0.944483
      dz2     :     0.042617  d :     0.650038
      dxz     :     0.095313
      dyz     :     0.117710
      dx2y2   :     0.194598
      dxy     :     0.199801
      f0      :     0.004825  f :     0.080636
      f+1     :     0.004734
      f-1     :     0.006062
      f+2     :     0.012461
      f-2     :     0.007731
      f+3     :     0.026352
      f-3     :     0.018471

 11 C s       :     2.699394  s :     2.699394
      pz      :     0.807362  p :     2.760912
      px      :     0.943772
      py      :     1.009779
      dz2     :     0.042627  d :     0.649953
      dxz     :     0.123057
      dyz     :     0.089932
      dx2y2   :     0.190584
      dxy     :     0.203753
      f0      :     0.004824  f :     0.080620
      f+1     :     0.006329
      f-1     :     0.004467
      f+2     :     0.014774
      f-2     :     0.005415
      f+3     :     0.012847
      f-3     :     0.031964

 12 C s       :     2.695499  s :     2.695499
      pz      :     0.862963  p :     2.802092
      px      :     0.925505
      py      :     1.013624
      dz2     :     0.042707  d :     0.629807
      dxz     :     0.117264
      dyz     :     0.078480
      dx2y2   :     0.194926
      dxy     :     0.196430
      f0      :     0.004922  f :     0.078373
      f+1     :     0.006279
      f-1     :     0.004691
      f+2     :     0.013901
      f-2     :     0.004321
      f+3     :     0.013106
      f-3     :     0.031153

 13 C s       :     2.695482  s :     2.695482
      pz      :     0.862967  p :     2.802124
      px      :     1.014165
      py      :     0.924992
      dz2     :     0.042714  d :     0.629853
      dxz     :     0.081988
      dyz     :     0.113778
      dx2y2   :     0.195363
      dxy     :     0.196011
      f0      :     0.004923  f :     0.078385
      f+1     :     0.004983
      f-1     :     0.005989
      f+2     :     0.011075
      f-2     :     0.007150
      f+3     :     0.026045
      f-3     :     0.018219

 14 C s       :     2.762610  s :     2.762610
      pz      :     0.921346  p :     2.946495
      px      :     1.026902
      py      :     0.998246
      dz2     :     0.026918  d :     0.364921
      dxz     :     0.066364
      dyz     :     0.017761
      dx2y2   :     0.150913
      dxy     :     0.102965
      f0      :     0.002876  f :     0.046333
      f+1     :     0.003868
      f-1     :     0.003993
      f+2     :     0.000542
      f-2     :     0.008567
      f+3     :     0.017304
      f-3     :     0.009183

 15 C s       :     2.762600  s :     2.762600
      pz      :     0.921368  p :     2.946507
      px      :     1.010445
      py      :     1.014695
      dz2     :     0.026923  d :     0.364927
      dxz     :     0.021555
      dyz     :     0.062579
      dx2y2   :     0.151034
      dxy     :     0.102836
      f0      :     0.002876  f :     0.046334
      f+1     :     0.004039
      f-1     :     0.003821
      f+2     :     0.002222
      f-2     :     0.006890
      f+3     :     0.014278
      f-3     :     0.012208

 16 C s       :     2.763809  s :     2.763809
      pz      :     0.885948  p :     2.917793
      px      :     1.011909
[...]
     Transition      Energy     Energy  Wavelength fosc(P2)      P2        PX        PY        PZ   
                      (eV)      (cm-1)    (nm)                 (au**2)    (au)      (au)      (au)  
----------------------------------------------------------------------------------------------------
  0-1A  ->  1-1A    2.466727   19895.5   502.6   0.110184506   0.01498   0.07747  -0.09476   0.00075
  0-1A  ->  2-1A    2.746234   22149.9   451.5   0.000001912   0.00000  -0.00054  -0.00005   0.00000
  0-1A  ->  3-1A    4.180529   33718.2   296.6   0.000190127   0.00004  -0.00479  -0.00457  -0.00007
  0-1A  ->  4-1A    4.202673   33896.8   295.0   0.007866436   0.00182  -0.02699   0.03307  -0.00044
  0-1A  ->  5-1A    4.231739   34131.3   293.0   0.003714789   0.00087   0.01790  -0.02337  -0.00029
  0-1A  ->  6-1A    4.291020   34609.4   288.9   0.000150487   0.00004   0.00503   0.00320   0.00004
  0-1A  ->  7-1A    4.657490   37565.2   266.2   0.000001073   0.00000  -0.00022  -0.00023   0.00042
  0-1A  ->  8-1A    4.716851   38044.0   262.9   0.005922109   0.00154   0.03042   0.02479   0.00011
  0-1A  ->  9-1A    4.835257   38999.0   256.4   0.000003959   0.00000  -0.00017   0.00101   0.00001
  0-1A  -> 10-1A    4.993308   40273.7   248.3   0.000007690   0.00000   0.00066  -0.00083  -0.00100
  0-1A  -> 11-1A    5.046508   40702.8   245.7   0.000519609   0.00014  -0.00592   0.00730  -0.00750
  0-1A  -> 12-1A    5.082634   40994.2   243.9   0.004432955   0.00124  -0.02219   0.02738  -0.00013
  0-1A  -> 13-1A    5.249004   42336.1   236.2   0.007628565   0.00221  -0.02951   0.03656   0.00004
  0-1A  -> 14-1A    5.260430   42428.2   235.7   0.001524352   0.00044   0.01651   0.01302  -0.00005
  0-1A  -> 15-1A    5.399869   43552.9   229.6   0.000025360   0.00001  -0.00218  -0.00167  -0.00005
  0-1A  -> 16-1A    5.456456   44009.3   227.2   0.000183674   0.00006   0.00564   0.00484   0.00000
  0-1A  -> 17-1A    5.492955   44303.7   225.7   0.000372063   0.00011  -0.00810  -0.00686   0.00001
  0-1A  -> 18-1A    5.530459   44606.2   224.2   0.000001561   0.00000  -0.00069  -0.00006  -0.00005
  0-1A  -> 19-1A    5.539170   44676.4   223.8   0.014304129   0.00437   0.04228  -0.05080  -0.00029
  0-1A  -> 20-1A    5.652900   45593.7   219.3   0.018448739   0.00575  -0.04816   0.05856   0.00059
  0-1A  -> 21-1A    5.849802   47181.8   211.9   0.009218644   0.00297  -0.00177   0.00238  -0.05444
  0-1A  -> 22-1A    6.022375   48573.7   205.9   0.000219356   0.00007   0.00647   0.00556  -0.00017
  0-1A  -> 23-1A    6.035646   48680.8   205.4   0.011145861   0.00371   0.03819  -0.04731  -0.00339
  0-1A  -> 24-1A    6.048541   48784.8   205.0   0.000012199   0.00000  -0.00179  -0.00093   0.00002
  0-1A  -> 25-1A    6.066823   48932.2   204.4   0.000051497   0.00002  -0.00324  -0.00259  -0.00003
  0-1A  -> 26-1A    6.269134   50564.0   197.8   0.016131552   0.00557  -0.05805  -0.04696  -0.00007
  0-1A  -> 27-1A    6.318530   50962.4   196.2   0.000038147   0.00001  -0.00005   0.00112  -0.00347
  0-1A  -> 28-1A    6.345096   51176.7   195.4   0.000557102   0.00019   0.00013  -0.00034  -0.01395
  0-1A  -> 29-1A    6.417744   51762.6   193.2   0.000007297   0.00000  -0.00138  -0.00082   0.00006
  0-1A  -> 30-1A    6.482631   52286.0   191.3   0.000215392   0.00008  -0.00385   0.00467   0.00635

------------------------------------------------------------------------------------------
                     CD SPECTRUM VIA TRANSITION ELECTRIC DIPOLE MOMENTS    
------------------------------------------------------------------------------------------
     Transition      Energy     Energy  Wavelength    R        MX        MY        MZ   
                      (eV)      (cm-1)    (nm)   (1e40*cgs)   (au)      (au)      (au)  
------------------------------------------------------------------------------------------
  0-1A  ->  1-1A    2.466727   19895.5   502.6   -1.95904   0.00601  -0.00411  -1.12160
  0-1A  ->  2-1A    2.746234   22149.9   451.5   -0.08328  -0.00139  -0.00124  -0.00050
  0-1A  ->  3-1A    4.180529   33718.2   296.6   -5.44678  -0.00261  -0.00179  -0.00220
  0-1A  ->  4-1A    4.202673   33896.8   295.0   -4.04796  -0.00523   0.00758  -0.35162
  0-1A  ->  5-1A    4.231739   34131.3   293.0  -16.58700   0.00639  -0.00736  -0.17402
  0-1A  ->  6-1A    4.291020   34609.4   288.9   -3.29280   0.00331   0.00256  -0.00084
  0-1A  ->  7-1A    4.657490   37565.2   266.2    0.51730   0.01281   0.01044  -0.00024
  0-1A  ->  8-1A    4.716851   38044.0   262.9   -4.86193   0.00390   0.00303  -0.00046
  0-1A  ->  9-1A    4.835257   38999.0   256.4   -1.13749  -0.00228   0.00182   0.35132
  0-1A  -> 10-1A    4.993308   40273.7   248.3    1.18041   0.03309  -0.03988  -0.01398
  0-1A  -> 11-1A    5.046508   40702.8   245.7   40.97612  -0.23531   0.28849   0.06445
  0-1A  -> 12-1A    5.082634   40994.2   243.9  -23.37496   0.04356  -0.05400   0.22311
  0-1A  -> 13-1A    5.249004   42336.1   236.2    6.24983   0.00179  -0.00450   0.88204
  0-1A  -> 14-1A    5.260430   42428.2   235.7    1.62111   0.00278   0.00265  -0.00362
  0-1A  -> 15-1A    5.399869   43552.9   229.6   -0.95505  -0.00481  -0.00385   0.00116
  0-1A  -> 16-1A    5.456456   44009.3   227.2    7.63266   0.01582   0.01293   0.00002
  0-1A  -> 17-1A    5.492955   44303.7   225.7   -0.00083   0.00064   0.00038   0.00121
  0-1A  -> 18-1A    5.530459   44606.2   224.2   -9.03675   0.23902   0.19524   0.00231
  0-1A  -> 19-1A    5.539170   44676.4   223.8   -0.29138   0.00388  -0.00185  -0.30795
  0-1A  -> 20-1A    5.652900   45593.7   219.3    0.53005  -0.00096   0.00088   0.16334
  0-1A  -> 21-1A    5.849802   47181.8   211.9    0.22057  -0.01237   0.01468  -0.00870
  0-1A  -> 22-1A    6.022375   48573.7   205.9   -0.88619   0.06859   0.05562   0.00093
  0-1A  -> 23-1A    6.035646   48680.8   205.4    7.88376   0.00832  -0.00980  -0.25413
  0-1A  -> 24-1A    6.048541   48784.8   205.0   -0.59562  -0.02078  -0.01727   0.00124
  0-1A  -> 25-1A    6.066823   48932.2   204.4   -0.71986   0.12476   0.10191   0.00055
  0-1A  -> 26-1A    6.269134   50564.0   197.8   -1.53741   0.01324   0.01023   0.00168
  0-1A  -> 27-1A    6.318530   50962.4   196.2    2.31180  -0.00406   0.00472  -0.09985
  0-1A  -> 28-1A    6.345096   51176.7   195.4   -3.35071  -0.08152   0.09907   0.03185
  0-1A  -> 29-1A    6.417744   51762.6   193.2    0.25860  -0.03388  -0.02649   0.00084
  0-1A  -> 30-1A    6.482631   52286.0   191.3   -3.01483   0.09545  -0.11655   0.00063

------------------------------------------------------------------------------------------
                     CD SPECTRUM VIA TRANSITION VELOCITY DIPOLE MOMENTS    
------------------------------------------------------------------------------------------
     Transition      Energy     Energy  Wavelength    R        MX        MY        MZ   
                      (eV)      (cm-1)    (nm)   (1e40*cgs)   (au)      (au)      (au)  
------------------------------------------------------------------------------------------
  0-1A  ->  1-1A    2.466727   19895.5   502.6    0.06037   0.00601  -0.00411  -1.12160
  0-1A  ->  2-1A    2.746234   22149.9   451.5    0.00377  -0.00139  -0.00124  -0.00050
  0-1A  ->  3-1A    4.180529   33718.2   296.6    0.06379  -0.00261  -0.00179  -0.00220
  0-1A  ->  4-1A    4.202673   33896.8   295.0    1.66347  -0.00523   0.00758  -0.35162
  0-1A  ->  5-1A    4.231739   34131.3   293.0    1.02249   0.00639  -0.00736  -0.17402
  0-1A  ->  6-1A    4.291020   34609.4   288.9    0.07419   0.00331   0.00256  -0.00084
  0-1A  ->  7-1A    4.657490   37565.2   266.2   -0.01466   0.01281   0.01044  -0.00024
  0-1A  ->  8-1A    4.716851   38044.0   262.9    0.52709   0.00390   0.00303  -0.00046
  0-1A  ->  9-1A    4.835257   38999.0   256.4    0.01558  -0.00228   0.00182   0.35132
  0-1A  -> 10-1A    4.993308   40273.7   248.3    0.17657   0.03309  -0.03988  -0.01398
  0-1A  -> 11-1A    5.046508   40702.8   245.7    7.66091  -0.23531   0.28849   0.06445
  0-1A  -> 12-1A    5.082634   40994.2   243.9   -6.24330   0.04356  -0.05400   0.22311
  0-1A  -> 13-1A    5.249004   42336.1   236.2   -0.44110   0.00179  -0.00450   0.88204
  0-1A  -> 14-1A    5.260430   42428.2   235.7    0.19673   0.00278   0.00265  -0.00362
  0-1A  -> 15-1A    5.399869   43552.9   229.6    0.04004  -0.00481  -0.00385   0.00116
  0-1A  -> 16-1A    5.456456   44009.3   227.2    0.35688   0.01582   0.01293   0.00002
  0-1A  -> 17-1A    5.492955   44303.7   225.7   -0.01807   0.00064   0.00038   0.00121
  0-1A  -> 18-1A    5.530459   44606.2   224.2   -0.40541   0.23902   0.19524   0.00231
  0-1A  -> 19-1A    5.539170   44676.4   223.8    0.80451   0.00388  -0.00185  -0.30795
  0-1A  -> 20-1A    5.652900   45593.7   219.3    0.43998  -0.00096   0.00088   0.16334
  0-1A  -> 21-1A    5.849802   47181.8   211.9    1.16286  -0.01237   0.01468  -0.00870
  0-1A  -> 22-1A    6.022375   48573.7   205.9    1.60403   0.06859   0.05562   0.00093
  0-1A  -> 23-1A    6.035646   48680.8   205.4    3.49002   0.00832  -0.00980  -0.25413
  0-1A  -> 24-1A    6.048541   48784.8   205.0    0.11300  -0.02078  -0.01727   0.00124
  0-1A  -> 25-1A    6.066823   48932.2   204.4   -1.41361   0.12476   0.10191   0.00055
  0-1A  -> 26-1A    6.269134   50564.0   197.8   -2.55592   0.01324   0.01023   0.00168
  0-1A  -> 27-1A    6.318530   50962.4   196.2    0.71409  -0.00406   0.00472  -0.09985
  0-1A  -> 28-1A    6.345096   51176.7   195.4   -0.98874  -0.08152   0.09907   0.03185
  0-1A  -> 29-1A    6.417744   51762.6   193.2    0.13706  -0.03388  -0.02649   0.00084
  0-1A  -> 30-1A    6.482631   52286.0   191.3   -1.79665   0.09545  -0.11655   0.00063

Total run time:     5482.682 sec

           *** ORCA-CIS/TD-DFT FINISHED WITHOUT ERROR ***
-----------------------
CIS/TD-DFT TOTAL ENERGY
-----------------------

    E(SCF)  =  -1189.740476665 Eh
    DE(CIS) =      0.090650564 Eh (Root  1)
    ----------------------------- ---------
    E(tot)  =  -1189.649826101 Eh


Maximum memory used throughout the entire CIS-calculation: 2684.2 MB
=> NOW LEAVING ORCA_CIS

-------------------------   --------------------
FINAL SINGLE POINT ENERGY     -1189.649826100684
-------------------------   --------------------



           ************************************************************
           *        Program running with 4 parallel MPI-processes     *
           *              working on a common directory               *
           ************************************************************

------------------------------------------------------------------------------
                              ORCA PROPERTY CALCULATIONS
------------------------------------------------------------------------------

GBWName                                 ... tddft.gbw
Number of atoms                         ...     39
Number of basis functions               ...    860
Max core memory                         ...   3000 MB

Electric properties:
Dipole moment                           ... YES
Quadrupole moment                       ...  NO
Static polarizability (Dipole/Dipole)   ...  NO
Static polarizability (Dipole/Quad.)    ...  NO
Static polarizability (Quad./Quad.)     ...  NO
Static polarizability (Velocity)        ...  NO
Static hyperpolarizability              ...  NO

Atomic electric properties:
Dipole moment                           ...  NO
Quadrupole moment                       ...  NO
Static polarizability                   ...  NO

Choice of electric origin               ... Center of mass
Position of electric origin             ...     0.020726     0.037348     0.001110

General magnetic properties:
Magnetizability                         ...  NO

EPR properties:
g-Tensor (aka g-matrix)                 ...  NO
Zero-Field splitting spin-orbit         ...  NO
Zero-field splitting spin-spin          ...  NO
Hyperfine couplings                     ...  NO (   0 nuclei)
Quadrupole couplings                    ...  NO (   0 nuclei)
Contact density                         ...  NO (   0 nuclei)

NMR properties:
Chemical shifts                         ...  NO (   0 nuclei)
Spin-rotation constants                 ...  NO (   0 nuclei)
Spin-spin couplings                     ...  NO (   0 nuclei,    0 pairs)

Choice of magnetic origin               ... GIAO
Position of magnetic origin             ...     0.000000     0.000000     0.000000

Properties with geometric perturbations:
SCF Hessian                             ...  NO
IR spectrum                             ...  NO
VCD spectrum                            ...  NO
X-ray spectroscopy properties:
SCF XES/XAS/RIXS spectra                ...  NO

SCF SOC stabilization energy            ...  NO
Diagonal Born-Oppenheimer correction    ...  NO

-------------
DIPOLE MOMENT
-------------

Method             : SCF
Type of density    : Electron Density
Multiplicity       :   1
Irrep              :   0
Energy             : -1189.7404766649278827 Eh
Basis              : AO
                                X                 Y                 Z
Electronic contribution:     -5.654517082      -4.614615573      -0.011566952
Nuclear contribution   :      6.309094870       5.149182336       0.012909410
                        -----------------------------------------
Total Dipole Moment    :      0.654577788       0.534566763       0.001342458
                        -----------------------------------------
Magnitude (a.u.)       :      0.845124551
Magnitude (Debye)      :      2.148135894



--------------------
Rotational spectrum 
--------------------
 
Rotational constants in cm-1:             0.008906             0.008560             0.004372 
Rotational constants in MHz :           266.993354           256.633129           131.080005 

Dipole components along the rotational axes: 
x,y,z [a.u.] :     0.845124    -0.000582    -0.000221 
x,y,z [Debye]:     2.148135    -0.001480    -0.000561 

 

Dipole moment calculation done in   0.0 sec 

Maximum memory used throughout the entire PROP-calculation: 88.5 MB

--------------------------------
SUGGESTED CITATIONS FOR THIS RUN
--------------------------------

Below you find a list of papers that are relevant to this ORCA run
We neither can nor want to force you to cite these papers, but we appreciate if you do
You receive ORCA, which is the product of decades of hard work by many enthusiastic individuals, for free
The only thing we kindly ask in return is that you cite our papers,
We deeply appreciate it, if you show your appreciation for ORCA by not just citing the generic ORCA reference.

Please note that relegating all ORCA citations to the supporting information does *not* help us.
SI sections are not indexed - citations you put there will not count into any citation statistics
But we need these citations in order to attract the funding resources that allow us to do what we are doing

Therefore, if you are a happy ORCA user, please consider citing a few of the papers listed below in the main body of your paper

In addition to the list printed below, the program has created the file tddft.bibtex that contains the list in bibtex format
You can import this file easily into all common literature databanks and citation aid programs

It goes without saying that in many instances, there are alternative algorithms to achieve similar
results as the ones you have gotten from ORCA. It is, of course, also the case that in some instances
ORCA just re-implements algorithms worked out by others. We are fully aware of that and we are also
fully appreciative of our colleagues work. Hence this citation list should not be read as indicating
that the listed papers, which are focused on our own work, are the only ones worth citing. It simply
meant to make it easier for users to cite ORCA specific papers. It is not a substitute for doing your
own literature research and citing the relevant literature in a scientifically appropriate manner.

List of essential papers. We consider these as the minimum necessary citations

  1. Neese, F.
     Software update: the ORCA program system, version 6.0
     WIRES Comput. Molec. Sci. 2025 15(1), e70019
     doi.org/10.1002/wcms.70019

List of papers to cite with high priority. The work reported in these papers was absolutely
necessary for this run to complete.
Our perspective: the developers of density functionals and basis sets usually get cited in chemistry papers
Good! But without the algorithms to do something with them, the functionals or basis sets would not do anything.
Hence, in our opinion, the algorithm design and method developments papers are equally worthy of getting cited

  1. Neese, F.; Olbrich, G.
     Efficient use of the resolution of the identity approximation in time-dependent density functional calculations with hybrid density functionals
     Chem. Phys. Lett. 2002 362 , 170-178
     doi.org/10.1016/s0009-2614(02)01053-9
  2. Neese, F.
     An improvement of the resolution of the identity approximation for the formation of the Coulomb matrix
     J. Comp. Chem. 2003 24(14), 1740-1747
     doi.org/10.1002/jcc.10318
  3. Neese, F.; Wennmohs, F.; Hansen, A.; Becker, U.
     Efficient, approximate and parallel Hartree-Fock and hybrid DFT calculations. A 'chain-of-spheres' algorithm for the Hartree-Fock exchange
     Chem. Phys. 2009 356(1-3), 98-109
     doi.org/10.1016/j.chemphys.2008.10.036
  4. Helmich-Paris, B.; de Souza, B.; Neese, F.; Izsák, R.
     An improved chain of spheres for exchange algorithm
     J. Chem. Phys. 2021 155(10), 104109
     doi.org/10.1063/5.0058766
  5. Neese, F.
     The SHARK Integral Generation and Digestion System
     J. Comp. Chem. 2022 44(3), 381
     doi.org/10.1002/jcc.26942

List of suggested additional citations. These are papers that are important in the 'surrounding' of 
of this run, or papers that preceded the highly important papers. If you like your results we are grateful for a citation.

  1. Izsak, R.; Neese, F.
     An overlap fitted chain of spheres exchange method
     J. Chem. Phys. 2011 135 , 144105
     doi.org/10.1063/1.3646921
  2. Izsak, R.; Hansen, A.; Neese, F.
     The resolution of identity and chain of spheres approximations for the LPNO-CCSD singles Fock term
     Molec. Phys. 2012 110 , 2413-2417
     doi.org/10.1080/00268976.2012.687466
  3. Neese, F.
     The ORCA program system
     WIRES Comput. Molec. Sci. 2012 2(1), 73-78
     doi.org/10.1002/wcms.81
  4. Izsak, R.; Neese, F.; Klopper, W.
     Robust fitting techniques in the chain of spheres approximation to the Fock exchange: The role of the complementary space
     J. Chem. Phys. 2013 139 , 
     doi.org/10.1063/1.4819264
  5. Neese, F.
     Software update: the ORCA program system, version 4.0
     WIRES Comput. Molec. Sci. 2018 8(1), 1-6
     doi.org/10.1002/wcms.1327
  6. Neese, F.; Wennmohs, F.; Becker, U.; Riplinger, C.
     The ORCA quantum chemistry program package
     J. Chem. Phys. 2020 152(22), 224108
     doi.org/10.1063/5.0004608
  7. Neese, F.
     Software update: The ORCA program system—Version 5.0
     WIRES Comput. Molec. Sci. 2022 12(1), e1606
     doi.org/10.1002/wcms.1606

List of optional additional citations

  1. Neese, F.
     Approximate second-order SCF convergence for spin unrestricted wavefunctions
     Chem. Phys. Lett. 2000 325(1-3), 93-98
     doi.org/10.1016/s0009-2614(00)00662-x

Timings for individual modules:

Sum of individual times          ...     7310.412 sec (= 121.840 min)
Startup calculation              ...       26.387 sec (=   0.440 min)   0.4 %
SCF iterations                   ...     1796.817 sec (=  29.947 min)  24.6 %
Property integrals               ...        3.322 sec (=   0.055 min)   0.0 %
Property calculations            ...        0.573 sec (=   0.010 min)   0.0 %
CIS module                       ...     5483.313 sec (=  91.389 min)  75.0 %
                             ****ORCA TERMINATED NORMALLY****
TOTAL RUN TIME: 0 days 2 hours 1 minutes 50 seconds 929 msec
