
                                 *****************
                                 * O   R   C   A *
                                 *****************

                                            #,                                       
                                            ###                                      
                                            ####                                     
                                            #####                                    
                                            ######                                   
                                           ########,                                 
                                     ,,################,,,,,                         
                               ,,#################################,,                 
                          ,,##########################################,,             
                       ,#########################################, ''#####,          
                    ,#############################################,,   '####,        
                  ,##################################################,,,,####,       
                ,###########''''           ''''###############################       
              ,#####''   ,,,,##########,,,,          '''####'''          '####       
            ,##' ,,,,###########################,,,                        '##       
           ' ,,###''''                  '''############,,,                           
         ,,##''                                '''############,,,,        ,,,,,,###''
      ,#''                                            '''#######################'''  
     '                                                          ''''####''''         
             ,#######,   #######,   ,#######,      ##                                
            ,#'     '#,  ##    ##  ,#'     '#,    #''#        ,####,    ,#,          
            ##       ##  ##   ,#'  ##            #'  '#       #'       ,# #          
            ##       ##  #######   ##           ,######,      #####,      #          
            '#,     ,#'  ##    ##  '#,     ,#' ,#      #,     #,   #      #          
             '#######'   ##     ##  '#######'  #'      '#     '####' #    #          



                #########################################################
                #                        -***-                          #
                #          Department of theory and spectroscopy        #
                #                                                       #
                #                      Frank Neese                      #
                #                                                       #
                #     Directorship, Architecture, Infrastructure        #
                #                    SHARK, DRIVERS                     #
                #        Core code/Algorithms in most modules           #
                #                                                       #
                #        Max Planck Institute fuer Kohlenforschung      #
                #                Kaiser Wilhelm Platz 1                 #
                #                 D-45470 Muelheim/Ruhr                 #
                #                      Germany                          #
                #                                                       #
                #                  All rights reserved                  #
                #                        -***-                          #
                #########################################################


                         Program Version 6.1.1  -  RELEASE   -
                                (GIT: $487d211c$)
                          ($2025-11-21 10:33:24 +0100$)


 With contributions from (in alphabetic order):
[Max-Planck-Institut fuer Kohlenforschung]                               
  Daniel Aravena         : Magnetic Suceptibility                        
  Michael Atanasov       : Ab Initio Ligand Field Theory (pilot matlab implementation)
  Alexander A. Auer      : GIAO ZORA, VPT2 properties, NMR spectrum      
  Ute Becker             : All parallelization in ORCA, NUMFREQ, NUMCALC 
  Giovanni Bistoni       : ED, misc. LED, open-shell LED, HFLD           
  Dmytro Bykov           : pre 5.0 version of the SCF Hessian            
  Marcos Casanova-Páez   : Triplet and SCS-CIS(D). UHF-(DLPNO)-IP/EA/STEOM-CCSD. UHF-CVS-IP/STEOM-CCSD   
  Vijay G. Chilkuri      : MRCI spin determinant printing, contributions to CSF-ICE 
  Pauline Colinet        : FMM embedding                                 
  Dipayan Datta          : RHF DLPNO-CCSD density                        
  Achintya Kumar Dutta   : EOM-CC, STEOM-CC                              
  Nicolas Foglia         : Exact transition moments, OPA infrastructure, MCD improvements    
  Dmitry Ganyushin       : Spin-Orbit,Spin-Spin,Magnetic field MRCI      
  Miquel Garcia-Rates    : C-PCM and meta-GGA Hessian, CCSD/C-PCM, Gaussian charge scheme 
  Tiago L. C. Gouveia    : GS-ROHF, GS-ROCIS                             
  Yang Guo               : DLPNO-NEVPT2, F12-NEVPT2, CIM, IAO-localization        
  Andreas Hansen         : Spin unrestricted coupled pair/coupled cluster methods 
  Ingolf Harden          : AUTO-CI MPn and infrastructure                
  Benjamin Helmich-Paris : MC-RPA, TRAH-(SCF,CASSCF), AVAS, COSX integrals, SCF dyn. polar., MC-PDFT, srDFT 
  Lee Huntington         : MR-EOM, pCC                                   
  Robert Izsak           : Overlap fitted RIJCOSX, COSX-SCS-MP3, EOM     
  Riya Kayal             : Wick's Theorem for AUTO-CI, AUTO-CI UHF-CCSDT 
  Emily Kempfer          : AUTO-CI RHF CISDT and CCSDT, approximate NEVPT4
  Christian Kollmar      : KDIIS, OOCD, Brueckner-CCSD(T), CCSD density, CASPT2, CASPT2-K, improved NEVPT2 
  Axel Koslowski         : Symmetry handling                             
  Simone Kossmann        : meta-GGA functionals, TD-DFT gradient, OOMP2, (MP2 Hessian; deprecated post 5.0) 
  Lucas Lang             : DCDCAS, Hyperfine gauge corrections, ICE-SOC+SSC
  Marvin Lechner         : AUTO-CI (C++ implementation), FIC-MRCC        
  Spencer Leger          : CASSCF response                               
  Dagmar Lenk            : GEPOL surface, SMD, ORCA-2-JSON               
  Dimitrios Liakos       : Extrapolation schemes; Compound Job, Property file
  Dimitrios Manganas     : Further ROCIS development; embedding schemes. LFT, Crystal Embedding 
  Dimitrios Pantazis     : SARC Basis sets                               
  Anastasios Papadopoulos: AUTO-CI, single reference methods and gradients 
  Taras Petrenko         : pre 6.0 DFT Hessian and TD-DFT gradient,  ECA, NRVS 
  Petra Pikulova         : Analytic Raman intensities                    
  Peter Pinski           : DLPNO-MP2, DLPNO-MP2 Gradient                 
  Shashank Vittal Rao    : ES-AILFT, MagRelax                            
  Christoph Reimann      : Effective Core Potentials                     
  Marius Retegan         : Local ZFS, SOC                                
  Christoph Riplinger    : Optimizer, TS searches, QM/MM, DLPNO-CCSD(T), (RO)-DLPNO pert. Triples 
  Michael Roemelt        : Original ROCIS implementation, recursive CI coupling coefficients
  Masaaki Saitow         : Open-shell DLPNO-CCSD energy and density      
  Barbara Sandhoefer     : DKH picture change effects                    
  Yorick L. A. Schmerwitz: GMF and freeze-and-release deltaSCF, NEB S-IDPP initial path                    
  Kantharuban Sivalingam : CASSCF convergence/infrastructure, NEVPT2, NEVPT3, NEVPT4(SD), FIC-MRCI and CEPA variants
  Bernardo de Souza      : ESD, SOC TD-DFT                               
  Georgi L. Stoychev     : AutoAux, RI-MP2 NMR, DLPNO-MP2 response, X2C  
  Van Anh Tran           : RI-MP2 g-tensors                              
  Willem Van den Heuvel  : Paramagnetic NMR                              
  Zikuan Wang            : NOTCH, Electric field optimization            
  Frank Wennmohs         : Technical directorship and infrastructure     
  Hang Xu                : AUTO-CI-Response properties                   
                                                                         
[FACCTs GmbH]                                                            
  Markus Bursch, Nicolas Foglia, Miquel Garcia-Rates, Ingolf Harden, Hagen Neugebauer, Anastasios Papadopoulos, 
  Christoph Riplinger, Bernardo de Souza, Georgi L. Stoychev                                                    
                                                                 
  APM, various basis sets, CI-OPT, improved COSX, DLPNO-Multilevel,           
  DOCKER, DRACO, updates on ESD, Fragmentator, GOAT, IRC, LR-CPCM, L-BFGS, MBIS, meta-GGA TD-DFT gradient, ML-optimized integration grids, 
  MM, NACMEs, nearIR, NEB, NEB-TS, NL-DFT gradient (VV10), 2- and 3-layer-ONIOM, interface openCOSMO-RS, QMMM,   
  Crystal-QMMM, RESP, rigid body optimization, SF, symmetry and pop. for TD-DFT, various functionals, SOLVATOR                                   
                                                                         
[Other institutions]                                                     
  V. Asgeirsson          : NEB                                           
  Christoph Bannwarth    : sTDA-DFT, sTD-DFT, PBEh-3c, B97-3c, D3        
  Giovanni Bistoni       : ETS/NOCV, ADLD/ADEX, COVALED                  
  Martin Brehm           : Molecular dynamics                            
  Ronald Cardenas        : ETS/NOCV                                      
  Martina Colucci        : COVALED                                       
  Sebastian Ehlert       : rSCAN, r2SCAN, r2SCAN-3c, D4, dhf basis sets  
  Marvin Friede          : D4 for Fr, Ra, Ac-Lr                          
  Lars Goerigk           : TD-DFT with DH, B97 family of functionals     
  Stefan Grimme          : VdW corrections, initial TS optimization, DFT functionals, gCP, sTDA/sTD-DF 
  Waldemar Hujo          : DFT-NL                                        
  H. Jonsson             : NEB                                           
  Holger Kruse           : gCP                                           
  Marcel Mueller         : wB97X-3c, vDZP basis set                      
  Hagen Neugebauer       : wr2SCAN, Native XTB                           
  Gianluca Regni         : ADLD/ADEX                                     
  Tobias Risthaus        : pre 6.0 range-separated hybrid DFT and stability analysis
  Lukas Wittmann         : regularized MP2, r2SCAN double-hybrids, wr2SCAN        
                                                                         
We gratefully acknowledge several colleagues who have allowed us to      
interface, adapt or use parts of their codes:                            
  Ed Valeev, F. Pavosevic, A. Kumar             : LibInt (2-el integral package), F12 methods 
  Garnet Chan, S. Sharma, J. Yang, R. Olivares  : DMRG                   
  Ulf Ekstrom                                   : XCFun DFT Library      
  Mihaly Kallay                                 : mrcc  (arbitrary order and MRCC methods)
  Frank Weinhold                                : gennbo (NPA and NBO analysis)           
  Simon Mueller                                 : openCOSMO-RS                            
  Christopher J. Cramer and Donald G. Truhlar   : smd solvation model                     
  S Lehtola, MJT Oliveira, MAL Marques          : LibXC Library                           
  Liviu Ungur et al                             : ANISO software                          


 Your calculation uses the libint2 library for the computation of 2-el integrals
 For citations please refer to: http://libint.valeyev.net

 Your ORCA version has been built with support for libXC version: 7.0.0
 For citations please refer to: https://libxc.gitlab.io

 This ORCA versions uses:
   CBLAS   interface :  Fast vector & matrix operations
   LAPACKE interface :  Fast linear algebra routines
   SCALAPACK package :  Parallel linear algebra routines
   Shared memory     :  Shared parallel matrices
   BLAS/LAPACK       :  OpenBLAS 0.3.29  USE64BITINT DYNAMIC_ARCH NO_AFFINITY Haswell SINGLE_THREADED
        Core in use  :  Haswell
   Copyright (c) 2011-2014, The OpenBLAS Project


  ***********************************
  * Starting time: Sun Jul  5 17:08:28 2026
  * Host name:     steezy
  * Process ID:    1275764
  * Working dir.:  /home/jannes/chlorophyll-ladder/007-mg-core-ladder/mgchlorin/02_tddft/camb3lyp
  ***********************************

NOTE: MaxCore=3000 MB was set to SCF,MP2,MDCI,CIPSI,MRCI,RASCI and CIS
      => If you want to overwrite this, your respective input block should be placed after the MaxCore statement


***************************************
The coordinates will be read from file: /home/jannes/chlorophyll-ladder/007-mg-core-ladder/mgchlorin/01_opt/mgchlorin_opt_b3lypd4_tzvp.xyz
***************************************


XCFun DFT library Copyright 2009-2010 Ulf Ekstrom and contributors.
See http://admol.org/xcfun for more information.
This is free software; see the source code for copying conditions.
There is ABSOLUTELY NO WARRANTY; not even for MERCHANTABILITY or FITNESS FOR A PARTICULAR PURPOSE.
For details see the documentation.
Scientific users of this library should cite U. Ekstrom, L. Visscher, R. Bast, A. J. Thorvaldsen and K. Ruud;
J.Chem.Theor.Comp. 2010, DOI: 10.1021/ct100117s
XCFun Version 0.99 

================================================================================

----- Orbital basis set information -----
Your calculation utilizes the basis: def2-TZVP
   F. Weigend and R. Ahlrichs, Phys. Chem. Chem. Phys. 7, 3297 (2005).

----- AuxJ basis set information -----
Your calculation utilizes the auxiliary basis: def2/J
   H-Rn: F. Weigend, Phys. Chem. Chem. Phys. 8, 1057 (2006).
   Fr-Lr: K. Eichkorn, F. Weigend, O. Treutler, R. Ahlrichs; Theor. Chem. Acc. 97, 119 (1997).

================================================================================
                                        WARNINGS
                       Please study these warnings very carefully!
================================================================================


WARNING: CIS/ROCIS methods need fully converged wavefunctions
  ===> : Setting SCFConvForced true
         You can overwrite this default with %scf ConvForced false 


================================================================================
                                       INPUT FILE
================================================================================
NAME = tddft.inp
|  1> %pal nprocs 4 end
|  2> %maxcore 3000
|  3> ! CAM-B3LYP def2-TZVP def2/J RIJCOSX DefGrid3 TightSCF
|  4> %tddft
|  5>   nroots 30
|  6>   triplets false
|  7> end
|  8> * xyzfile 0 1 /home/jannes/chlorophyll-ladder/007-mg-core-ladder/mgchlorin/01_opt/mgchlorin_opt_b3lypd4_tzvp.xyz
|  9> 
| 10>                          ****END OF INPUT****
================================================================================

                       ****************************
                       * Single Point Calculation *
                       ****************************

---------------------------------
CARTESIAN COORDINATES (ANGSTROEM)
---------------------------------
  N      1.617376    1.330383    0.004551
  N     -1.306529    1.580997    0.003644
  N      1.276091   -1.584198   -0.002271
  N     -1.612608   -1.304895   -0.003475
  C      2.875203    3.342362   -0.063685
  C      3.840630    2.159068    0.079915
  C      1.509656    2.684377   -0.016153
  C      2.922172    0.953296    0.027878
  C      0.336508    3.400638   -0.015219
  C      3.388460   -0.339731    0.025539
  C     -0.976132    2.896056   -0.002122
  C      2.630796   -1.524412    0.007627
  C     -2.686758    1.511059    0.009704
  C      0.930668   -2.922223   -0.012658
  C     -2.169427    3.701790    0.002039
  C      3.180636   -2.855093    0.001851
  C     -3.225855    2.843438    0.009928
  C      2.127735   -3.717737   -0.011279
  C     -3.426856    0.343504    0.009772
  C     -0.361658   -3.413010   -0.017853
  C     -2.938073   -0.969119    0.002267
  C     -1.549551   -2.670848   -0.012186
  C     -3.737889   -2.157029   -0.002719
  C     -2.873771   -3.216052   -0.012243
  H      3.004410    3.866805   -1.013495
  H      2.986016    4.085160    0.727134
  H      4.377829    2.179169    1.031116
  H      4.592202    2.120440   -0.709370
  H      0.429527    4.479453   -0.029677
  H      4.463992   -0.464803    0.042863
  H     -2.189602    4.780461   -0.001150
  H      4.233282   -3.091377    0.007587
  H     -4.277438    3.085144    0.014504
  H      2.153498   -4.796427   -0.018419
  H     -4.504247    0.454657    0.013550
  H     -0.468513   -4.490823   -0.024516
  H     -4.816548   -2.181344    0.000207
  H     -3.114006   -4.267872   -0.018337
  Mg    -0.018551   -0.004412    0.000625

----------------------------
CARTESIAN COORDINATES (A.U.)
----------------------------
  NO LB      ZA    FRAG     MASS         X           Y           Z
   0 N     7.0000    0    14.007    3.056398    2.514059    0.008600
   1 N     7.0000    0    14.007   -2.468981    2.987652    0.006887
   2 N     7.0000    0    14.007    2.411463   -2.993700   -0.004293
   3 N     7.0000    0    14.007   -3.047387   -2.465895   -0.006567
   4 C     6.0000    0    12.011    5.433346    6.316149   -0.120347
   5 C     6.0000    0    12.011    7.257738    4.080048    0.151018
   6 C     6.0000    0    12.011    2.852836    5.072737   -0.030524
   7 C     6.0000    0    12.011    5.522104    1.801468    0.052683
   8 C     6.0000    0    12.011    0.635908    6.426274   -0.028760
   9 C     6.0000    0    12.011    6.403262   -0.641999    0.048262
  10 C     6.0000    0    12.011   -1.844622    5.472752   -0.004009
  11 C     6.0000    0    12.011    4.971483   -2.880721    0.014414
  12 C     6.0000    0    12.011   -5.077236    2.855488    0.018338
  13 C     6.0000    0    12.011    1.758707   -5.522200   -0.023920
  14 C     6.0000    0    12.011   -4.099623    6.995369    0.003853
  15 C     6.0000    0    12.011    6.010530   -5.395343    0.003498
  16 C     6.0000    0    12.011   -6.095983    5.373319    0.018761
  17 C     6.0000    0    12.011    4.020836   -7.025504   -0.021315
  18 C     6.0000    0    12.011   -6.475819    0.649128    0.018466
  19 C     6.0000    0    12.011   -0.683435   -6.449655   -0.033738
  20 C     6.0000    0    12.011   -5.552153   -1.831369    0.004284
  21 C     6.0000    0    12.011   -2.928227   -5.047171   -0.023027
  22 C     6.0000    0    12.011   -7.063586   -4.076195   -0.005137
  23 C     6.0000    0    12.011   -5.430639   -6.077458   -0.023136
  24 H     1.0000    0     1.008    5.677511    7.307202   -1.915228
  25 H     1.0000    0     1.008    5.642753    7.719833    1.374085
  26 H     1.0000    0     1.008    8.272899    4.118034    1.948527
  27 H     1.0000    0     1.008    8.678005    4.007051   -1.340516
  28 H     1.0000    0     1.008    0.811688    8.464939   -0.056081
  29 H     1.0000    0     1.008    8.435723   -0.878351    0.081000
  30 H     1.0000    0     1.008   -4.137748    9.033761   -0.002174
  31 H     1.0000    0     1.008    7.999744   -5.841856    0.014337
  32 H     1.0000    0     1.008   -8.083187    5.830076    0.027408
  33 H     1.0000    0     1.008    4.069522   -9.063934   -0.034807
  34 H     1.0000    0     1.008   -8.511794    0.859178    0.025605
  35 H     1.0000    0     1.008   -0.885361   -8.486426   -0.046329
  36 H     1.0000    0     1.008   -9.101956   -4.122142    0.000392
  37 H     1.0000    0     1.008   -5.884618   -8.065109   -0.034653
  38 Mg   12.0000    0    24.305   -0.035057   -0.008338    0.001182

--------------------------------
INTERNAL COORDINATES (ANGSTROEM)
--------------------------------
 N      0   0   0     0.000000000000     0.00000000     0.00000000
 N      1   0   0     2.934625567277     0.00000000     0.00000000
 N      1   2   0     2.934502219461    88.22026361     0.00000000
 N      2   1   3     2.902087324163    91.15525092     0.00000000
 C      1   2   3     2.373783144973   117.10066924   178.00775617
 C      5   1   2     1.533901517256    71.15336793   175.74864028
 C      1   2   3     1.358430124362    80.55312792   178.98494255
 C      1   2   3     1.358392392334   168.73866091   354.91154939
 C      7   1   2     1.374520448020   125.94914713     0.55405638
 C      8   1   7     1.374536203187   125.94130379   181.39600351
 C      2   1   3     1.355940334932    80.79598169   180.38241652
 C      3   1   2     1.356059119169    80.79364978   180.38854817
 C      2   1   3     1.382013227933   172.19563123     2.11228019
 C      3   1   2     1.381931604181   172.19772945     2.18695519
 C     11   2   1     1.439853693466   109.92374504   180.32182958
 C     12   3   1     1.439815791155   109.92104971   180.32893451
 C     15  11   2     1.361202173100   106.87870823     0.00000000
 C     16  12   3     1.361222836597   106.87868208     0.00000000
 C     13   2  11     1.382364012124   125.27049495   179.64780351
 C     14   3  12     1.382391454942   125.27124228   179.65348396
 C      4   2   1     1.367346283750    81.83816516   179.76221527
 C      4   2   1     1.367434918034   171.29992091   358.49070100
 C     21   4   2     1.432083165488   109.73552966   179.80925939
 C     23  21   4     1.366865067502   106.83566180   359.97041685
 H      5   1   2     1.092645014934   119.63454595   281.07952700
 H      5   1   2     1.090606617469   127.60927975    70.55922818
 H      6   5   1     1.092598204440   112.13340192   244.83271966
 H      6   5   1     1.090562030620   113.16139441   123.71896896
 H      9   7   1     1.082914591440   116.47481442   179.76700295
 H     10   8   1     1.082918427081   116.45780824   179.78631778
 H     15  11   2     1.078863876263   125.09848097   180.00420488
 H     16  12   3     1.078854659017   125.09944828   180.00572083
 H     17  15  11     1.079013379288   127.96205293   180.02317060
 H     18  16  12     1.079022169130   127.96119491   180.02286464
 H     19  13   2     1.083116608289   116.47961750   180.08384249
 H     20  14   3     1.083117372845   116.45786284   180.08863448
 H     23  21   4     1.078936570721   125.24249032   179.99600471
 H     24  23  21     1.078923308856   127.92239530   180.01162826
 Mg     3   1   2     2.042506205857    46.01341093     0.00000000

---------------------------
INTERNAL COORDINATES (A.U.)
---------------------------
 N      0   0   0     0.000000000000     0.00000000     0.00000000
 N      1   0   0     5.545638627757     0.00000000     0.00000000
 N      1   2   0     5.545405534166    88.22026361     0.00000000
 N      2   1   3     5.484150259393    91.15525092     0.00000000
 C      1   2   3     4.485800045317   117.10066924   178.00775617
 C      5   1   2     2.898653784021    71.15336793   175.74864028
 C      1   2   3     2.567060907114    80.55312792   178.98494255
 C      1   2   3     2.566989603913   168.73866091   354.91154939
 C      7   1   2     2.597467212233   125.94914713     0.55405638
 C      8   1   7     2.597496985183   125.94130379   181.39600351
 C      2   1   3     2.562355886959    80.79598169   180.38241652
 C      3   1   2     2.562580356635    80.79364978   180.38854817
 C      2   1   3     2.611626514250   172.19563123     2.11228019
 C      3   1   2     2.611472267713   172.19772945     2.18695519
 C     11   2   1     2.720929153566   109.92374504   180.32182958
 C     12   3   1     2.720857528579   109.92104971   180.32893451
 C     15  11   2     2.572299320058   106.87870823     0.00000000
 C     16  12   3     2.572338368408   106.87868208     0.00000000
 C     13   2  11     2.612289400304   125.27049495   179.64780351
 C     14   3  12     2.612341259714   125.27124228   179.65348396
 C      4   2   1     2.583910006522    81.83816516   179.76221527
 C      4   2   1     2.584077501046   171.29992091   358.49070100
 C     21   4   2     2.706244983771   109.73552966   179.80925939
 C     23  21   4     2.583000639603   106.83566180   359.97041685
 H      5   1   2     2.064799839820   119.63454595   281.07952700
 H      5   1   2     2.060947826859   127.60927975    70.55922818
 H      6   5   1     2.064711380806   112.13340192   244.83271966
 H      6   5   1     2.060863569926   113.16139441   123.71896896
 H      9   7   1     2.046412004250   116.47481442   179.76700295
 H     10   8   1     2.046419252561   116.45780824   179.78631778
 H     15  11   2     2.038757261919   125.09848097   180.00420488
 H     16  12   3     2.038739843848   125.09944828   180.00572083
 H     17  15  11     2.039039781691   127.96205293   180.02317060
 H     18  16  12     2.039056392086   127.96119491   180.02286464
 H     19  13   2     2.046793760768   116.47961750   180.08384249
 H     20  14   3     2.046795205569   116.45786284   180.08863448
 H     23  21   4     2.038894634535   125.24249032   179.99600471
 H     24  23  21     2.038869573241   127.92239530   180.01162826
 Mg     3   1   2     3.859777355904    46.01341093     0.00000000

---------------------
BASIS SET INFORMATION
---------------------
There are 4 groups of distinct atoms

 Group   1 Type N   : 11s6p2d1f contracted to 5s3p2d1f pattern {62111/411/11/1}
 Group   2 Type C   : 11s6p2d1f contracted to 5s3p2d1f pattern {62111/411/11/1}
 Group   3 Type H   : 5s1p contracted to 3s1p pattern {311/1}
 Group   4 Type Mg  : 14s8p3d contracted to 5s4p3d pattern {73211/5111/111}

Atom   0N    basis set group =>   1
Atom   1N    basis set group =>   1
Atom   2N    basis set group =>   1
Atom   3N    basis set group =>   1
Atom   4C    basis set group =>   2
Atom   5C    basis set group =>   2
Atom   6C    basis set group =>   2
Atom   7C    basis set group =>   2
Atom   8C    basis set group =>   2
Atom   9C    basis set group =>   2
Atom  10C    basis set group =>   2
Atom  11C    basis set group =>   2
Atom  12C    basis set group =>   2
Atom  13C    basis set group =>   2
Atom  14C    basis set group =>   2
Atom  15C    basis set group =>   2
Atom  16C    basis set group =>   2
Atom  17C    basis set group =>   2
Atom  18C    basis set group =>   2
Atom  19C    basis set group =>   2
Atom  20C    basis set group =>   2
Atom  21C    basis set group =>   2
Atom  22C    basis set group =>   2
Atom  23C    basis set group =>   2
Atom  24H    basis set group =>   3
Atom  25H    basis set group =>   3
Atom  26H    basis set group =>   3
Atom  27H    basis set group =>   3
Atom  28H    basis set group =>   3
Atom  29H    basis set group =>   3
Atom  30H    basis set group =>   3
Atom  31H    basis set group =>   3
Atom  32H    basis set group =>   3
Atom  33H    basis set group =>   3
Atom  34H    basis set group =>   3
Atom  35H    basis set group =>   3
Atom  36H    basis set group =>   3
Atom  37H    basis set group =>   3
Atom  38Mg   basis set group =>   4
---------------------------------
AUXILIARY/J BASIS SET INFORMATION
---------------------------------
There are 4 groups of distinct atoms

 Group   1 Type N   : 12s5p4d2f1g contracted to 6s4p3d1f1g pattern {711111/2111/211/2/1}
 Group   2 Type C   : 12s5p4d2f1g contracted to 6s4p3d1f1g pattern {711111/2111/211/2/1}
 Group   3 Type H   : 5s2p1d contracted to 3s1p1d pattern {311/2/1}
 Group   4 Type Mg  : 14s5p5d2f1g contracted to 8s4p4d1f1g pattern {71111111/2111/2111/2/1}

Atom   0N    basis set group =>   1
Atom   1N    basis set group =>   1
Atom   2N    basis set group =>   1
Atom   3N    basis set group =>   1
Atom   4C    basis set group =>   2
Atom   5C    basis set group =>   2
Atom   6C    basis set group =>   2
Atom   7C    basis set group =>   2
Atom   8C    basis set group =>   2
Atom   9C    basis set group =>   2
Atom  10C    basis set group =>   2
Atom  11C    basis set group =>   2
Atom  12C    basis set group =>   2
Atom  13C    basis set group =>   2
Atom  14C    basis set group =>   2
Atom  15C    basis set group =>   2
Atom  16C    basis set group =>   2
Atom  17C    basis set group =>   2
Atom  18C    basis set group =>   2
Atom  19C    basis set group =>   2
Atom  20C    basis set group =>   2
Atom  21C    basis set group =>   2
Atom  22C    basis set group =>   2
Atom  23C    basis set group =>   2
Atom  24H    basis set group =>   3
Atom  25H    basis set group =>   3
Atom  26H    basis set group =>   3
Atom  27H    basis set group =>   3
Atom  28H    basis set group =>   3
Atom  29H    basis set group =>   3
Atom  30H    basis set group =>   3
Atom  31H    basis set group =>   3
Atom  32H    basis set group =>   3
Atom  33H    basis set group =>   3
Atom  34H    basis set group =>   3
Atom  35H    basis set group =>   3
Atom  36H    basis set group =>   3
Atom  37H    basis set group =>   3
Atom  38Mg   basis set group =>   4


           ************************************************************
           *        Program running with 4 parallel MPI-processes     *
           *              working on a common directory               *
           ************************************************************
------------------------------------------------------------------------------
                             ORCA STARTUP CALCULATIONS
                           -- RI-GTO INTEGRALS CHOSEN --
------------------------------------------------------------------------------
------------------------------------------------------------------------------
                   ___                                                        
                  /   \      - P O W E R E D   B Y -                         
                 /     \                                                     
                 |  |  |   _    _      __       _____    __    __             
                 |  |  |  | |  | |    /  \     |  _  \  |  |  /  |          
                  \  \/   | |  | |   /    \    | | | |  |  | /  /          
                 / \  \   | |__| |  /  /\  \   | |_| |  |  |/  /          
                |  |  |   |  __  | /  /__\  \  |    /   |      \           
                |  |  |   | |  | | |   __   |  |    \   |  |\   \          
                \     /   | |  | | |  |  |  |  | |\  \  |  | \   \       
                 \___/    |_|  |_| |__|  |__|  |_| \__\ |__|  \__/        
                                                                              
                      - O R C A' S   B I G   F R I E N D -                    
                                      &                                       
                       - I N T E G R A L  F E E D E R -                       
                                                                              
 v1 FN, 2020, v2 2021, v3 2022-2024                                           
------------------------------------------------------------------------------


----------------------
SHARK INTEGRAL PACKAGE
----------------------

Number of atoms                             ...     39
Number of basis functions                   ...    860
Number of shells                            ...    332
Maximum angular momentum                    ...      3
Integral batch strategy                     ... SHARK/LIBINT Hybrid
RI-J (if used) integral strategy            ... SPLIT-RIJ (Revised 2003 algorithm where possible)
Printlevel                                  ...      1
Contraction scheme used                     ... SEGMENTED contraction
Prescreening option                         ... SCHWARTZ
   Thresh                                   ... 2.500e-11
   Tcut                                     ... 2.500e-12
   Tpresel                                  ... 2.500e-12 
Coulomb Range Separation                    ... NOT USED
Exchange Range Separation                   ... Long Range
   Mu parameter                             ... 3.300e-01
   Scaling (regular/separated)              ... 1.900e-01 4.600e-01
Robust (split-)RI terms used:
  metric    (central integrals)             ... YES
  density   (r.h.s.  integrals)             ... YES
  potential (l.h.s.  integrals)             ... YES
Multipole approximations                    ... NOT USED
Finite Nucleus Model                        ... NOT USED
CABS basis                                  ... NOT available
Auxiliary Coulomb fitting basis             ... AVAILABLE
   # of basis functions in Aux-J            ...   1386
   # of shells in Aux-J                     ...    448
   Maximum angular momentum in Aux-J        ...      4
Auxiliary J/K fitting basis                 ... NOT available
Auxiliary Correlation fitting basis         ... NOT available
Auxiliary 'external' fitting basis          ... NOT available

Checking pre-screening integrals            ... done (  0.0 sec) Dimension = 332
   => SHARK Basis and OBASIS are compatible. Storing Pre-screening
Shell pair information
Shell pair cut-off parameter TPreSel        ...   2.5e-12
Total number of shell pairs                 ...     55278
Shell pairs after pre-screening             ...     38985
Total number of primitive shell pairs       ...    174360
Primitive shell pairs kept                  ...     80636
          la=0 lb=0:   9326 shell pairs
          la=1 lb=0:  11131 shell pairs
          la=1 lb=1:   3288 shell pairs
          la=2 lb=0:   5767 shell pairs
          la=2 lb=1:   3529 shell pairs
          la=2 lb=2:    978 shell pairs
          la=3 lb=0:   2472 shell pairs
          la=3 lb=1:   1540 shell pairs
          la=3 lb=2:    784 shell pairs
          la=3 lb=3:    170 shell pairs

Checking whether 4 symmetric matrices of dimension 860 fit in memory
:Max Core in MB      =   3000.00
 MB in use           =     50.97
 MB left             =   2949.03
 MB needed           =     11.30
 Data fit in memory  = YES
Calculating RI/J V-Matrix + Cholesky decomp.... done (  0.2 sec)
Calculating Nuclear repulsion               ... done (  0.0 sec) ENN=   2155.857692955848 Eh

Diagonalization of the overlap matrix:
Smallest eigenvalue                        ... 1.000e-05
Time for diagonalization                   ...    0.201 sec
Threshold for overlap eigenvalues          ... 1.000e-07
Number of eigenvalues below threshold      ... 0
Time for construction of square roots      ...    0.112 sec
Total time needed                          ...    0.320 sec

-------------------
DFT GRID GENERATION
-------------------

General Integration Accuracy     IntAcc      ... 4.959
Radial Grid Type                 RadialGrid  ... OptM3 with GC (2021)
Angular Grid (max. ang.)         AngularGrid ... 6 (Lebedev-590)
Angular grid pruning method      GridPruning ... 4 (adaptive)
Weight generation scheme         WeightScheme... mBecke (2022)
Basis function cutoff            BFCut       ... 1.0000e-11
Integration weight cutoff        WCut        ... 1.0000e-14
Partially contracted basis set               ... off
Rotationally invariant grid construction     ... off
Angular grids for H and He will be reduced by one unit

Total number of grid points                  ...   473102
Total number of batches                      ...     7410
Average number of points per batch           ...       63
Average number of grid points per atom       ...    12131

--------------------
COSX GRID GENERATION
--------------------

GRIDX 1
-------
General Integration Accuracy     IntAcc      ... 4.020
Radial Grid Type                 RadialGrid  ... OptM3 with GC (2021)
Angular Grid (max. ang.)         AngularGrid ... 2 (Lebedev-110)
Angular grid pruning method      GridPruning ... 4 (adaptive)
Weight generation scheme         WeightScheme... mBecke (2022)
Basis function cutoff            BFCut       ... 1.0000e-11
Integration weight cutoff        WCut        ... 1.0000e-14
Partially contracted basis set               ... on
Rotationally invariant grid construction     ... off
Angular grids for H and He will be reduced by one unit

Total number of grid points                  ...    54054
Total number of batches                      ...      445
Average number of points per batch           ...      121
Average number of grid points per atom       ...     1386
UseSFitting                                  ... on

GRIDX 2
-------
General Integration Accuracy     IntAcc      ... 4.338
Radial Grid Type                 RadialGrid  ... OptM3 with GC (2021)
Angular Grid (max. ang.)         AngularGrid ... 3 (Lebedev-194)
Angular grid pruning method      GridPruning ... 4 (adaptive)
Weight generation scheme         WeightScheme... mBecke (2022)
Basis function cutoff            BFCut       ... 1.0000e-11
Integration weight cutoff        WCut        ... 1.0000e-14
Partially contracted basis set               ... on
Rotationally invariant grid construction     ... off
Angular grids for H and He will be reduced by one unit

Total number of grid points                  ...   119051
Total number of batches                      ...      950
Average number of points per batch           ...      125
Average number of grid points per atom       ...     3053
UseSFitting                                  ... on

GRIDX 3
-------
General Integration Accuracy     IntAcc      ... 4.871
Radial Grid Type                 RadialGrid  ... OptM3 with GC (2021)
Angular Grid (max. ang.)         AngularGrid ... 4 (Lebedev-302)
Angular grid pruning method      GridPruning ... 4 (adaptive)
Weight generation scheme         WeightScheme... mBecke (2022)
Basis function cutoff            BFCut       ... 1.0000e-11
Integration weight cutoff        WCut        ... 1.0000e-14
Partially contracted basis set               ... on
Rotationally invariant grid construction     ... off
Angular grids for H and He will be reduced by one unit

Total number of grid points                  ...   219016
Total number of batches                      ...     1726
Average number of points per batch           ...      126
Average number of grid points per atom       ...     5616
UseSFitting                                  ... on
Grids setup in  15.0 sec
Initializing property integral containers    ... done (  0.0 sec)

SHARK setup successfully completed in  16.3 seconds

Maximum memory used throughout the entire STARTUP-calculation: 154.4 MB


           ************************************************************
           *        Program running with 4 parallel MPI-processes     *
           *              working on a common directory               *
           ************************************************************
-------------------------------------------------------------------------------
                                 ORCA GUESS
                   Start orbitals & Density for SCF / CASSCF
-------------------------------------------------------------------------------

------------
SCF SETTINGS
------------
Hamiltonian:
 Density Functional     Method          .... DFT(GTOs)
 Exchange Functional    Exchange        .... WB88
 Correlation Functional Correlation     .... LYP
 LDA part of GGA corr.  LDAOpt          .... VWN-5
 Gradients option       PostSCFGGA      .... off
 Hybrid DFT is turned on
   Fraction HF Exchange ScalHFX         ....  0.190000
   Scaling of DF-GGA-X  ScalDFX         ....  0.350000
   Scaling of DF-GGA-C  ScalDFC         ....  0.810000
   Scaling of DF-LDA-C  ScalLDAC        ....  1.000000
   Perturbative correction              ....  0.000000
 Long-range corrected/Screened/Range-Separated Hybrid DFT is turned on
   Amount of maximum screened exact exchange              ....  0.460000
   Range separation parameter mu (erf(mu*r12)/r12)        ....  0.330000
 RI-approximation to the Coulomb term is turned on
   Number of AuxJ basis functions       .... 1386
   RIJ-COSX (HFX calculated with COS-X)).... on


General Settings:
 Integral files         IntName         .... tddft
 Hartree-Fock type      HFTyp           .... RHF
 Total Charge           Charge          ....    0
 Multiplicity           Mult            ....    1
 Number of Electrons    NEL             ....  174
 Basis Dimension        Dim             ....  860
 Nuclear Repulsion      ENuc            ....   2155.8576929558 Eh

Convergence Acceleration:
 AO-DIIS                CNVDIIS         .... on
   Start iteration      DIISMaxIt       ....    12
   Startup error        DIISStart       ....  0.200000
   # of expansion vecs  DIISMaxEq       ....     5
   Bias factor          DIISBfac        ....   1.050
   Max. coefficient     DIISMaxC        ....  10.000
 MO-DIIS                CNVKDIIS        .... off
 Trust-Rad. Augm. Hess. CNVTRAH         .... auto
   Auto Start mean grad. ratio tolernc. ....  1.125000
   Auto Start start iteration           ....    50
   Auto Start num. interpolation iter.  ....    10
   Max. Number of Micro iterations      ....    24
   Max. Number of Macro iterations      .... Maxiter - #DIIS iter
   Number of Davidson start vectors     ....     2
   Converg. threshold    (grad. norm)   ....   1.000e-05
   Grad. Scal. Fac. for Micro threshold ....   0.100
   Minimum threshold for Micro iter.    ....   1.000e-02
   NR start threshold (gradient norm)   ....   1.000e-04
   Initial trust radius                 ....   0.400
   Minimum AH scaling param. (alpha)    ....   1.000
   Maximum AH scaling param. (alpha)    .... 1000.000
   Quad. conv. algorithm                .... NR
   White noise on init. David. guess    .... on
   Maximum white noise                  ....   0.010
   Pseudo random numbers                .... off
   Inactive MOs                         .... canonical
   Orbital update algorithm             .... Taylor
   Preconditioner                       .... Diag
   Full preconditioner red. dimension   ....   250
 SOSCF                 CNVSOSCF           .... on
   Start iteration     SOSCFMaxIt         ....   150
   Startup grad/error  SOSCFStart         ....  0.003300
   Hessian update      SOSCFHessUp        .... L-BFGS
   Autom. constraints  SOSCFAutoConstrain .... off
 Level Shifting         CNVShift        .... on
   Level shift para.    LevelShift      ....    0.2500
   Turn off err/grad.   ShiftErr        ....    0.0010
 Zerner damping         CNVZerner       .... off
 Static damping         CNVDamp         .... on
   Fraction old density DampFac         ....    0.7000
   Max. Damping (<1)    DampMax         ....    0.9800
   Min. Damping (>=0)   DampMin         ....    0.0000
   Turn off err/grad.   DampErr         ....    0.1000

SCF Procedure:
 Maximum # iterations   MaxIter         ....   125
 SCF integral mode      SCFMode         .... Direct
   Integral package                     .... SHARK and LIBINT hybrid scheme
 Reset frequency        DirectResetFreq ....    20
 Integral Threshold     Thresh          ....  2.500e-11 Eh
 Primitive CutOff       TCut            ....  2.500e-12 Eh

Convergence Tolerance:
 Convergence Check Mode ConvCheckMode   .... Total+1el-Energy
 Convergence forced     ConvForced      .... 1
 Energy Change          TolE            ....  1.000e-08 Eh
 1-El. energy change                    ....  1.000e-05 Eh
 Orbital Gradient       TolG            ....  1.000e-05
 Orbital Rotation angle TolX            ....  1.000e-05
 DIIS Error             TolErr          ....  5.000e-07

------------------------------
INITIAL GUESS: MODEL POTENTIAL
------------------------------
Loading Hartree-Fock densities                     ... done
Calculating cut-offs                               ... done
Initializing the effective Hamiltonian             ... done
Setting up the integral package (SHARK)            ... done
Starting the Coulomb interaction                   ... done (   1.8 sec)
Making the grid                                    ... done (   0.6 sec)
Mapping shells                                     ... done
Starting the XC term evaluation                    ... done (   1.0 sec)
  promolecular density results
     # of electrons  =    173.997675708
     EX              =   -148.716356810
     EC              =     -5.920044363
     EX+EC           =   -154.636401173
Transforming the Hamiltonian                       ... done (   0.1 sec)
Diagonalizing the Hamiltonian                      ... done (   0.2 sec)
Back transforming the eigenvectors                 ... done (   0.1 sec)
Now organizing SCF variables                       ... done
                      ------------------
                      INITIAL GUESS DONE (   3.8 sec)
                      ------------------
             **** ENERGY FILE WAS UPDATED (tddft.en.tmp) ****
Finished Guess after   4.3 sec
Maximum memory used throughout the entire GUESS-calculation: 86.1 MB


           ************************************************************
           *        Program running with 4 parallel MPI-processes     *
           *              working on a common directory               *
           ************************************************************

-------------------------------------------------------------------------------------------
                                      ORCA LEAN-SCF
                              memory conserving SCF solver
-------------------------------------------------------------------------------------------

----------------------------------------D-I-I-S--------------------------------------------
Iteration    Energy (Eh)           Delta-E    RMSDP     MaxDP     DIISErr   Damp  Time(sec)
-------------------------------------------------------------------------------------------
               ***  Starting incremental Fock matrix formation  ***
    1    -1189.0795443956408235     0.00e+00  2.23e-03  5.30e-02  2.15e-01  0.700 144.3
    2    -1189.3025779855106521    -2.23e-01  1.71e-03  4.01e-02  1.09e-01  0.700  61.9
                               ***Turning on AO-DIIS***
    3    -1189.4103966741590739    -1.08e-01  1.03e-03  3.43e-02  4.44e-02  0.700  60.2
    4    -1189.4743482577691793    -6.40e-02  2.25e-03  8.01e-02  3.02e-02  0.000  66.5
    5    -1189.6111773591528618    -1.37e-01  1.84e-04  4.26e-03  4.85e-03  0.000  77.0
                              *** Initializing SOSCF ***
---------------------------------------S-O-S-C-F--------------------------------------
Iteration    Energy (Eh)           Delta-E    RMSDP     MaxDP     MaxGrad    Time(sec)
--------------------------------------------------------------------------------------
    6    -1189.6116791373751767    -5.02e-04  7.93e-05  1.54e-03  2.16e-03    51.1
               *** Restarting incremental Fock matrix formation ***
    7    -1189.6117703842064657    -9.12e-05  6.81e-05  1.01e-03  1.29e-03   175.1
    8    -1189.6118307965462009    -6.04e-05  9.36e-05  1.46e-03  6.63e-04   131.4
    9    -1189.6118495568557591    -1.88e-05  4.27e-05  7.60e-04  6.14e-04   112.4
   10    -1189.6118631404665393    -1.36e-05  1.22e-05  2.05e-04  1.69e-04   120.7
   11    -1189.6118638451894185    -7.05e-07  4.82e-06  8.68e-05  8.86e-05   115.2
   12    -1189.6118643834211070    -5.38e-07  5.25e-06  1.10e-04  5.32e-05    92.3
   13    -1189.6118644289167605    -4.55e-08  3.78e-06  1.05e-04  2.18e-05    94.5
   14    -1189.6118644555958781    -2.67e-08  4.85e-06  1.33e-04  7.22e-06   108.2
   15    -1189.6118644666184991    -1.10e-08  4.20e-06  1.09e-04  2.63e-06    81.4
   16    -1189.6118645200072024    -5.34e-08  5.62e-06  1.71e-04  8.99e-07    84.3
                  *** Gradient check signals convergence ***

               *****************************************************
               *                     SUCCESS                       *
               *           SCF CONVERGED AFTER  16 CYCLES          *
               *****************************************************

Recomputing exchange energy using gridx3       ... done (  347.364 sec)
Old exchange energy                            :    -42.386685952 Eh
New exchange energy                            :    -42.386688293 Eh
Exchange energy change after final integration :     -0.000002341 Eh
Total energy after final integration           :  -1189.611866846 Eh
             **** ENERGY FILE WAS UPDATED (tddft.en.tmp) ****

----------------
TOTAL SCF ENERGY
----------------

Total Energy       :      -1189.61186684610561 Eh          -32370.98461 eV

Components:
Nuclear Repulsion  :       2155.85769295584805 Eh           58663.87024 eV
Electronic Energy  :      -3345.46955746108551 Eh          -91034.85478 eV
One Electron Energy:      -5908.41903130847095 Eh         -160776.25555 eV
Two Electron Energy:       2562.94947384738543 Eh           69741.40077 eV

Virial components:
Potential Energy   :      -2373.98720632626464 Eh          -64599.47606 eV
Kinetic Energy     :       1184.37533948015903 Eh           32228.49145 eV
Virial Ratio       :          2.00442134109973

DFT components:
N(Alpha)           :       86.999986656867 electrons
N(Beta)            :       86.999986656867 electrons
N(Total)           :      173.999973313734 electrons
E(XC)              :     -115.471435122977 Eh       

---------------
SCF CONVERGENCE
---------------

  Last Energy change         ...    5.3389e-08  Tolerance :   1.0000e-08
  Last MAX-Density change    ...    1.7077e-04  Tolerance :   1.0000e-07
  Last RMS-Density change    ...    5.6238e-06  Tolerance :   5.0000e-09
  Last DIIS Error            ...    2.1629e-03  Tolerance :   5.0000e-07
  Last Orbital Gradient      ...    8.9879e-07  Tolerance :   1.0000e-05
  Last Orbital Rotation      ...    1.2480e-05  Tolerance :   1.0000e-05


----------------
ORBITAL ENERGIES
----------------

  NO   OCC          E(Eh)            E(eV) 
   0   2.0000     -46.837402     -1274.5105 
   1   2.0000     -14.394683      -391.6992 
   2   2.0000     -14.372261      -391.0891 
   3   2.0000     -14.372252      -391.0889 
   4   2.0000     -14.372161      -391.0864 
   5   2.0000     -10.293745      -280.1070 
   6   2.0000     -10.293703      -280.1059 
   7   2.0000     -10.283377      -279.8249 
   8   2.0000     -10.283372      -279.8248 
   9   2.0000     -10.272598      -279.5316 
  10   2.0000     -10.272583      -279.5312 
  11   2.0000     -10.270060      -279.4625 
  12   2.0000     -10.270011      -279.4612 
  13   2.0000     -10.257538      -279.1218 
  14   2.0000     -10.257405      -279.1182 
  15   2.0000     -10.257396      -279.1179 
  16   2.0000     -10.257335      -279.1163 
  17   2.0000     -10.247164      -278.8395 
  18   2.0000     -10.247157      -278.8393 
  19   2.0000     -10.241023      -278.6724 
  20   2.0000     -10.241014      -278.6721 
  21   2.0000     -10.237870      -278.5866 
  22   2.0000     -10.237862      -278.5864 
  23   2.0000     -10.237735      -278.5829 
  24   2.0000     -10.237035      -278.5639 
  25   2.0000      -3.125550       -85.0505 
  26   2.0000      -1.873046       -50.9682 
  27   2.0000      -1.867458       -50.8161 
  28   2.0000      -1.867045       -50.8049 
  29   2.0000      -1.046540       -28.4778 
  30   2.0000      -1.036023       -28.1916 
  31   2.0000      -1.034639       -28.1539 
  32   2.0000      -1.024660       -27.8824 
  33   2.0000      -0.896743       -24.4016 
  34   2.0000      -0.870926       -23.6991 
  35   2.0000      -0.867118       -23.5955 
  36   2.0000      -0.860263       -23.4089 
  37   2.0000      -0.845172       -22.9983 
  38   2.0000      -0.843137       -22.9429 
  39   2.0000      -0.835982       -22.7482 
  40   2.0000      -0.815853       -22.2005 
  41   2.0000      -0.796034       -21.6612 
  42   2.0000      -0.736204       -20.0331 
  43   2.0000      -0.729278       -19.8447 
  44   2.0000      -0.689692       -18.7675 
  45   2.0000      -0.654512       -17.8102 
  46   2.0000      -0.646520       -17.5927 
  47   2.0000      -0.643409       -17.5081 
  48   2.0000      -0.641390       -17.4531 
  49   2.0000      -0.622981       -16.9522 
  50   2.0000      -0.609226       -16.5779 
  51   2.0000      -0.593205       -16.1419 
  52   2.0000      -0.587037       -15.9741 
  53   2.0000      -0.575035       -15.6475 
  54   2.0000      -0.570228       -15.5167 
  55   2.0000      -0.561051       -15.2670 
  56   2.0000      -0.555104       -15.1052 
  57   2.0000      -0.511035       -13.9060 
  58   2.0000      -0.504233       -13.7209 
  59   2.0000      -0.494659       -13.4604 
  60   2.0000      -0.489308       -13.3147 
  61   2.0000      -0.485048       -13.1988 
  62   2.0000      -0.483741       -13.1633 
  63   2.0000      -0.476051       -12.9540 
  64   2.0000      -0.474453       -12.9105 
  65   2.0000      -0.468703       -12.7541 
  66   2.0000      -0.454200       -12.3594 
  67   2.0000      -0.451661       -12.2903 
  68   2.0000      -0.450774       -12.2662 
  69   2.0000      -0.440069       -11.9749 
  70   2.0000      -0.436040       -11.8652 
  71   2.0000      -0.433574       -11.7981 
  72   2.0000      -0.432079       -11.7575 
  73   2.0000      -0.430566       -11.7163 
  74   2.0000      -0.429841       -11.6966 
  75   2.0000      -0.424728       -11.5574 
  76   2.0000      -0.380328       -10.3493 
  77   2.0000      -0.378382       -10.2963 
  78   2.0000      -0.376951       -10.2574 
  79   2.0000      -0.347392        -9.4530 
  80   2.0000      -0.334605        -9.1051 
  81   2.0000      -0.326680        -8.8894 
  82   2.0000      -0.314737        -8.5644 
  83   2.0000      -0.305082        -8.3017 
  84   2.0000      -0.300466        -8.1761 
  85   2.0000      -0.239124        -6.5069 
  86   2.0000      -0.219939        -5.9848 
  87   0.0000      -0.060286        -1.6405 
  88   0.0000      -0.034399        -0.9360 
  89   0.0000       0.037816         1.0290 
  90   0.0000       0.044941         1.2229 
  91   0.0000       0.060849         1.6558 
  92   0.0000       0.073670         2.0047 
  93   0.0000       0.076667         2.0862 
  94   0.0000       0.088926         2.4198 
  95   0.0000       0.095871         2.6088 
  96   0.0000       0.100103         2.7239 
  97   0.0000       0.100444         2.7332 
*Only the first 10 virtual orbitals were printed.

                    ********************************
                    * MULLIKEN POPULATION ANALYSIS *
                    ********************************

-----------------------
MULLIKEN ATOMIC CHARGES
-----------------------
   0 N :   -0.352820
   1 N :   -0.374072
   2 N :   -0.374053
   3 N :   -0.366002
   4 C :   -0.194850
   5 C :   -0.194774
   6 C :    0.177602
   7 C :    0.177633
   8 C :   -0.309946
   9 C :   -0.309603
  10 C :    0.270694
  11 C :    0.270266
  12 C :    0.235332
  13 C :    0.235503
  14 C :   -0.207028
  15 C :   -0.207071
  16 C :   -0.197882
  17 C :   -0.197805
  18 C :   -0.246365
  19 C :   -0.246458
  20 C :    0.236251
  21 C :    0.236290
  22 C :   -0.207739
  23 C :   -0.207969
  24 H :    0.116360
  25 H :    0.123984
  26 H :    0.116373
  27 H :    0.124009
  28 H :    0.114057
  29 H :    0.114115
  30 H :    0.124707
  31 H :    0.124656
  32 H :    0.127580
  33 H :    0.127627
  34 H :    0.123515
  35 H :    0.123502
  36 H :    0.122605
  37 H :    0.122562
  38 Mg:    0.649213
Sum of atomic charges:    0.0000000

--------------------------------
MULLIKEN REDUCED ORBITAL CHARGES
--------------------------------
  0 N s       :     3.683170  s :     3.683170
      pz      :     1.315238  p :     3.611591
      px      :     1.177157
      py      :     1.119196
      dz2     :     0.003791  d :     0.054624
      dxz     :     0.008891
      dyz     :     0.010510
      dx2y2   :     0.016036
      dxy     :     0.015397
      f0      :     0.000648  f :     0.003435
      f+1     :     0.000295
      f-1     :     0.000317
      f+2     :     0.000469
      f-2     :     0.000106
      f+3     :     0.000916
      f-3     :     0.000685

  1 N s       :     3.680432  s :     3.680432
      pz      :     1.381710  p :     3.636479
      px      :     1.108058
      py      :     1.146711
      dz2     :     0.003972  d :     0.053655
      dxz     :     0.010054
      dyz     :     0.008860
      dx2y2   :     0.015603
      dxy     :     0.015165
      f0      :     0.000658  f :     0.003506
      f+1     :     0.000364
      f-1     :     0.000329
      f+2     :     0.000567
      f-2     :     0.000082
      f+3     :     0.000678
      f-3     :     0.000827

  2 N s       :     3.680425  s :     3.680425
      pz      :     1.381722  p :     3.636467
      px      :     1.098138
      py      :     1.156608
      dz2     :     0.003974  d :     0.053654
      dxz     :     0.010547
      dyz     :     0.008366
      dx2y2   :     0.015252
      dxy     :     0.015515
      f0      :     0.000658  f :     0.003506
      f+1     :     0.000344
      f-1     :     0.000349
      f+2     :     0.000553
      f-2     :     0.000097
      f+3     :     0.000627
      f-3     :     0.000878

  3 N s       :     3.682888  s :     3.682888
      pz      :     1.353904  p :     3.624115
      px      :     1.159437
      py      :     1.110773
      dz2     :     0.003963  d :     0.055447
      dxz     :     0.009305
      dyz     :     0.011297
      dx2y2   :     0.015493
      dxy     :     0.015388
      f0      :     0.000654  f :     0.003552
      f+1     :     0.000332
      f-1     :     0.000346
      f+2     :     0.000626
      f-2     :     0.000088
      f+3     :     0.000852
      f-3     :     0.000653

  4 C s       :     3.223035  s :     3.223035
      pz      :     1.050730  p :     2.893462
      px      :     0.879840
      py      :     0.962892
      dz2     :     0.002819  d :     0.072566
      dxz     :     0.016906
      dyz     :     0.014125
      dx2y2   :     0.022775
      dxy     :     0.015941
      f0      :     0.000623  f :     0.005788
      f+1     :     0.000148
      f-1     :     0.001237
      f+2     :     0.000332
      f-2     :     0.000726
      f+3     :     0.001334
      f-3     :     0.001389

  5 C s       :     3.223079  s :     3.223079
      pz      :     1.050780  p :     2.893373
      px      :     0.958326
      py      :     0.884267
      dz2     :     0.002837  d :     0.072535
      dxz     :     0.013740
      dyz     :     0.017247
      dx2y2   :     0.022820
      dxy     :     0.015891
      f0      :     0.000627  f :     0.005787
      f+1     :     0.001267
      f-1     :     0.000114
      f+2     :     0.000267
      f-2     :     0.000790
      f+3     :     0.001162
      f-3     :     0.001560

  6 C s       :     3.179123  s :     3.179123
      pz      :     0.861689  p :     2.471367
      px      :     0.888724
      py      :     0.720954
      dz2     :     0.002671  d :     0.157700
      dxz     :     0.028197
      dyz     :     0.039476
      dx2y2   :     0.041322
      dxy     :     0.046034
      f0      :     0.001993  f :     0.014208
      f+1     :     0.000667
      f-1     :     0.001086
      f+2     :     0.001749
      f-2     :     0.001201
      f+3     :     0.005023
      f-3     :     0.002488

  7 C s       :     3.179255  s :     3.179255
      pz      :     0.861682  p :     2.471215
      px      :     0.731960
      py      :     0.877573
      dz2     :     0.002696  d :     0.157689
      dxz     :     0.034405
      dyz     :     0.033248
      dx2y2   :     0.043552
      dxy     :     0.043789
      f0      :     0.001992  f :     0.014208
      f+1     :     0.001087
      f-1     :     0.000667
      f+2     :     0.001541
      f-2     :     0.001409
      f+3     :     0.003559
      f-3     :     0.003952

  8 C s       :     3.266358  s :     3.266358
      pz      :     1.114168  p :     2.976957
      px      :     0.870953
      py      :     0.991837
      dz2     :     0.003531  d :     0.059566
      dxz     :     0.023441
      dyz     :     0.003133
      dx2y2   :     0.021637
      dxy     :     0.007824
      f0      :     0.001502  f :     0.007066
      f+1     :     0.000543
      f-1     :     0.000600
      f+2     :     0.000392
      f-2     :     0.000753
      f+3     :     0.001944
      f-3     :     0.001332

  9 C s       :     3.265977  s :     3.265977
      pz      :     1.114072  p :     2.976984
      px      :     0.986907
      py      :     0.876005
      dz2     :     0.003530  d :     0.059577
      dxz     :     0.003146
      dyz     :     0.023428
      dx2y2   :     0.021838
      dxy     :     0.007635
      f0      :     0.001502  f :     0.007066
      f+1     :     0.000607
      f-1     :     0.000536
      f+2     :     0.000414
      f-2     :     0.000731
      f+3     :     0.001418
      f-3     :     0.001857

 10 C s       :     3.156456  s :     3.156456
      pz      :     0.857248  p :     2.399079
      px      :     0.819394
      py      :     0.722436
      dz2     :     0.003752  d :     0.159007
      dxz     :     0.035696
      dyz     :     0.036980
      dx2y2   :     0.040707
      dxy     :     0.041872
      f0      :     0.002197  f :     0.014764
      f+1     :     0.000752
      f-1     :     0.001067
      f+2     :     0.001959
      f-2     :     0.001177
      f+3     :     0.004275
      f-3     :     0.003337

 11 C s       :     3.156758  s :     3.156758
      pz      :     0.857245  p :     2.399227
      px      :     0.716555
      py      :     0.825427
      dz2     :     0.003760  d :     0.158988
      dxz     :     0.039327
      dyz     :     0.033324
      dx2y2   :     0.038118
      dxy     :     0.044458
      f0      :     0.002196  f :     0.014762
      f+1     :     0.001109
      f-1     :     0.000711
      f+2     :     0.002380
      f-2     :     0.000756
      f+3     :     0.002504
      f-3     :     0.005106

 12 C s       :     3.142353  s :     3.142353
      pz      :     0.936598  p :     2.458645
      px      :     0.700482
      py      :     0.821565
      dz2     :     0.004416  d :     0.149303
      dxz     :     0.037027
      dyz     :     0.028639
      dx2y2   :     0.037659
      dxy     :     0.041562
      f0      :     0.002187  f :     0.014367
      f+1     :     0.001116
      f-1     :     0.000709
      f+2     :     0.002273
      f-2     :     0.000593
      f+3     :     0.002468
      f-3     :     0.005021

 13 C s       :     3.142188  s :     3.142188
      pz      :     0.936625  p :     2.458608
      px      :     0.813292
      py      :     0.708691
      dz2     :     0.004418  d :     0.149332
      dxz     :     0.030345
      dyz     :     0.035325
      dx2y2   :     0.039532
      dxy     :     0.039712
      f0      :     0.002187  f :     0.014369
      f+1     :     0.000743
      f-1     :     0.001082
      f+2     :     0.001778
      f-2     :     0.001088
      f+3     :     0.004236
      f-3     :     0.003254

 14 C s       :     3.243620  s :     3.243620
      pz      :     1.026725  p :     2.884638
      px      :     0.900167
      py      :     0.957746
      dz2     :     0.004940  d :     0.071102
      dxz     :     0.020178
      dyz     :     0.007100
      dx2y2   :     0.024495
      dxy     :     0.014388
      f0      :     0.001516  f :     0.007668
      f+1     :     0.000415
      f-1     :     0.000761
      f+2     :     0.000065
      f-2     :     0.001227
      f+3     :     0.002183
      f-3     :     0.001499

 15 C s       :     3.243769  s :     3.243769
      pz      :     1.026770  p :     2.884531
      px      :     0.964117
      py      :     0.893644
      dz2     :     0.004941  d :     0.071103
      dxz     :     0.008517
      dyz     :     0.018763
      dx2y2   :     0.025312
      dxy     :     0.013570
      f0      :     0.001516  f :     0.007668
      f+1     :     0.000721
      f-1     :     0.000456
      f+2     :     0.000367
      f-2     :     0.000925
      f+3     :     0.002007
      f-3     :     0.001676

 16 C s       :     3.256373  s :     3.256373
      pz      :     0.977404  p :     2.858381
      px      :     0.974881
      py      :     0.906095
      dz2     :     0.004799  d :     0.075364
      dxz     :     0.009181
      dyz     :     0.023467
      dx2y2   :     0.024491
      dxy     :     0.013425
      f0      :     0.001494  f :     0.007764
      f+1     :     0.000703
      f-1     :     0.000437
      f+2     :     0.000492
      f-2     :     0.000963
      f+3     :     0.002017
      f-3     :     0.001657

 17 C s       :     3.256179  s :     3.256179
      pz      :     0.977385  p :     2.858502
      px      :     0.911318
      py      :     0.969799
      dz2     :     0.004803  d :     0.075360
      dxz     :     0.025556
      dyz     :     0.007091
      dx2y2   :     0.023779
      dxy     :     0.014132
      f0      :     0.001494  f :     0.007764
      f+1     :     0.000396
      f-1     :     0.000744
      f+2     :     0.000103
      f-2     :     0.001353
      f+3     :     0.002174
      f-3     :     0.001500

 18 C s       :     3.269023  s :     3.269023
      pz      :     0.975829  p :     2.896447
      px      :     1.013619
      py      :     0.906999
      dz2     :     0.003591  d :     0.073903
      dxz     :     0.003014
      dyz     :     0.033210
      dx2y2   :     0.024690
      dxy     :     0.009397
      f0      :     0.001417  f :     0.006993
      f+1     :     0.000546
      f-1     :     0.000483
      f+2     :     0.000414
      f-2     :     0.000818
      f+3     :     0.001374
      f-3     :     0.001942

 19 C s       :     3.269177  s :     3.269177
      pz      :     0.975801  p :     2.896387
      px      :     0.906890
      py      :     1.013695
      dz2     :     0.003591  d :     0.073901
      dxz     :     0.033140
      dyz     :     0.003088
      dx2y2   :     0.024261
      dxy     :     0.009821
      f0      :     0.001417  f :     0.006993
      f+1     :     0.000477
      f-1     :     0.000551
      f+2     :     0.000424
      f-2     :     0.000808
      f+3     :     0.001938
      f-3     :     0.001377

 20 C s       :     3.143440  s :     3.143440
      pz      :     0.934239  p :     2.456479
      px      :     0.716816
      py      :     0.805424
      dz2     :     0.004258  d :     0.149278
      dxz     :     0.034964
      dyz     :     0.029721
      dx2y2   :     0.039877
      dxy     :     0.040458
      f0      :     0.002206  f :     0.014552
      f+1     :     0.001078
      f-1     :     0.000774
      f+2     :     0.001782
      f-2     :     0.001128
      f+3     :     0.003317
      f-3     :     0.004267

 21 C s       :     3.143575  s :     3.143575
      pz      :     0.934258  p :     2.456330
      px      :     0.814390
      py      :     0.707682
      dz2     :     0.004259  d :     0.149255
      dxz     :     0.029102
      dyz     :     0.035573
      dx2y2   :     0.036977
      dxy     :     0.043345
      f0      :     0.002205  f :     0.014550
      f+1     :     0.000729
      f-1     :     0.001123
      f+2     :     0.002285
      f-2     :     0.000625
      f+3     :     0.005097
      f-3     :     0.002486

 22 C s       :     3.248221  s :     3.248221
      pz      :     1.013910  p :     2.878257
      px      :     0.959134
      py      :     0.905214
      dz2     :     0.004907  d :     0.073452
      dxz     :     0.006863
      dyz     :     0.023832
      dx2y2   :     0.023857
      dxy     :     0.013993
      f0      :     0.001518  f :     0.007810
      f+1     :     0.000767
      f-1     :     0.000411
      f+2     :     0.000076
      f-2     :     0.001380
      f+3     :     0.001486
      f-3     :     0.002172

 23 C s       :     3.248598  s :     3.248598
      pz      :     1.013914  p :     2.878104
      px      :     0.899595
      py      :     0.964595
      dz2     :     0.004904  d :     0.073457
      dxz     :     0.022080
      dyz     :     0.008621
      dx2y2   :     0.024395
      dxy     :     0.013457
      f0      :     0.001518  f :     0.007810
      f+1     :     0.000447
      f-1     :     0.000730
      f+2     :     0.000440
      f-2     :     0.001016
      f+3     :     0.001685
      f-3     :     0.001973

 24 H s       :     0.862168  s :     0.862168
      pz      :     0.010729  p :     0.021472
      px      :     0.004188
      py      :     0.006555

 25 H s       :     0.854662  s :     0.854662
      pz      :     0.008547  p :     0.021354
      px      :     0.004180
      py      :     0.008628

 26 H s       :     0.862154  s :     0.862154
      pz      :     0.010750  p :     0.021473
      px      :     0.006691
      py      :     0.004031

 27 H s       :     0.854634  s :     0.854634
      pz      :     0.008529  p :     0.021356
      px      :     0.008756
      py      :     0.004071

 28 H s       :     0.863436  s :     0.863436
      pz      :     0.005724  p :     0.022507
      px      :     0.003216
      py      :     0.013567

 29 H s       :     0.863379  s :     0.863379
      pz      :     0.005724  p :     0.022506
      px      :     0.013511
      py      :     0.003270

 30 H s       :     0.853206  s :     0.853206
      pz      :     0.004882  p :     0.022088
      px      :     0.003303
      py      :     0.013902

 31 H s       :     0.853256  s :     0.853256
      pz      :     0.004882  p :     0.022087
      px      :     0.013338
      py      :     0.003867

 32 H s       :     0.850487  s :     0.850487
      pz      :     0.004573  p :     0.021933
      px      :     0.013409
      py      :     0.003951

 33 H s       :     0.850439  s :     0.850439
      pz      :     0.004573  p :     0.021933
      px      :     0.003365
      py      :     0.013996

 34 H s       :     0.854410  s :     0.854410
      pz      :     0.004810  p :     0.022075
      px      :     0.013936
      py      :     0.003329

 35 H s       :     0.854423  s :     0.854423
      pz      :     0.004810  p :     0.022075
      px      :     0.003312
      py      :     0.013953

 36 H s       :     0.855366  s :     0.855366
      pz      :     0.004827  p :     0.022030
      px      :     0.013862
      py      :     0.003341

 37 H s       :     0.855408  s :     0.855408
      pz      :     0.004827  p :     0.022030
      px      :     0.003912
      py      :     0.013290

 38 Mgs       :     4.598630  s :     4.598630
      pz      :     2.088073  p :     6.476111
      px      :     2.192534
      py      :     2.195503
      dz2     :     0.032896  d :     0.276046
      dxz     :     0.025129
      dyz     :     0.026786
      dx2y2   :     0.017017
      dxy     :     0.174217



                     *******************************
                     * LOEWDIN POPULATION ANALYSIS *
                     *******************************

----------------------
LOEWDIN ATOMIC CHARGES
----------------------
   0 N :    0.187023
   1 N :    0.169133
   2 N :    0.169113
   3 N :    0.179649
   4 C :   -0.193752
   5 C :   -0.193706
   6 C :   -0.185896
   7 C :   -0.185903
   8 C :   -0.137597
   9 C :   -0.137592
  10 C :   -0.186235
  11 C :   -0.186153
  12 C :   -0.203444
  13 C :   -0.203526
  14 C :   -0.122099
  15 C :   -0.122120
  16 C :   -0.104580
  17 C :   -0.104583
  18 C :   -0.067333
  19 C :   -0.067314
  20 C :   -0.206482
  21 C :   -0.206429
  22 C :   -0.123354
  23 C :   -0.123352
  24 H :    0.146553
  25 H :    0.143931
  26 H :    0.146543
  27 H :    0.143930
  28 H :    0.155931
  29 H :    0.155927
  30 H :    0.138879
  31 H :    0.138877
  32 H :    0.140937
  33 H :    0.140937
  34 H :    0.160448
  35 H :    0.160449
  36 H :    0.138422
  37 H :    0.138422
  38 Mg:    0.306348

-------------------------------
LOEWDIN REDUCED ORBITAL CHARGES
-------------------------------
  0 N s       :     2.973553  s :     2.973553
      pz      :     1.150610  p :     3.616285
      px      :     1.256163
      py      :     1.209512
      dz2     :     0.016150  d :     0.204813
      dxz     :     0.023036
      dyz     :     0.029558
      dx2y2   :     0.072992
      dxy     :     0.063077
      f0      :     0.001158  f :     0.018326
      f+1     :     0.001217
      f-1     :     0.001431
      f+2     :     0.002928
      f-2     :     0.000446
      f+3     :     0.006526
      f-3     :     0.004620

  1 N s       :     2.971711  s :     2.971711
      pz      :     1.207845  p :     3.642970
      px      :     1.188160
      py      :     1.246965
      dz2     :     0.015958  d :     0.197817
      dxz     :     0.030230
      dyz     :     0.022778
      dx2y2   :     0.068940
      dxy     :     0.059912
      f0      :     0.001099  f :     0.018369
      f+1     :     0.001376
      f-1     :     0.001269
      f+2     :     0.003448
      f-2     :     0.000286
      f+3     :     0.004760
      f-3     :     0.006131

  2 N s       :     2.971714  s :     2.971714
      pz      :     1.207867  p :     3.642992
      px      :     1.201472
      py      :     1.233653
      dz2     :     0.015961  d :     0.197814
      dxz     :     0.029056
      dyz     :     0.023956
      dx2y2   :     0.067999
      dxy     :     0.060842
      f0      :     0.001100  f :     0.018368
      f+1     :     0.001454
      f-1     :     0.001190
      f+2     :     0.003358
      f-2     :     0.000376
      f+3     :     0.004502
      f-3     :     0.006388

  3 N s       :     2.973189  s :     2.973189
      pz      :     1.185814  p :     3.626936
      px      :     1.243269
      py      :     1.197853
      dz2     :     0.015896  d :     0.201597
      dxz     :     0.025092
      dyz     :     0.032343
      dx2y2   :     0.068074
      dxy     :     0.060194
      f0      :     0.001069  f :     0.018629
      f+1     :     0.001212
      f-1     :     0.001395
      f+2     :     0.003767
      f-2     :     0.000313
      f+3     :     0.006250
      f-3     :     0.004623

  4 C s       :     2.763709  s :     2.763709
      pz      :     1.035930  p :     3.028703
      px      :     0.988864
      py      :     1.003909
      dz2     :     0.041647  d :     0.360925
      dxz     :     0.048844
      dyz     :     0.094130
      dx2y2   :     0.091547
      dxy     :     0.084757
      f0      :     0.004011  f :     0.040415
      f+1     :     0.003277
      f-1     :     0.004400
      f+2     :     0.004516
      f-2     :     0.005179
      f+3     :     0.009234
      f-3     :     0.009798

  5 C s       :     2.763720  s :     2.763720
      pz      :     1.035927  p :     3.028716
      px      :     1.002608
      py      :     0.990181
      dz2     :     0.041792  d :     0.360859
      dxz     :     0.093919
      dyz     :     0.048853
      dx2y2   :     0.087091
      dxy     :     0.089203
      f0      :     0.004024  f :     0.040411
      f+1     :     0.004426
      f-1     :     0.003232
      f+2     :     0.004500
      f-2     :     0.005206
      f+3     :     0.007606
      f-3     :     0.011418

  6 C s       :     2.712063  s :     2.712063
      pz      :     0.804009  p :     2.765253
      px      :     1.015528
      py      :     0.945716
      dz2     :     0.040989  d :     0.631315
      dxz     :     0.085394
      dyz     :     0.114629
      dx2y2   :     0.191471
      dxy     :     0.198832
      f0      :     0.005167  f :     0.077266
      f+1     :     0.004176
      f-1     :     0.006311
      f+2     :     0.011251
      f-2     :     0.006630
      f+3     :     0.030275
      f-3     :     0.013455

  7 C s       :     2.712076  s :     2.712076
      pz      :     0.804070  p :     2.765264
      px      :     0.938654
      py      :     1.022540
      dz2     :     0.041026  d :     0.631299
      dxz     :     0.101930
      dyz     :     0.098061
      dx2y2   :     0.188861
      dxy     :     0.201421
      f0      :     0.005166  f :     0.077265
      f+1     :     0.005996
      f-1     :     0.004497
      f+2     :     0.010326
      f-2     :     0.007554
      f+3     :     0.020543
      f-3     :     0.023183

  8 C s       :     2.742372  s :     2.742372
      pz      :     0.981143  p :     2.996206
      px      :     1.028331
      py      :     0.986731
      dz2     :     0.024933  d :     0.358866
      dxz     :     0.072221
      dyz     :     0.010970
      dx2y2   :     0.154436
      dxy     :     0.096305
      f0      :     0.003182  f :     0.040153
      f+1     :     0.004886
      f-1     :     0.003177
      f+2     :     0.002023
      f-2     :     0.005419
      f+3     :     0.012273
      f-3     :     0.009193

  9 C s       :     2.742386  s :     2.742386
      pz      :     0.981122  p :     2.996193
      px      :     0.984280
      py      :     1.030791
      dz2     :     0.024934  d :     0.358862
      dxz     :     0.011387
      dyz     :     0.071825
      dx2y2   :     0.151728
      dxy     :     0.098988
      f0      :     0.003183  f :     0.040151
      f+1     :     0.003155
      f-1     :     0.004907
      f+2     :     0.002115
      f-2     :     0.005329
      f+3     :     0.009297
      f-3     :     0.012165

 10 C s       :     2.697675  s :     2.697675
      pz      :     0.802501  p :     2.761760
      px      :     1.011832
      py      :     0.947428
      dz2     :     0.042246  d :     0.645745
      dxz     :     0.094919
      dyz     :     0.115559
      dx2y2   :     0.193978
      dxy     :     0.199043
      f0      :     0.004986  f :     0.081056
      f+1     :     0.004667
      f-1     :     0.006073
      f+2     :     0.012561
      f-2     :     0.007794
      f+3     :     0.026130
      f-3     :     0.018845

 11 C s       :     2.697693  s :     2.697693
      pz      :     0.802550  p :     2.761758
      px      :     0.947019
      py      :     1.012189
      dz2     :     0.042256  d :     0.645661
      dxz     :     0.120973
      dyz     :     0.089473
      dx2y2   :     0.190018
      dxy     :     0.202941
      f0      :     0.004985  f :     0.081040
      f+1     :     0.006331
      f-1     :     0.004409
      f+2     :     0.014822
      f-2     :     0.005530
      f+3     :     0.013638
      f-3     :     0.031324

 12 C s       :     2.693623  s :     2.693623
      pz      :     0.863590  p :     2.805870
      px      :     0.927671
      py      :     1.014609
      dz2     :     0.042272  d :     0.625280
      dxz     :     0.115657
      dyz     :     0.076889
      dx2y2   :     0.194558
      dxy     :     0.195904
      f0      :     0.005013  f :     0.078672
      f+1     :     0.006309
      f-1     :     0.004640
      f+2     :     0.013926
      f-2     :     0.004301
      f+3     :     0.013926
      f-3     :     0.030557

 13 C s       :     2.693607  s :     2.693607
      pz      :     0.863592  p :     2.805899
      px      :     1.015471
      py      :     0.926836
      dz2     :     0.042281  d :     0.625336
      dxz     :     0.080380
      dyz     :     0.112188
      dx2y2   :     0.194968
      dxy     :     0.195518
      f0      :     0.005014  f :     0.078683
      f+1     :     0.004923
      f-1     :     0.006028
      f+2     :     0.011108
      f-2     :     0.007123
      f+3     :     0.025866
      f-3     :     0.018623

 14 C s       :     2.759947  s :     2.759947
      pz      :     0.925228  p :     2.952165
      px      :     1.027915
      py      :     0.999023
      dz2     :     0.026780  d :     0.363329
      dxz     :     0.065189
      dyz     :     0.017389
      dx2y2   :     0.150662
      dxy     :     0.103310
      f0      :     0.002996  f :     0.046658
      f+1     :     0.003857
      f-1     :     0.003960
      f+2     :     0.000531
      f-2     :     0.008516
      f+3     :     0.017073
      f-3     :     0.009724

 15 C s       :     2.759940  s :     2.759940
      pz      :     0.925254  p :     2.952186
[...]
     Transition      Energy     Energy  Wavelength fosc(P2)      P2        PX        PY        PZ   
                      (eV)      (cm-1)    (nm)                 (au**2)    (au)      (au)      (au)  
----------------------------------------------------------------------------------------------------
  0-1A  ->  1-1A    2.421008   19526.7   512.1   0.106769478   0.01425   0.07549  -0.09247   0.00067
  0-1A  ->  2-1A    2.720910   21945.6   455.7   0.000011468   0.00000   0.00101   0.00084   0.00000
  0-1A  ->  3-1A    4.142050   33407.9   299.3   0.000000068   0.00000  -0.00005  -0.00011   0.00002
  0-1A  ->  4-1A    4.158662   33541.9   298.1   0.006075956   0.00139   0.02359  -0.02891   0.00044
  0-1A  ->  5-1A    4.229092   34109.9   293.2   0.002677277   0.00062   0.01579  -0.01936  -0.00029
  0-1A  ->  6-1A    4.266462   34411.3   290.6   0.000040897   0.00001  -0.00237  -0.00201   0.00002
  0-1A  ->  7-1A    4.694062   37860.2   264.1   0.004391644   0.00114  -0.02613  -0.02130  -0.00007
  0-1A  ->  8-1A    4.781754   38567.4   259.3   0.000029545   0.00001  -0.00217  -0.00176  -0.00000
  0-1A  ->  9-1A    4.815636   38840.7   257.5   0.000039777   0.00001   0.00205  -0.00252  -0.00003
  0-1A  -> 10-1A    4.975157   40127.4   249.2   0.000193371   0.00005  -0.00260   0.00318  -0.00601
  0-1A  -> 11-1A    5.106939   41190.2   242.8   0.007552576   0.00213   0.02914  -0.03571   0.00130
  0-1A  -> 12-1A    5.133032   41400.7   241.5   0.000018789   0.00001  -0.00125   0.00153   0.00119
  0-1A  -> 13-1A    5.257324   42403.2   235.8   0.002110348   0.00061  -0.01912  -0.01568  -0.00002
  0-1A  -> 14-1A    5.373373   43339.2   230.7   0.008628560   0.00256   0.03195  -0.03917  -0.00096
  0-1A  -> 15-1A    5.421687   43728.9   228.7   0.000288592   0.00009  -0.00723  -0.00583  -0.00003
  0-1A  -> 16-1A    5.443659   43906.1   227.8   0.000125680   0.00004  -0.00475  -0.00389  -0.00001
  0-1A  -> 17-1A    5.461560   44050.5   227.0   0.000022913   0.00001  -0.00205  -0.00164  -0.00001
  0-1A  -> 18-1A    5.542187   44700.8   223.7   0.023241505   0.00710  -0.05328   0.06528   0.00039
  0-1A  -> 19-1A    5.644536   45526.3   219.7   0.013206922   0.00411   0.04052  -0.04967  -0.00049
  0-1A  -> 20-1A    5.683454   45840.2   218.1   0.000985304   0.00031   0.01362   0.01110   0.00003
  0-1A  -> 21-1A    5.870231   47346.6   211.2   0.008851014   0.00286   0.00139  -0.00187   0.05347
  0-1A  -> 22-1A    5.985221   48274.1   207.2   0.000141072   0.00005  -0.00529  -0.00431   0.00000
  0-1A  -> 23-1A    5.998303   48379.6   206.7   0.000031774   0.00001   0.00250   0.00207   0.00002
  0-1A  -> 24-1A    6.042055   48732.5   205.2   0.006515804   0.00217   0.02935  -0.03603  -0.00324
  0-1A  -> 25-1A    6.077736   49020.2   204.0   0.000113455   0.00004   0.00473   0.00395  -0.00000
  0-1A  -> 26-1A    6.267928   50554.3   197.8   0.015277772   0.00528   0.05631   0.04592   0.00009
  0-1A  -> 27-1A    6.316859   50948.9   196.3   0.000213708   0.00007   0.00176  -0.00199   0.00821
  0-1A  -> 28-1A    6.326638   51027.8   196.0   0.000230701   0.00008  -0.00557   0.00684   0.00161
  0-1A  -> 29-1A    6.385400   51501.7   194.2   0.000009252   0.00000  -0.00140  -0.00114  -0.00001
  0-1A  -> 30-1A    6.440629   51947.2   192.5   0.000132543   0.00005  -0.00303   0.00369   0.00492

------------------------------------------------------------------------------------------
                     CD SPECTRUM VIA TRANSITION ELECTRIC DIPOLE MOMENTS    
------------------------------------------------------------------------------------------
     Transition      Energy     Energy  Wavelength    R        MX        MY        MZ   
                      (eV)      (cm-1)    (nm)   (1e40*cgs)   (au)      (au)      (au)  
------------------------------------------------------------------------------------------
  0-1A  ->  1-1A    2.421008   19526.7   512.1   -1.45497   0.00578  -0.00367  -1.15625
  0-1A  ->  2-1A    2.720910   21945.6   455.7   -0.07747  -0.00145  -0.00119  -0.00025
  0-1A  ->  3-1A    4.142050   33407.9   299.3   -4.05790   0.00204   0.00153   0.00078
  0-1A  ->  4-1A    4.158662   33541.9   298.1   -1.20359   0.00365  -0.00574   0.40461
  0-1A  ->  5-1A    4.229092   34109.9   293.2  -18.04559   0.00668  -0.00799  -0.06387
  0-1A  ->  6-1A    4.266462   34411.3   290.6   -4.91690   0.00375   0.00301   0.00037
  0-1A  ->  7-1A    4.694062   37860.2   264.1   -4.12504  -0.00311  -0.00252  -0.00001
  0-1A  ->  8-1A    4.781754   38567.4   259.3   -0.54045  -0.01545  -0.01264   0.00010
  0-1A  ->  9-1A    4.815636   38840.7   257.5   -2.16716  -0.00357   0.00333   0.36808
  0-1A  -> 10-1A    4.975157   40127.4   249.2   21.58437  -0.21626   0.26502   0.02866
  0-1A  -> 11-1A    5.106939   41190.2   242.8   -4.02870  -0.00685   0.00969  -0.45588
  0-1A  -> 12-1A    5.133032   41400.7   241.5    1.04252  -0.01906   0.02326   0.01979
  0-1A  -> 13-1A    5.257324   42403.2   235.8    1.94133  -0.00313  -0.00263  -0.00014
  0-1A  -> 14-1A    5.373373   43339.2   230.7    8.48566   0.00027   0.00213  -0.82196
  0-1A  -> 15-1A    5.421687   43728.9   228.7    3.58916  -0.02824  -0.02303   0.00026
  0-1A  -> 16-1A    5.443659   43906.1   227.8   12.58149  -0.02935  -0.02394  -0.00023
  0-1A  -> 17-1A    5.461560   44050.5   227.0  -18.68362   0.21475   0.17523   0.00063
  0-1A  -> 18-1A    5.542187   44700.8   223.7    0.39632  -0.00326   0.00307   0.29679
  0-1A  -> 19-1A    5.644536   45526.3   219.7   -0.11405   0.00008  -0.00003  -0.05179
  0-1A  -> 20-1A    5.683454   45840.2   218.1   -0.31551   0.00712   0.00586  -0.00041
  0-1A  -> 21-1A    5.870231   47346.6   211.2   -0.18418   0.00894  -0.01087   0.01324
  0-1A  -> 22-1A    5.985221   48274.1   207.2   -1.24639  -0.07940  -0.06491  -0.00028
  0-1A  -> 23-1A    5.998303   48379.6   206.7   -1.88565  -0.09479  -0.07722  -0.00022
  0-1A  -> 24-1A    6.042055   48732.5   205.2    5.39579   0.00813  -0.00962  -0.14799
  0-1A  -> 25-1A    6.077736   49020.2   204.0    1.16830  -0.01880  -0.01532   0.00009
  0-1A  -> 26-1A    6.267928   50554.3   197.8   -1.83372  -0.01532  -0.01222  -0.00010
  0-1A  -> 27-1A    6.316859   50948.9   196.3   -1.70095   0.05012  -0.06142   0.00617
  0-1A  -> 28-1A    6.326638   51027.8   196.0    0.78411   0.02487  -0.03044  -0.04497
  0-1A  -> 29-1A    6.385400   51501.7   194.2    0.06755  -0.00832  -0.00686  -0.00003
  0-1A  -> 30-1A    6.440629   51947.2   192.5   -2.46582   0.08700  -0.10578  -0.00317

------------------------------------------------------------------------------------------
                     CD SPECTRUM VIA TRANSITION VELOCITY DIPOLE MOMENTS    
------------------------------------------------------------------------------------------
     Transition      Energy     Energy  Wavelength    R        MX        MY        MZ   
                      (eV)      (cm-1)    (nm)   (1e40*cgs)   (au)      (au)      (au)  
------------------------------------------------------------------------------------------
  0-1A  ->  1-1A    2.421008   19526.7   512.1    0.02059   0.00578  -0.00367  -1.15625
  0-1A  ->  2-1A    2.720910   21945.6   455.7   -0.01159  -0.00145  -0.00119  -0.00025
  0-1A  ->  3-1A    4.142050   33407.9   299.3   -0.00079   0.00204   0.00153   0.00078
  0-1A  ->  4-1A    4.158662   33541.9   298.1    1.33263   0.00365  -0.00574   0.40461
  0-1A  ->  5-1A    4.229092   34109.9   293.2    0.84499   0.00668  -0.00799  -0.06387
  0-1A  ->  6-1A    4.266462   34411.3   290.6   -0.04480   0.00375   0.00301   0.00037
  0-1A  ->  7-1A    4.694062   37860.2   264.1    0.36880  -0.00311  -0.00252  -0.00001
  0-1A  ->  8-1A    4.781754   38567.4   259.3    0.14943  -0.01545  -0.01264   0.00010
  0-1A  ->  9-1A    4.815636   38840.7   257.5   -0.07241  -0.00357   0.00333   0.36808
  0-1A  -> 10-1A    4.975157   40127.4   249.2    3.18347  -0.21626   0.26502   0.02866
  0-1A  -> 11-1A    5.106939   41190.2   242.8   -2.86334  -0.00685   0.00969  -0.45588
  0-1A  -> 12-1A    5.133032   41400.7   241.5    0.20725  -0.01906   0.02326   0.01979
  0-1A  -> 13-1A    5.257324   42403.2   235.8    0.24693  -0.00313  -0.00263  -0.00014
  0-1A  -> 14-1A    5.373373   43339.2   230.7    1.70337   0.00027   0.00213  -0.82196
  0-1A  -> 15-1A    5.421687   43728.9   228.7    0.80076  -0.02824  -0.02303   0.00026
  0-1A  -> 16-1A    5.443659   43906.1   227.8    0.54821  -0.02935  -0.02394  -0.00023
  0-1A  -> 17-1A    5.461560   44050.5   227.0   -1.70991   0.21475   0.17523   0.00063
  0-1A  -> 18-1A    5.542187   44700.8   223.7    1.13694  -0.00326   0.00307   0.29679
  0-1A  -> 19-1A    5.644536   45526.3   219.7    0.06903   0.00008  -0.00003  -0.05179
  0-1A  -> 20-1A    5.683454   45840.2   218.1    0.36560   0.00712   0.00586  -0.00041
  0-1A  -> 21-1A    5.870231   47346.6   211.2    1.61839   0.00894  -0.01087   0.01324
  0-1A  -> 22-1A    5.985221   48274.1   207.2    1.49961  -0.07940  -0.06491  -0.00028
  0-1A  -> 23-1A    5.998303   48379.6   206.7   -0.84752  -0.09479  -0.07722  -0.00022
  0-1A  -> 24-1A    6.042055   48732.5   205.2    2.25905   0.00813  -0.00962  -0.14799
  0-1A  -> 25-1A    6.077736   49020.2   204.0   -0.31561  -0.01880  -0.01532   0.00009
  0-1A  -> 26-1A    6.267928   50554.3   197.8   -2.91361  -0.01532  -0.01222  -0.00010
  0-1A  -> 27-1A    6.316859   50948.9   196.3    0.53108   0.05012  -0.06142   0.00617
  0-1A  -> 28-1A    6.326638   51027.8   196.0   -0.84983   0.02487  -0.03044  -0.04497
  0-1A  -> 29-1A    6.385400   51501.7   194.2    0.03909  -0.00832  -0.00686  -0.00003
  0-1A  -> 30-1A    6.440629   51947.2   192.5   -1.33456   0.08700  -0.10578  -0.00317

Total run time:     5962.177 sec

           *** ORCA-CIS/TD-DFT FINISHED WITHOUT ERROR ***
-----------------------
CIS/TD-DFT TOTAL ENERGY
-----------------------

    E(SCF)  =  -1189.611866846 Eh
    DE(CIS) =      0.088970411 Eh (Root  1)
    ----------------------------- ---------
    E(tot)  =  -1189.522896435 Eh


Maximum memory used throughout the entire CIS-calculation: 2684.2 MB
=> NOW LEAVING ORCA_CIS

-------------------------   --------------------
FINAL SINGLE POINT ENERGY     -1189.522896435455
-------------------------   --------------------



           ************************************************************
           *        Program running with 4 parallel MPI-processes     *
           *              working on a common directory               *
           ************************************************************

------------------------------------------------------------------------------
                              ORCA PROPERTY CALCULATIONS
------------------------------------------------------------------------------

GBWName                                 ... tddft.gbw
Number of atoms                         ...     39
Number of basis functions               ...    860
Max core memory                         ...   3000 MB

Electric properties:
Dipole moment                           ... YES
Quadrupole moment                       ...  NO
Static polarizability (Dipole/Dipole)   ...  NO
Static polarizability (Dipole/Quad.)    ...  NO
Static polarizability (Quad./Quad.)     ...  NO
Static polarizability (Velocity)        ...  NO
Static hyperpolarizability              ...  NO

Atomic electric properties:
Dipole moment                           ...  NO
Quadrupole moment                       ...  NO
Static polarizability                   ...  NO

Choice of electric origin               ... Center of mass
Position of electric origin             ...     0.020726     0.037348     0.001110

General magnetic properties:
Magnetizability                         ...  NO

EPR properties:
g-Tensor (aka g-matrix)                 ...  NO
Zero-Field splitting spin-orbit         ...  NO
Zero-field splitting spin-spin          ...  NO
Hyperfine couplings                     ...  NO (   0 nuclei)
Quadrupole couplings                    ...  NO (   0 nuclei)
Contact density                         ...  NO (   0 nuclei)

NMR properties:
Chemical shifts                         ...  NO (   0 nuclei)
Spin-rotation constants                 ...  NO (   0 nuclei)
Spin-spin couplings                     ...  NO (   0 nuclei,    0 pairs)

Choice of magnetic origin               ... GIAO
Position of magnetic origin             ...     0.000000     0.000000     0.000000

Properties with geometric perturbations:
SCF Hessian                             ...  NO
IR spectrum                             ...  NO
VCD spectrum                            ...  NO
X-ray spectroscopy properties:
SCF XES/XAS/RIXS spectra                ...  NO

SCF SOC stabilization energy            ...  NO
Diagonal Born-Oppenheimer correction    ...  NO

-------------
DIPOLE MOMENT
-------------

Method             : SCF
Type of density    : Electron Density
Multiplicity       :   1
Irrep              :   0
Energy             : -1189.6118668461056131 Eh
Basis              : AO
                                X                 Y                 Z
Electronic contribution:     -5.667134558      -4.624947985      -0.011587498
Nuclear contribution   :      6.309094870       5.149182336       0.012909410
                        -----------------------------------------
Total Dipole Moment    :      0.641960312       0.524234351       0.001321911
                        -----------------------------------------
Magnitude (a.u.)       :      0.828816291
Magnitude (Debye)      :      2.106683591



--------------------
Rotational spectrum 
--------------------
 
Rotational constants in cm-1:             0.008906             0.008560             0.004372 
Rotational constants in MHz :           266.993354           256.633129           131.080005 

Dipole components along the rotational axes: 
x,y,z [a.u.] :     0.828816    -0.000549    -0.000211 
x,y,z [Debye]:     2.106683    -0.001396    -0.000537 

 

Dipole moment calculation done in   0.0 sec 

Maximum memory used throughout the entire PROP-calculation: 88.5 MB

--------------------------------
SUGGESTED CITATIONS FOR THIS RUN
--------------------------------

Below you find a list of papers that are relevant to this ORCA run
We neither can nor want to force you to cite these papers, but we appreciate if you do
You receive ORCA, which is the product of decades of hard work by many enthusiastic individuals, for free
The only thing we kindly ask in return is that you cite our papers,
We deeply appreciate it, if you show your appreciation for ORCA by not just citing the generic ORCA reference.

Please note that relegating all ORCA citations to the supporting information does *not* help us.
SI sections are not indexed - citations you put there will not count into any citation statistics
But we need these citations in order to attract the funding resources that allow us to do what we are doing

Therefore, if you are a happy ORCA user, please consider citing a few of the papers listed below in the main body of your paper

In addition to the list printed below, the program has created the file tddft.bibtex that contains the list in bibtex format
You can import this file easily into all common literature databanks and citation aid programs

It goes without saying that in many instances, there are alternative algorithms to achieve similar
results as the ones you have gotten from ORCA. It is, of course, also the case that in some instances
ORCA just re-implements algorithms worked out by others. We are fully aware of that and we are also
fully appreciative of our colleagues work. Hence this citation list should not be read as indicating
that the listed papers, which are focused on our own work, are the only ones worth citing. It simply
meant to make it easier for users to cite ORCA specific papers. It is not a substitute for doing your
own literature research and citing the relevant literature in a scientifically appropriate manner.

List of essential papers. We consider these as the minimum necessary citations

  1. Neese, F.
     Software update: the ORCA program system, version 6.0
     WIRES Comput. Molec. Sci. 2025 15(1), e70019
     doi.org/10.1002/wcms.70019

List of papers to cite with high priority. The work reported in these papers was absolutely
necessary for this run to complete.
Our perspective: the developers of density functionals and basis sets usually get cited in chemistry papers
Good! But without the algorithms to do something with them, the functionals or basis sets would not do anything.
Hence, in our opinion, the algorithm design and method developments papers are equally worthy of getting cited

  1. Neese, F.; Olbrich, G.
     Efficient use of the resolution of the identity approximation in time-dependent density functional calculations with hybrid density functionals
     Chem. Phys. Lett. 2002 362 , 170-178
     doi.org/10.1016/s0009-2614(02)01053-9
  2. Neese, F.
     An improvement of the resolution of the identity approximation for the formation of the Coulomb matrix
     J. Comp. Chem. 2003 24(14), 1740-1747
     doi.org/10.1002/jcc.10318
  3. Neese, F.; Wennmohs, F.; Hansen, A.; Becker, U.
     Efficient, approximate and parallel Hartree-Fock and hybrid DFT calculations. A 'chain-of-spheres' algorithm for the Hartree-Fock exchange
     Chem. Phys. 2009 356(1-3), 98-109
     doi.org/10.1016/j.chemphys.2008.10.036
  4. Helmich-Paris, B.; de Souza, B.; Neese, F.; Izsák, R.
     An improved chain of spheres for exchange algorithm
     J. Chem. Phys. 2021 155(10), 104109
     doi.org/10.1063/5.0058766
  5. Neese, F.
     The SHARK Integral Generation and Digestion System
     J. Comp. Chem. 2022 44(3), 381
     doi.org/10.1002/jcc.26942

List of suggested additional citations. These are papers that are important in the 'surrounding' of 
of this run, or papers that preceded the highly important papers. If you like your results we are grateful for a citation.

  1. Izsak, R.; Neese, F.
     An overlap fitted chain of spheres exchange method
     J. Chem. Phys. 2011 135 , 144105
     doi.org/10.1063/1.3646921
  2. Izsak, R.; Hansen, A.; Neese, F.
     The resolution of identity and chain of spheres approximations for the LPNO-CCSD singles Fock term
     Molec. Phys. 2012 110 , 2413-2417
     doi.org/10.1080/00268976.2012.687466
  3. Neese, F.
     The ORCA program system
     WIRES Comput. Molec. Sci. 2012 2(1), 73-78
     doi.org/10.1002/wcms.81
  4. Izsak, R.; Neese, F.; Klopper, W.
     Robust fitting techniques in the chain of spheres approximation to the Fock exchange: The role of the complementary space
     J. Chem. Phys. 2013 139 , 
     doi.org/10.1063/1.4819264
  5. Neese, F.
     Software update: the ORCA program system, version 4.0
     WIRES Comput. Molec. Sci. 2018 8(1), 1-6
     doi.org/10.1002/wcms.1327
  6. Neese, F.; Wennmohs, F.; Becker, U.; Riplinger, C.
     The ORCA quantum chemistry program package
     J. Chem. Phys. 2020 152(22), 224108
     doi.org/10.1063/5.0004608
  7. Neese, F.
     Software update: The ORCA program system—Version 5.0
     WIRES Comput. Molec. Sci. 2022 12(1), e1606
     doi.org/10.1002/wcms.1606

List of optional additional citations

  1. Neese, F.
     Approximate second-order SCF convergence for spin unrestricted wavefunctions
     Chem. Phys. Lett. 2000 325(1-3), 93-98
     doi.org/10.1016/s0009-2614(00)00662-x

Timings for individual modules:

Sum of individual times          ...     7997.708 sec (= 133.295 min)
Startup calculation              ...       16.611 sec (=   0.277 min)   0.2 %
SCF iterations                   ...     2016.749 sec (=  33.612 min)  25.2 %
Property integrals               ...        1.255 sec (=   0.021 min)   0.0 %
Property calculations            ...        0.573 sec (=   0.010 min)   0.0 %
CIS module                       ...     5962.521 sec (=  99.375 min)  74.6 %
                             ****ORCA TERMINATED NORMALLY****
TOTAL RUN TIME: 0 days 2 hours 13 minutes 18 seconds 76 msec
