
                                 *****************
                                 * O   R   C   A *
                                 *****************

                                            #,                                       
                                            ###                                      
                                            ####                                     
                                            #####                                    
                                            ######                                   
                                           ########,                                 
                                     ,,################,,,,,                         
                               ,,#################################,,                 
                          ,,##########################################,,             
                       ,#########################################, ''#####,          
                    ,#############################################,,   '####,        
                  ,##################################################,,,,####,       
                ,###########''''           ''''###############################       
              ,#####''   ,,,,##########,,,,          '''####'''          '####       
            ,##' ,,,,###########################,,,                        '##       
           ' ,,###''''                  '''############,,,                           
         ,,##''                                '''############,,,,        ,,,,,,###''
      ,#''                                            '''#######################'''  
     '                                                          ''''####''''         
             ,#######,   #######,   ,#######,      ##                                
            ,#'     '#,  ##    ##  ,#'     '#,    #''#        ,####,    ,#,          
            ##       ##  ##   ,#'  ##            #'  '#       #'       ,# #          
            ##       ##  #######   ##           ,######,      #####,      #          
            '#,     ,#'  ##    ##  '#,     ,#' ,#      #,     #,   #      #          
             '#######'   ##     ##  '#######'  #'      '#     '####' #    #          



                #########################################################
                #                        -***-                          #
                #          Department of theory and spectroscopy        #
                #                                                       #
                #                      Frank Neese                      #
                #                                                       #
                #     Directorship, Architecture, Infrastructure        #
                #                    SHARK, DRIVERS                     #
                #        Core code/Algorithms in most modules           #
                #                                                       #
                #        Max Planck Institute fuer Kohlenforschung      #
                #                Kaiser Wilhelm Platz 1                 #
                #                 D-45470 Muelheim/Ruhr                 #
                #                      Germany                          #
                #                                                       #
                #                  All rights reserved                  #
                #                        -***-                          #
                #########################################################


                         Program Version 6.1.1  -  RELEASE   -
                                (GIT: $487d211c$)
                          ($2025-11-21 10:33:24 +0100$)


 With contributions from (in alphabetic order):
[Max-Planck-Institut fuer Kohlenforschung]                               
  Daniel Aravena         : Magnetic Suceptibility                        
  Michael Atanasov       : Ab Initio Ligand Field Theory (pilot matlab implementation)
  Alexander A. Auer      : GIAO ZORA, VPT2 properties, NMR spectrum      
  Ute Becker             : All parallelization in ORCA, NUMFREQ, NUMCALC 
  Giovanni Bistoni       : ED, misc. LED, open-shell LED, HFLD           
  Dmytro Bykov           : pre 5.0 version of the SCF Hessian            
  Marcos Casanova-Páez   : Triplet and SCS-CIS(D). UHF-(DLPNO)-IP/EA/STEOM-CCSD. UHF-CVS-IP/STEOM-CCSD   
  Vijay G. Chilkuri      : MRCI spin determinant printing, contributions to CSF-ICE 
  Pauline Colinet        : FMM embedding                                 
  Dipayan Datta          : RHF DLPNO-CCSD density                        
  Achintya Kumar Dutta   : EOM-CC, STEOM-CC                              
  Nicolas Foglia         : Exact transition moments, OPA infrastructure, MCD improvements    
  Dmitry Ganyushin       : Spin-Orbit,Spin-Spin,Magnetic field MRCI      
  Miquel Garcia-Rates    : C-PCM and meta-GGA Hessian, CCSD/C-PCM, Gaussian charge scheme 
  Tiago L. C. Gouveia    : GS-ROHF, GS-ROCIS                             
  Yang Guo               : DLPNO-NEVPT2, F12-NEVPT2, CIM, IAO-localization        
  Andreas Hansen         : Spin unrestricted coupled pair/coupled cluster methods 
  Ingolf Harden          : AUTO-CI MPn and infrastructure                
  Benjamin Helmich-Paris : MC-RPA, TRAH-(SCF,CASSCF), AVAS, COSX integrals, SCF dyn. polar., MC-PDFT, srDFT 
  Lee Huntington         : MR-EOM, pCC                                   
  Robert Izsak           : Overlap fitted RIJCOSX, COSX-SCS-MP3, EOM     
  Riya Kayal             : Wick's Theorem for AUTO-CI, AUTO-CI UHF-CCSDT 
  Emily Kempfer          : AUTO-CI RHF CISDT and CCSDT, approximate NEVPT4
  Christian Kollmar      : KDIIS, OOCD, Brueckner-CCSD(T), CCSD density, CASPT2, CASPT2-K, improved NEVPT2 
  Axel Koslowski         : Symmetry handling                             
  Simone Kossmann        : meta-GGA functionals, TD-DFT gradient, OOMP2, (MP2 Hessian; deprecated post 5.0) 
  Lucas Lang             : DCDCAS, Hyperfine gauge corrections, ICE-SOC+SSC
  Marvin Lechner         : AUTO-CI (C++ implementation), FIC-MRCC        
  Spencer Leger          : CASSCF response                               
  Dagmar Lenk            : GEPOL surface, SMD, ORCA-2-JSON               
  Dimitrios Liakos       : Extrapolation schemes; Compound Job, Property file
  Dimitrios Manganas     : Further ROCIS development; embedding schemes. LFT, Crystal Embedding 
  Dimitrios Pantazis     : SARC Basis sets                               
  Anastasios Papadopoulos: AUTO-CI, single reference methods and gradients 
  Taras Petrenko         : pre 6.0 DFT Hessian and TD-DFT gradient,  ECA, NRVS 
  Petra Pikulova         : Analytic Raman intensities                    
  Peter Pinski           : DLPNO-MP2, DLPNO-MP2 Gradient                 
  Shashank Vittal Rao    : ES-AILFT, MagRelax                            
  Christoph Reimann      : Effective Core Potentials                     
  Marius Retegan         : Local ZFS, SOC                                
  Christoph Riplinger    : Optimizer, TS searches, QM/MM, DLPNO-CCSD(T), (RO)-DLPNO pert. Triples 
  Michael Roemelt        : Original ROCIS implementation, recursive CI coupling coefficients
  Masaaki Saitow         : Open-shell DLPNO-CCSD energy and density      
  Barbara Sandhoefer     : DKH picture change effects                    
  Yorick L. A. Schmerwitz: GMF and freeze-and-release deltaSCF, NEB S-IDPP initial path                    
  Kantharuban Sivalingam : CASSCF convergence/infrastructure, NEVPT2, NEVPT3, NEVPT4(SD), FIC-MRCI and CEPA variants
  Bernardo de Souza      : ESD, SOC TD-DFT                               
  Georgi L. Stoychev     : AutoAux, RI-MP2 NMR, DLPNO-MP2 response, X2C  
  Van Anh Tran           : RI-MP2 g-tensors                              
  Willem Van den Heuvel  : Paramagnetic NMR                              
  Zikuan Wang            : NOTCH, Electric field optimization            
  Frank Wennmohs         : Technical directorship and infrastructure     
  Hang Xu                : AUTO-CI-Response properties                   
                                                                         
[FACCTs GmbH]                                                            
  Markus Bursch, Nicolas Foglia, Miquel Garcia-Rates, Ingolf Harden, Hagen Neugebauer, Anastasios Papadopoulos, 
  Christoph Riplinger, Bernardo de Souza, Georgi L. Stoychev                                                    
                                                                 
  APM, various basis sets, CI-OPT, improved COSX, DLPNO-Multilevel,           
  DOCKER, DRACO, updates on ESD, Fragmentator, GOAT, IRC, LR-CPCM, L-BFGS, MBIS, meta-GGA TD-DFT gradient, ML-optimized integration grids, 
  MM, NACMEs, nearIR, NEB, NEB-TS, NL-DFT gradient (VV10), 2- and 3-layer-ONIOM, interface openCOSMO-RS, QMMM,   
  Crystal-QMMM, RESP, rigid body optimization, SF, symmetry and pop. for TD-DFT, various functionals, SOLVATOR                                   
                                                                         
[Other institutions]                                                     
  V. Asgeirsson          : NEB                                           
  Christoph Bannwarth    : sTDA-DFT, sTD-DFT, PBEh-3c, B97-3c, D3        
  Giovanni Bistoni       : ETS/NOCV, ADLD/ADEX, COVALED                  
  Martin Brehm           : Molecular dynamics                            
  Ronald Cardenas        : ETS/NOCV                                      
  Martina Colucci        : COVALED                                       
  Sebastian Ehlert       : rSCAN, r2SCAN, r2SCAN-3c, D4, dhf basis sets  
  Marvin Friede          : D4 for Fr, Ra, Ac-Lr                          
  Lars Goerigk           : TD-DFT with DH, B97 family of functionals     
  Stefan Grimme          : VdW corrections, initial TS optimization, DFT functionals, gCP, sTDA/sTD-DF 
  Waldemar Hujo          : DFT-NL                                        
  H. Jonsson             : NEB                                           
  Holger Kruse           : gCP                                           
  Marcel Mueller         : wB97X-3c, vDZP basis set                      
  Hagen Neugebauer       : wr2SCAN, Native XTB                           
  Gianluca Regni         : ADLD/ADEX                                     
  Tobias Risthaus        : pre 6.0 range-separated hybrid DFT and stability analysis
  Lukas Wittmann         : regularized MP2, r2SCAN double-hybrids, wr2SCAN        
                                                                         
We gratefully acknowledge several colleagues who have allowed us to      
interface, adapt or use parts of their codes:                            
  Ed Valeev, F. Pavosevic, A. Kumar             : LibInt (2-el integral package), F12 methods 
  Garnet Chan, S. Sharma, J. Yang, R. Olivares  : DMRG                   
  Ulf Ekstrom                                   : XCFun DFT Library      
  Mihaly Kallay                                 : mrcc  (arbitrary order and MRCC methods)
  Frank Weinhold                                : gennbo (NPA and NBO analysis)           
  Simon Mueller                                 : openCOSMO-RS                            
  Christopher J. Cramer and Donald G. Truhlar   : smd solvation model                     
  S Lehtola, MJT Oliveira, MAL Marques          : LibXC Library                           
  Liviu Ungur et al                             : ANISO software                          


 Your calculation uses the libint2 library for the computation of 2-el integrals
 For citations please refer to: http://libint.valeyev.net

 Your ORCA version has been built with support for libXC version: 7.0.0
 For citations please refer to: https://libxc.gitlab.io

 This ORCA versions uses:
   CBLAS   interface :  Fast vector & matrix operations
   LAPACKE interface :  Fast linear algebra routines
   SCALAPACK package :  Parallel linear algebra routines
   Shared memory     :  Shared parallel matrices
   BLAS/LAPACK       :  OpenBLAS 0.3.29  USE64BITINT DYNAMIC_ARCH NO_AFFINITY Haswell SINGLE_THREADED
        Core in use  :  Haswell
   Copyright (c) 2011-2014, The OpenBLAS Project


  ***********************************
  * Starting time: Sun Jul  5 20:36:01 2026
  * Host name:     steezy
  * Process ID:    1294985
  * Working dir.:  /home/jannes/chlorophyll-ladder/007-mg-core-ladder/mgchlorin/03_tddft_ch2cl2/camb3lyp
  ***********************************

NOTE: MaxCore=3000 MB was set to SCF,MP2,MDCI,CIPSI,MRCI,RASCI and CIS
      => If you want to overwrite this, your respective input block should be placed after the MaxCore statement


***************************************
The coordinates will be read from file: /home/jannes/chlorophyll-ladder/007-mg-core-ladder/mgchlorin/01_opt/mgchlorin_opt_b3lypd4_tzvp.xyz
***************************************


XCFun DFT library Copyright 2009-2010 Ulf Ekstrom and contributors.
See http://admol.org/xcfun for more information.
This is free software; see the source code for copying conditions.
There is ABSOLUTELY NO WARRANTY; not even for MERCHANTABILITY or FITNESS FOR A PARTICULAR PURPOSE.
For details see the documentation.
Scientific users of this library should cite U. Ekstrom, L. Visscher, R. Bast, A. J. Thorvaldsen and K. Ruud;
J.Chem.Theor.Comp. 2010, DOI: 10.1021/ct100117s
XCFun Version 0.99 

================================================================================

----- Orbital basis set information -----
Your calculation utilizes the basis: def2-TZVP
   F. Weigend and R. Ahlrichs, Phys. Chem. Chem. Phys. 7, 3297 (2005).

----- AuxJ basis set information -----
Your calculation utilizes the auxiliary basis: def2/J
   H-Rn: F. Weigend, Phys. Chem. Chem. Phys. 8, 1057 (2006).
   Fr-Lr: K. Eichkorn, F. Weigend, O. Treutler, R. Ahlrichs; Theor. Chem. Acc. 97, 119 (1997).

================================================================================
                                        WARNINGS
                       Please study these warnings very carefully!
================================================================================


WARNING: CIS/ROCIS methods need fully converged wavefunctions
  ===> : Setting SCFConvForced true
         You can overwrite this default with %scf ConvForced false 


================================================================================
                                       INPUT FILE
================================================================================
NAME = tddft.inp
|  1> %pal nprocs 4 end
|  2> %maxcore 3000
|  3> ! CAM-B3LYP def2-TZVP def2/J RIJCOSX DefGrid3 TightSCF CPCM(CH2Cl2)
|  4> %tddft
|  5>   nroots 30
|  6>   tda false
|  7>   triplets false
|  8> end
|  9> * xyzfile 0 1 /home/jannes/chlorophyll-ladder/007-mg-core-ladder/mgchlorin/01_opt/mgchlorin_opt_b3lypd4_tzvp.xyz
| 10> 
| 11>                          ****END OF INPUT****
================================================================================

                       ****************************
                       * Single Point Calculation *
                       ****************************

---------------------------------
CARTESIAN COORDINATES (ANGSTROEM)
---------------------------------
  N      1.617376    1.330383    0.004551
  N     -1.306529    1.580997    0.003644
  N      1.276091   -1.584198   -0.002271
  N     -1.612608   -1.304895   -0.003475
  C      2.875203    3.342362   -0.063685
  C      3.840630    2.159068    0.079915
  C      1.509656    2.684377   -0.016153
  C      2.922172    0.953296    0.027878
  C      0.336508    3.400638   -0.015219
  C      3.388460   -0.339731    0.025539
  C     -0.976132    2.896056   -0.002122
  C      2.630796   -1.524412    0.007627
  C     -2.686758    1.511059    0.009704
  C      0.930668   -2.922223   -0.012658
  C     -2.169427    3.701790    0.002039
  C      3.180636   -2.855093    0.001851
  C     -3.225855    2.843438    0.009928
  C      2.127735   -3.717737   -0.011279
  C     -3.426856    0.343504    0.009772
  C     -0.361658   -3.413010   -0.017853
  C     -2.938073   -0.969119    0.002267
  C     -1.549551   -2.670848   -0.012186
  C     -3.737889   -2.157029   -0.002719
  C     -2.873771   -3.216052   -0.012243
  H      3.004410    3.866805   -1.013495
  H      2.986016    4.085160    0.727134
  H      4.377829    2.179169    1.031116
  H      4.592202    2.120440   -0.709370
  H      0.429527    4.479453   -0.029677
  H      4.463992   -0.464803    0.042863
  H     -2.189602    4.780461   -0.001150
  H      4.233282   -3.091377    0.007587
  H     -4.277438    3.085144    0.014504
  H      2.153498   -4.796427   -0.018419
  H     -4.504247    0.454657    0.013550
  H     -0.468513   -4.490823   -0.024516
  H     -4.816548   -2.181344    0.000207
  H     -3.114006   -4.267872   -0.018337
  Mg    -0.018551   -0.004412    0.000625

----------------------------
CARTESIAN COORDINATES (A.U.)
----------------------------
  NO LB      ZA    FRAG     MASS         X           Y           Z
   0 N     7.0000    0    14.007    3.056398    2.514059    0.008600
   1 N     7.0000    0    14.007   -2.468981    2.987652    0.006887
   2 N     7.0000    0    14.007    2.411463   -2.993700   -0.004293
   3 N     7.0000    0    14.007   -3.047387   -2.465895   -0.006567
   4 C     6.0000    0    12.011    5.433346    6.316149   -0.120347
   5 C     6.0000    0    12.011    7.257738    4.080048    0.151018
   6 C     6.0000    0    12.011    2.852836    5.072737   -0.030524
   7 C     6.0000    0    12.011    5.522104    1.801468    0.052683
   8 C     6.0000    0    12.011    0.635908    6.426274   -0.028760
   9 C     6.0000    0    12.011    6.403262   -0.641999    0.048262
  10 C     6.0000    0    12.011   -1.844622    5.472752   -0.004009
  11 C     6.0000    0    12.011    4.971483   -2.880721    0.014414
  12 C     6.0000    0    12.011   -5.077236    2.855488    0.018338
  13 C     6.0000    0    12.011    1.758707   -5.522200   -0.023920
  14 C     6.0000    0    12.011   -4.099623    6.995369    0.003853
  15 C     6.0000    0    12.011    6.010530   -5.395343    0.003498
  16 C     6.0000    0    12.011   -6.095983    5.373319    0.018761
  17 C     6.0000    0    12.011    4.020836   -7.025504   -0.021315
  18 C     6.0000    0    12.011   -6.475819    0.649128    0.018466
  19 C     6.0000    0    12.011   -0.683435   -6.449655   -0.033738
  20 C     6.0000    0    12.011   -5.552153   -1.831369    0.004284
  21 C     6.0000    0    12.011   -2.928227   -5.047171   -0.023027
  22 C     6.0000    0    12.011   -7.063586   -4.076195   -0.005137
  23 C     6.0000    0    12.011   -5.430639   -6.077458   -0.023136
  24 H     1.0000    0     1.008    5.677511    7.307202   -1.915228
  25 H     1.0000    0     1.008    5.642753    7.719833    1.374085
  26 H     1.0000    0     1.008    8.272899    4.118034    1.948527
  27 H     1.0000    0     1.008    8.678005    4.007051   -1.340516
  28 H     1.0000    0     1.008    0.811688    8.464939   -0.056081
  29 H     1.0000    0     1.008    8.435723   -0.878351    0.081000
  30 H     1.0000    0     1.008   -4.137748    9.033761   -0.002174
  31 H     1.0000    0     1.008    7.999744   -5.841856    0.014337
  32 H     1.0000    0     1.008   -8.083187    5.830076    0.027408
  33 H     1.0000    0     1.008    4.069522   -9.063934   -0.034807
  34 H     1.0000    0     1.008   -8.511794    0.859178    0.025605
  35 H     1.0000    0     1.008   -0.885361   -8.486426   -0.046329
  36 H     1.0000    0     1.008   -9.101956   -4.122142    0.000392
  37 H     1.0000    0     1.008   -5.884618   -8.065109   -0.034653
  38 Mg   12.0000    0    24.305   -0.035057   -0.008338    0.001182

--------------------------------
INTERNAL COORDINATES (ANGSTROEM)
--------------------------------
 N      0   0   0     0.000000000000     0.00000000     0.00000000
 N      1   0   0     2.934625567277     0.00000000     0.00000000
 N      1   2   0     2.934502219461    88.22026361     0.00000000
 N      2   1   3     2.902087324163    91.15525092     0.00000000
 C      1   2   3     2.373783144973   117.10066924   178.00775617
 C      5   1   2     1.533901517256    71.15336793   175.74864028
 C      1   2   3     1.358430124362    80.55312792   178.98494255
 C      1   2   3     1.358392392334   168.73866091   354.91154939
 C      7   1   2     1.374520448020   125.94914713     0.55405638
 C      8   1   7     1.374536203187   125.94130379   181.39600351
 C      2   1   3     1.355940334932    80.79598169   180.38241652
 C      3   1   2     1.356059119169    80.79364978   180.38854817
 C      2   1   3     1.382013227933   172.19563123     2.11228019
 C      3   1   2     1.381931604181   172.19772945     2.18695519
 C     11   2   1     1.439853693466   109.92374504   180.32182958
 C     12   3   1     1.439815791155   109.92104971   180.32893451
 C     15  11   2     1.361202173100   106.87870823     0.00000000
 C     16  12   3     1.361222836597   106.87868208     0.00000000
 C     13   2  11     1.382364012124   125.27049495   179.64780351
 C     14   3  12     1.382391454942   125.27124228   179.65348396
 C      4   2   1     1.367346283750    81.83816516   179.76221527
 C      4   2   1     1.367434918034   171.29992091   358.49070100
 C     21   4   2     1.432083165488   109.73552966   179.80925939
 C     23  21   4     1.366865067502   106.83566180   359.97041685
 H      5   1   2     1.092645014934   119.63454595   281.07952700
 H      5   1   2     1.090606617469   127.60927975    70.55922818
 H      6   5   1     1.092598204440   112.13340192   244.83271966
 H      6   5   1     1.090562030620   113.16139441   123.71896896
 H      9   7   1     1.082914591440   116.47481442   179.76700295
 H     10   8   1     1.082918427081   116.45780824   179.78631778
 H     15  11   2     1.078863876263   125.09848097   180.00420488
 H     16  12   3     1.078854659017   125.09944828   180.00572083
 H     17  15  11     1.079013379288   127.96205293   180.02317060
 H     18  16  12     1.079022169130   127.96119491   180.02286464
 H     19  13   2     1.083116608289   116.47961750   180.08384249
 H     20  14   3     1.083117372845   116.45786284   180.08863448
 H     23  21   4     1.078936570721   125.24249032   179.99600471
 H     24  23  21     1.078923308856   127.92239530   180.01162826
 Mg     3   1   2     2.042506205857    46.01341093     0.00000000

---------------------------
INTERNAL COORDINATES (A.U.)
---------------------------
 N      0   0   0     0.000000000000     0.00000000     0.00000000
 N      1   0   0     5.545638627757     0.00000000     0.00000000
 N      1   2   0     5.545405534166    88.22026361     0.00000000
 N      2   1   3     5.484150259393    91.15525092     0.00000000
 C      1   2   3     4.485800045317   117.10066924   178.00775617
 C      5   1   2     2.898653784021    71.15336793   175.74864028
 C      1   2   3     2.567060907114    80.55312792   178.98494255
 C      1   2   3     2.566989603913   168.73866091   354.91154939
 C      7   1   2     2.597467212233   125.94914713     0.55405638
 C      8   1   7     2.597496985183   125.94130379   181.39600351
 C      2   1   3     2.562355886959    80.79598169   180.38241652
 C      3   1   2     2.562580356635    80.79364978   180.38854817
 C      2   1   3     2.611626514250   172.19563123     2.11228019
 C      3   1   2     2.611472267713   172.19772945     2.18695519
 C     11   2   1     2.720929153566   109.92374504   180.32182958
 C     12   3   1     2.720857528579   109.92104971   180.32893451
 C     15  11   2     2.572299320058   106.87870823     0.00000000
 C     16  12   3     2.572338368408   106.87868208     0.00000000
 C     13   2  11     2.612289400304   125.27049495   179.64780351
 C     14   3  12     2.612341259714   125.27124228   179.65348396
 C      4   2   1     2.583910006522    81.83816516   179.76221527
 C      4   2   1     2.584077501046   171.29992091   358.49070100
 C     21   4   2     2.706244983771   109.73552966   179.80925939
 C     23  21   4     2.583000639603   106.83566180   359.97041685
 H      5   1   2     2.064799839820   119.63454595   281.07952700
 H      5   1   2     2.060947826859   127.60927975    70.55922818
 H      6   5   1     2.064711380806   112.13340192   244.83271966
 H      6   5   1     2.060863569926   113.16139441   123.71896896
 H      9   7   1     2.046412004250   116.47481442   179.76700295
 H     10   8   1     2.046419252561   116.45780824   179.78631778
 H     15  11   2     2.038757261919   125.09848097   180.00420488
 H     16  12   3     2.038739843848   125.09944828   180.00572083
 H     17  15  11     2.039039781691   127.96205293   180.02317060
 H     18  16  12     2.039056392086   127.96119491   180.02286464
 H     19  13   2     2.046793760768   116.47961750   180.08384249
 H     20  14   3     2.046795205569   116.45786284   180.08863448
 H     23  21   4     2.038894634535   125.24249032   179.99600471
 H     24  23  21     2.038869573241   127.92239530   180.01162826
 Mg     3   1   2     3.859777355904    46.01341093     0.00000000

---------------------
BASIS SET INFORMATION
---------------------
There are 4 groups of distinct atoms

 Group   1 Type N   : 11s6p2d1f contracted to 5s3p2d1f pattern {62111/411/11/1}
 Group   2 Type C   : 11s6p2d1f contracted to 5s3p2d1f pattern {62111/411/11/1}
 Group   3 Type H   : 5s1p contracted to 3s1p pattern {311/1}
 Group   4 Type Mg  : 14s8p3d contracted to 5s4p3d pattern {73211/5111/111}

Atom   0N    basis set group =>   1
Atom   1N    basis set group =>   1
Atom   2N    basis set group =>   1
Atom   3N    basis set group =>   1
Atom   4C    basis set group =>   2
Atom   5C    basis set group =>   2
Atom   6C    basis set group =>   2
Atom   7C    basis set group =>   2
Atom   8C    basis set group =>   2
Atom   9C    basis set group =>   2
Atom  10C    basis set group =>   2
Atom  11C    basis set group =>   2
Atom  12C    basis set group =>   2
Atom  13C    basis set group =>   2
Atom  14C    basis set group =>   2
Atom  15C    basis set group =>   2
Atom  16C    basis set group =>   2
Atom  17C    basis set group =>   2
Atom  18C    basis set group =>   2
Atom  19C    basis set group =>   2
Atom  20C    basis set group =>   2
Atom  21C    basis set group =>   2
Atom  22C    basis set group =>   2
Atom  23C    basis set group =>   2
Atom  24H    basis set group =>   3
Atom  25H    basis set group =>   3
Atom  26H    basis set group =>   3
Atom  27H    basis set group =>   3
Atom  28H    basis set group =>   3
Atom  29H    basis set group =>   3
Atom  30H    basis set group =>   3
Atom  31H    basis set group =>   3
Atom  32H    basis set group =>   3
Atom  33H    basis set group =>   3
Atom  34H    basis set group =>   3
Atom  35H    basis set group =>   3
Atom  36H    basis set group =>   3
Atom  37H    basis set group =>   3
Atom  38Mg   basis set group =>   4
---------------------------------
AUXILIARY/J BASIS SET INFORMATION
---------------------------------
There are 4 groups of distinct atoms

 Group   1 Type N   : 12s5p4d2f1g contracted to 6s4p3d1f1g pattern {711111/2111/211/2/1}
 Group   2 Type C   : 12s5p4d2f1g contracted to 6s4p3d1f1g pattern {711111/2111/211/2/1}
 Group   3 Type H   : 5s2p1d contracted to 3s1p1d pattern {311/2/1}
 Group   4 Type Mg  : 14s5p5d2f1g contracted to 8s4p4d1f1g pattern {71111111/2111/2111/2/1}

Atom   0N    basis set group =>   1
Atom   1N    basis set group =>   1
Atom   2N    basis set group =>   1
Atom   3N    basis set group =>   1
Atom   4C    basis set group =>   2
Atom   5C    basis set group =>   2
Atom   6C    basis set group =>   2
Atom   7C    basis set group =>   2
Atom   8C    basis set group =>   2
Atom   9C    basis set group =>   2
Atom  10C    basis set group =>   2
Atom  11C    basis set group =>   2
Atom  12C    basis set group =>   2
Atom  13C    basis set group =>   2
Atom  14C    basis set group =>   2
Atom  15C    basis set group =>   2
Atom  16C    basis set group =>   2
Atom  17C    basis set group =>   2
Atom  18C    basis set group =>   2
Atom  19C    basis set group =>   2
Atom  20C    basis set group =>   2
Atom  21C    basis set group =>   2
Atom  22C    basis set group =>   2
Atom  23C    basis set group =>   2
Atom  24H    basis set group =>   3
Atom  25H    basis set group =>   3
Atom  26H    basis set group =>   3
Atom  27H    basis set group =>   3
Atom  28H    basis set group =>   3
Atom  29H    basis set group =>   3
Atom  30H    basis set group =>   3
Atom  31H    basis set group =>   3
Atom  32H    basis set group =>   3
Atom  33H    basis set group =>   3
Atom  34H    basis set group =>   3
Atom  35H    basis set group =>   3
Atom  36H    basis set group =>   3
Atom  37H    basis set group =>   3
Atom  38Mg   basis set group =>   4


           ************************************************************
           *        Program running with 4 parallel MPI-processes     *
           *              working on a common directory               *
           ************************************************************
------------------------------------------------------------------------------
                             ORCA STARTUP CALCULATIONS
                           -- RI-GTO INTEGRALS CHOSEN --
------------------------------------------------------------------------------
------------------------------------------------------------------------------
                   ___                                                        
                  /   \      - P O W E R E D   B Y -                         
                 /     \                                                     
                 |  |  |   _    _      __       _____    __    __             
                 |  |  |  | |  | |    /  \     |  _  \  |  |  /  |          
                  \  \/   | |  | |   /    \    | | | |  |  | /  /          
                 / \  \   | |__| |  /  /\  \   | |_| |  |  |/  /          
                |  |  |   |  __  | /  /__\  \  |    /   |      \           
                |  |  |   | |  | | |   __   |  |    \   |  |\   \          
                \     /   | |  | | |  |  |  |  | |\  \  |  | \   \       
                 \___/    |_|  |_| |__|  |__|  |_| \__\ |__|  \__/        
                                                                              
                      - O R C A' S   B I G   F R I E N D -                    
                                      &                                       
                       - I N T E G R A L  F E E D E R -                       
                                                                              
 v1 FN, 2020, v2 2021, v3 2022-2024                                           
------------------------------------------------------------------------------


----------------------
SHARK INTEGRAL PACKAGE
----------------------

Number of atoms                             ...     39
Number of basis functions                   ...    860
Number of shells                            ...    332
Maximum angular momentum                    ...      3
Integral batch strategy                     ... SHARK/LIBINT Hybrid
RI-J (if used) integral strategy            ... SPLIT-RIJ (Revised 2003 algorithm where possible)
Printlevel                                  ...      1
Contraction scheme used                     ... SEGMENTED contraction
Prescreening option                         ... SCHWARTZ
   Thresh                                   ... 2.500e-11
   Tcut                                     ... 2.500e-12
   Tpresel                                  ... 2.500e-12 
Coulomb Range Separation                    ... NOT USED
Exchange Range Separation                   ... Long Range
   Mu parameter                             ... 3.300e-01
   Scaling (regular/separated)              ... 1.900e-01 4.600e-01
Robust (split-)RI terms used:
  metric    (central integrals)             ... YES
  density   (r.h.s.  integrals)             ... YES
  potential (l.h.s.  integrals)             ... YES
Multipole approximations                    ... NOT USED
Finite Nucleus Model                        ... NOT USED
CABS basis                                  ... NOT available
Auxiliary Coulomb fitting basis             ... AVAILABLE
   # of basis functions in Aux-J            ...   1386
   # of shells in Aux-J                     ...    448
   Maximum angular momentum in Aux-J        ...      4
Auxiliary J/K fitting basis                 ... NOT available
Auxiliary Correlation fitting basis         ... NOT available
Auxiliary 'external' fitting basis          ... NOT available

Checking pre-screening integrals            ... done (  0.0 sec) Dimension = 332
   => SHARK Basis and OBASIS are compatible. Storing Pre-screening
Shell pair information
Shell pair cut-off parameter TPreSel        ...   2.5e-12
Total number of shell pairs                 ...     55278
Shell pairs after pre-screening             ...     38985
Total number of primitive shell pairs       ...    174360
Primitive shell pairs kept                  ...     80636
          la=0 lb=0:   9326 shell pairs
          la=1 lb=0:  11131 shell pairs
          la=1 lb=1:   3288 shell pairs
          la=2 lb=0:   5767 shell pairs
          la=2 lb=1:   3529 shell pairs
          la=2 lb=2:    978 shell pairs
          la=3 lb=0:   2472 shell pairs
          la=3 lb=1:   1540 shell pairs
          la=3 lb=2:    784 shell pairs
          la=3 lb=3:    170 shell pairs

Checking whether 4 symmetric matrices of dimension 860 fit in memory
:Max Core in MB      =   3000.00
 MB in use           =     50.97
 MB left             =   2949.03
 MB needed           =     11.30
 Data fit in memory  = YES
Calculating RI/J V-Matrix + Cholesky decomp.... done (  0.2 sec)
Calculating Nuclear repulsion               ... done (  0.0 sec) ENN=   2155.857692955848 Eh

Diagonalization of the overlap matrix:
Smallest eigenvalue                        ... 1.000e-05
Time for diagonalization                   ...    0.198 sec
Threshold for overlap eigenvalues          ... 1.000e-07
Number of eigenvalues below threshold      ... 0
Time for construction of square roots      ...    0.111 sec
Total time needed                          ...    0.317 sec

-------------------
DFT GRID GENERATION
-------------------

General Integration Accuracy     IntAcc      ... 4.959
Radial Grid Type                 RadialGrid  ... OptM3 with GC (2021)
Angular Grid (max. ang.)         AngularGrid ... 6 (Lebedev-590)
Angular grid pruning method      GridPruning ... 4 (adaptive)
Weight generation scheme         WeightScheme... mBecke (2022)
Basis function cutoff            BFCut       ... 1.0000e-11
Integration weight cutoff        WCut        ... 1.0000e-14
Partially contracted basis set               ... off
Rotationally invariant grid construction     ... off
Angular grids for H and He will be reduced by one unit

Total number of grid points                  ...   473102
Total number of batches                      ...     7410
Average number of points per batch           ...       63
Average number of grid points per atom       ...    12131

--------------------
COSX GRID GENERATION
--------------------

GRIDX 1
-------
General Integration Accuracy     IntAcc      ... 4.020
Radial Grid Type                 RadialGrid  ... OptM3 with GC (2021)
Angular Grid (max. ang.)         AngularGrid ... 2 (Lebedev-110)
Angular grid pruning method      GridPruning ... 4 (adaptive)
Weight generation scheme         WeightScheme... mBecke (2022)
Basis function cutoff            BFCut       ... 1.0000e-11
Integration weight cutoff        WCut        ... 1.0000e-14
Partially contracted basis set               ... on
Rotationally invariant grid construction     ... off
Angular grids for H and He will be reduced by one unit

Total number of grid points                  ...    54054
Total number of batches                      ...      445
Average number of points per batch           ...      121
Average number of grid points per atom       ...     1386
UseSFitting                                  ... on

GRIDX 2
-------
General Integration Accuracy     IntAcc      ... 4.338
Radial Grid Type                 RadialGrid  ... OptM3 with GC (2021)
Angular Grid (max. ang.)         AngularGrid ... 3 (Lebedev-194)
Angular grid pruning method      GridPruning ... 4 (adaptive)
Weight generation scheme         WeightScheme... mBecke (2022)
Basis function cutoff            BFCut       ... 1.0000e-11
Integration weight cutoff        WCut        ... 1.0000e-14
Partially contracted basis set               ... on
Rotationally invariant grid construction     ... off
Angular grids for H and He will be reduced by one unit

Total number of grid points                  ...   119051
Total number of batches                      ...      950
Average number of points per batch           ...      125
Average number of grid points per atom       ...     3053
UseSFitting                                  ... on

GRIDX 3
-------
General Integration Accuracy     IntAcc      ... 4.871
Radial Grid Type                 RadialGrid  ... OptM3 with GC (2021)
Angular Grid (max. ang.)         AngularGrid ... 4 (Lebedev-302)
Angular grid pruning method      GridPruning ... 4 (adaptive)
Weight generation scheme         WeightScheme... mBecke (2022)
Basis function cutoff            BFCut       ... 1.0000e-11
Integration weight cutoff        WCut        ... 1.0000e-14
Partially contracted basis set               ... on
Rotationally invariant grid construction     ... off
Angular grids for H and He will be reduced by one unit

Total number of grid points                  ...   219016
Total number of batches                      ...     1726
Average number of points per batch           ...      126
Average number of grid points per atom       ...     5616
UseSFitting                                  ... on
Grids setup in  15.2 sec
Initializing property integral containers    ... done (  0.0 sec)

SHARK setup successfully completed in  16.6 seconds

Maximum memory used throughout the entire STARTUP-calculation: 154.4 MB


           ************************************************************
           *        Program running with 4 parallel MPI-processes     *
           *              working on a common directory               *
           ************************************************************
-------------------------------------------------------------------------------
                                 ORCA GUESS
                   Start orbitals & Density for SCF / CASSCF
-------------------------------------------------------------------------------

------------
SCF SETTINGS
------------
Hamiltonian:
 Density Functional     Method          .... DFT(GTOs)
 Exchange Functional    Exchange        .... WB88
 Correlation Functional Correlation     .... LYP
 LDA part of GGA corr.  LDAOpt          .... VWN-5
 Gradients option       PostSCFGGA      .... off
 Hybrid DFT is turned on
   Fraction HF Exchange ScalHFX         ....  0.190000
   Scaling of DF-GGA-X  ScalDFX         ....  0.350000
   Scaling of DF-GGA-C  ScalDFC         ....  0.810000
   Scaling of DF-LDA-C  ScalLDAC        ....  1.000000
   Perturbative correction              ....  0.000000
 Long-range corrected/Screened/Range-Separated Hybrid DFT is turned on
   Amount of maximum screened exact exchange              ....  0.460000
   Range separation parameter mu (erf(mu*r12)/r12)        ....  0.330000
 RI-approximation to the Coulomb term is turned on
   Number of AuxJ basis functions       .... 1386
   RIJ-COSX (HFX calculated with COS-X)).... on


General Settings:
 Integral files         IntName         .... tddft
 Hartree-Fock type      HFTyp           .... RHF
 Total Charge           Charge          ....    0
 Multiplicity           Mult            ....    1
 Number of Electrons    NEL             ....  174
 Basis Dimension        Dim             ....  860
 Nuclear Repulsion      ENuc            ....   2155.8576929558 Eh

Convergence Acceleration:
 AO-DIIS                CNVDIIS         .... on
   Start iteration      DIISMaxIt       ....    12
   Startup error        DIISStart       ....  0.200000
   # of expansion vecs  DIISMaxEq       ....     5
   Bias factor          DIISBfac        ....   1.050
   Max. coefficient     DIISMaxC        ....  10.000
 MO-DIIS                CNVKDIIS        .... off
 Trust-Rad. Augm. Hess. CNVTRAH         .... auto
   Auto Start mean grad. ratio tolernc. ....  1.125000
   Auto Start start iteration           ....    50
   Auto Start num. interpolation iter.  ....    10
   Max. Number of Micro iterations      ....    24
   Max. Number of Macro iterations      .... Maxiter - #DIIS iter
   Number of Davidson start vectors     ....     2
   Converg. threshold    (grad. norm)   ....   1.000e-05
   Grad. Scal. Fac. for Micro threshold ....   0.100
   Minimum threshold for Micro iter.    ....   1.000e-02
   NR start threshold (gradient norm)   ....   1.000e-04
   Initial trust radius                 ....   0.400
   Minimum AH scaling param. (alpha)    ....   1.000
   Maximum AH scaling param. (alpha)    .... 1000.000
   Quad. conv. algorithm                .... NR
   White noise on init. David. guess    .... on
   Maximum white noise                  ....   0.010
   Pseudo random numbers                .... off
   Inactive MOs                         .... canonical
   Orbital update algorithm             .... Taylor
   Preconditioner                       .... Diag
   Full preconditioner red. dimension   ....   250
 SOSCF                 CNVSOSCF           .... on
   Start iteration     SOSCFMaxIt         ....   150
   Startup grad/error  SOSCFStart         ....  0.003300
   Hessian update      SOSCFHessUp        .... L-BFGS
   Autom. constraints  SOSCFAutoConstrain .... off
 Level Shifting         CNVShift        .... on
   Level shift para.    LevelShift      ....    0.2500
   Turn off err/grad.   ShiftErr        ....    0.0010
 Zerner damping         CNVZerner       .... off
 Static damping         CNVDamp         .... on
   Fraction old density DampFac         ....    0.7000
   Max. Damping (<1)    DampMax         ....    0.9800
   Min. Damping (>=0)   DampMin         ....    0.0000
   Turn off err/grad.   DampErr         ....    0.1000

SCF Procedure:
 Maximum # iterations   MaxIter         ....   125
 SCF integral mode      SCFMode         .... Direct
   Integral package                     .... SHARK and LIBINT hybrid scheme
 Reset frequency        DirectResetFreq ....    20
 Integral Threshold     Thresh          ....  2.500e-11 Eh
 Primitive CutOff       TCut            ....  2.500e-12 Eh

Convergence Tolerance:
 Convergence Check Mode ConvCheckMode   .... Total+1el-Energy
 Convergence forced     ConvForced      .... 1
 Energy Change          TolE            ....  1.000e-08 Eh
 1-El. energy change                    ....  1.000e-05 Eh
 Orbital Gradient       TolG            ....  1.000e-05
 Orbital Rotation angle TolX            ....  1.000e-05
 DIIS Error             TolErr          ....  5.000e-07

------------------------------
INITIAL GUESS: MODEL POTENTIAL
------------------------------
Loading Hartree-Fock densities                     ... done
Calculating cut-offs                               ... done
Initializing the effective Hamiltonian             ... done
Setting up the integral package (SHARK)            ... done
Starting the Coulomb interaction                   ... done (   1.7 sec)
Making the grid                                    ... done (   0.6 sec)
Mapping shells                                     ... done
Starting the XC term evaluation                    ... done (   1.0 sec)
  promolecular density results
     # of electrons  =    173.997675708
     EX              =   -148.716356810
     EC              =     -5.920044363
     EX+EC           =   -154.636401173
Transforming the Hamiltonian                       ... done (   0.1 sec)
Diagonalizing the Hamiltonian                      ... done (   0.2 sec)
Back transforming the eigenvectors                 ... done (   0.1 sec)
Now organizing SCF variables                       ... done
                      ------------------
                      INITIAL GUESS DONE (   3.8 sec)
                      ------------------
             **** ENERGY FILE WAS UPDATED (tddft.en.tmp) ****
Finished Guess after   4.3 sec
Maximum memory used throughout the entire GUESS-calculation: 86.1 MB


           ************************************************************
           *        Program running with 4 parallel MPI-processes     *
           *              working on a common directory               *
           ************************************************************

-------------------------------------------------------------------------------------------
                                      ORCA LEAN-SCF
                              memory conserving SCF solver
-------------------------------------------------------------------------------------------

--------------------
CPCM SOLVATION MODEL
--------------------
CPCM parameters:
  Epsilon                                         ...       8.9990
  Refrac                                          ...       1.4242
  Rsolv                                           ...       1.3000
  Surface type                                    ... GAUSSIAN VDW
  Discretization scheme                           ... Constant charge density
    Threshold for H atoms                         ...       5.0000 (charges/Ang^2)
    Threshold for non-H atoms                     ...       5.0000 (charges/Ang^2)
  Epsilon function type                           ...         CPCM
Solvent:                                          ... DICHLOROMETHANE
Radii:
  Scheme                                          ... Element-dependent radii
  Radius for N  used is    3.5149 Bohr (=   1.8600 Ang.)
  Radius for C  used is    3.8550 Bohr (=   2.0400 Ang.)
  Radius for H  used is    2.4944 Bohr (=   1.3200 Ang.)
  Radius for Mg used is    3.9231 Bohr (=   2.0760 Ang.)
Calculating surface                               ...        done! (  0.0s)
Cavity surface points                             ...         3503
Cavity Volume                                     ...    2512.0151
Cavity Surface-area                               ...    1198.2147
Calculating surface distance matrix               ...        done! (  0.3s)
Performing Cholesky decomposition & store         ...        done! (  0.5s)
Overall time for CPCM initialization              ...                 0.8s

----------------------------------------D-I-I-S--------------------------------------------
Iteration    Energy (Eh)           Delta-E    RMSDP     MaxDP     DIISErr   Damp  Time(sec)
-------------------------------------------------------------------------------------------
               ***  Starting incremental Fock matrix formation  ***
    1    -1189.1155777971835050     0.00e+00  2.22e-03  5.08e-02  2.17e-01  0.700 145.0
    2    -1189.3255895418346881    -2.10e-01  1.71e-03  4.11e-02  1.13e-01  0.700  63.6
                               ***Turning on AO-DIIS***
    3    -1189.4302137507074804    -1.05e-01  1.03e-03  3.24e-02  4.54e-02  0.700  62.2
    4    -1189.4921848762337504    -6.20e-02  2.21e-03  7.39e-02  3.08e-02  0.000  76.6
    5    -1189.6244691750048332    -1.32e-01  2.00e-04  4.12e-03  5.35e-03  0.000  71.8
                              *** Initializing SOSCF ***
---------------------------------------S-O-S-C-F--------------------------------------
Iteration    Energy (Eh)           Delta-E    RMSDP     MaxDP     MaxGrad    Time(sec)
--------------------------------------------------------------------------------------
    6    -1189.6249183511740739    -4.49e-04  8.58e-05  2.16e-03  2.35e-03    53.4
               *** Restarting incremental Fock matrix formation ***
    7    -1189.6250174529423020    -9.91e-05  7.06e-05  1.27e-03  1.44e-03   177.7
    8    -1189.6250869176242304    -6.95e-05  8.86e-05  1.79e-03  6.69e-04   131.9
    9    -1189.6251141776206168    -2.73e-05  3.34e-05  6.25e-04  4.32e-04   129.3
   10    -1189.6251236914004039    -9.51e-06  1.06e-05  3.28e-04  1.56e-04   101.9
   11    -1189.6251250321161024    -1.34e-06  4.52e-06  9.54e-05  4.42e-05   118.9
   12    -1189.6251252839724657    -2.52e-07  5.06e-06  1.34e-04  3.16e-05    92.8
   13    -1189.6251253454893231    -6.15e-08  4.57e-06  1.51e-04  7.45e-06   115.1
   14    -1189.6251253534896932    -8.00e-09  3.62e-06  1.11e-04  5.20e-06    91.6
                 **** Energy Check signals convergence ****

               *****************************************************
               *                     SUCCESS                       *
               *           SCF CONVERGED AFTER  14 CYCLES          *
               *****************************************************

Recomputing exchange energy using gridx3       ... done (  314.942 sec)
Old exchange energy                            :    -42.389957453 Eh
New exchange energy                            :    -42.389962722 Eh
Exchange energy change after final integration :     -0.000005270 Eh
Total energy after final integration           :  -1189.625130634 Eh
             **** ENERGY FILE WAS UPDATED (tddft.en.tmp) ****

----------------
TOTAL SCF ENERGY
----------------

Total Energy       :      -1189.62513063425763 Eh          -32371.34553 eV

Components:
Nuclear Repulsion  :       2155.85769295584805 Eh           58663.87024 eV
Electronic Energy  :      -3345.46769260478504 Eh          -91034.80404 eV
One Electron Energy:      -5909.16738713737232 Eh         -160796.61935 eV
Two Electron Energy:       2563.69969453258727 Eh           69761.81531 eV
CPCM Dielectric    :         -0.01512571555653 Eh              -0.41159 eV

Virial components:
Potential Energy   :      -2374.04109360606435 Eh          -64600.94241 eV
Kinetic Energy     :       1184.41596297180649 Eh           32229.59687 eV
Virial Ratio       :          2.00439808971282

DFT components:
N(Alpha)           :       86.999986320253 electrons
N(Beta)            :       86.999986320253 electrons
N(Total)           :      173.999972640505 electrons
E(XC)              :     -115.479277756771 Eh       

CPCM Solvation Model Properties:
Surface-charge          :         -0.04036443341564
Corrected charge        :          0.00000000000000
Outlying charge corr.   :          0.00007738572581 Eh               0.00211 eV
Free-energy (cav+disp)  :  This term is not implemented in the current solvation scheme

---------------
SCF CONVERGENCE
---------------

  Last Energy change         ...    8.0004e-09  Tolerance :   1.0000e-08
  Last MAX-Density change    ...    1.1075e-04  Tolerance :   1.0000e-07
  Last RMS-Density change    ...    3.6164e-06  Tolerance :   5.0000e-09
  Last DIIS Error            ...    2.3483e-03  Tolerance :   5.0000e-07
  Last Orbital Gradient      ...    5.2042e-06  Tolerance :   1.0000e-05
  Last Orbital Rotation      ...    2.6706e-05  Tolerance :   1.0000e-05


----------------
ORBITAL ENERGIES
----------------

  NO   OCC          E(Eh)            E(eV) 
   0   2.0000     -46.836651     -1274.4901 
   1   2.0000     -14.393615      -391.6702 
   2   2.0000     -14.375299      -391.1718 
   3   2.0000     -14.373740      -391.1294 
   4   2.0000     -14.373733      -391.1292 
   5   2.0000     -10.292820      -280.0819 
   6   2.0000     -10.292779      -280.0807 
   7   2.0000     -10.285057      -279.8706 
   8   2.0000     -10.285051      -279.8705 
   9   2.0000     -10.274852      -279.5929 
  10   2.0000     -10.274843      -279.5927 
  11   2.0000     -10.272841      -279.5382 
  12   2.0000     -10.272793      -279.5369 
  13   2.0000     -10.258207      -279.1400 
  14   2.0000     -10.258197      -279.1397 
  15   2.0000     -10.247911      -278.8598 
  16   2.0000     -10.247910      -278.8598 
  17   2.0000     -10.247809      -278.8571 
  18   2.0000     -10.247606      -278.8515 
  19   2.0000     -10.241782      -278.6931 
  20   2.0000     -10.241773      -278.6928 
  21   2.0000     -10.239751      -278.6378 
  22   2.0000     -10.239052      -278.6188 
  23   2.0000     -10.236611      -278.5524 
  24   2.0000     -10.236602      -278.5521 
  25   2.0000      -3.124564       -85.0237 
  26   2.0000      -1.871781       -50.9337 
  27   2.0000      -1.866597       -50.7927 
  28   2.0000      -1.866223       -50.7825 
  29   2.0000      -1.046849       -28.4862 
  30   2.0000      -1.037626       -28.2352 
  31   2.0000      -1.037240       -28.2247 
  32   2.0000      -1.027344       -27.9555 
  33   2.0000      -0.897722       -24.4283 
  34   2.0000      -0.871712       -23.7205 
  35   2.0000      -0.868662       -23.6375 
  36   2.0000      -0.853473       -23.2242 
  37   2.0000      -0.846598       -23.0371 
  38   2.0000      -0.844794       -22.9880 
  39   2.0000      -0.838769       -22.8241 
  40   2.0000      -0.816390       -22.2151 
  41   2.0000      -0.796749       -21.6806 
  42   2.0000      -0.735071       -20.0023 
  43   2.0000      -0.730080       -19.8665 
  44   2.0000      -0.686269       -18.6743 
  45   2.0000      -0.654568       -17.8117 
  46   2.0000      -0.647384       -17.6162 
  47   2.0000      -0.643459       -17.5094 
  48   2.0000      -0.641509       -17.4563 
  49   2.0000      -0.623609       -16.9693 
  50   2.0000      -0.608955       -16.5705 
  51   2.0000      -0.593660       -16.1543 
  52   2.0000      -0.586002       -15.9459 
  53   2.0000      -0.573189       -15.5973 
  54   2.0000      -0.569606       -15.4998 
  55   2.0000      -0.560441       -15.2504 
  56   2.0000      -0.547069       -14.8865 
  57   2.0000      -0.509544       -13.8654 
  58   2.0000      -0.504742       -13.7347 
  59   2.0000      -0.498793       -13.5728 
  60   2.0000      -0.488553       -13.2942 
  61   2.0000      -0.488442       -13.2912 
  62   2.0000      -0.483931       -13.1684 
  63   2.0000      -0.473920       -12.8960 
  64   2.0000      -0.473545       -12.8858 
  65   2.0000      -0.472213       -12.8496 
  66   2.0000      -0.453527       -12.3411 
  67   2.0000      -0.450792       -12.2667 
  68   2.0000      -0.443043       -12.0558 
  69   2.0000      -0.440322       -11.9818 
  70   2.0000      -0.435299       -11.8451 
  71   2.0000      -0.432616       -11.7721 
  72   2.0000      -0.431570       -11.7436 
  73   2.0000      -0.430458       -11.7134 
  74   2.0000      -0.424092       -11.5401 
  75   2.0000      -0.421484       -11.4692 
  76   2.0000      -0.382922       -10.4198 
  77   2.0000      -0.379642       -10.3306 
  78   2.0000      -0.376720       -10.2511 
  79   2.0000      -0.348089        -9.4720 
  80   2.0000      -0.337962        -9.1964 
  81   2.0000      -0.328525        -8.9396 
  82   2.0000      -0.318181        -8.6581 
  83   2.0000      -0.307636        -8.3712 
  84   2.0000      -0.304871        -8.2959 
  85   2.0000      -0.240818        -6.5530 
  86   2.0000      -0.222872        -6.0646 
  87   0.0000      -0.062638        -1.7045 
  88   0.0000      -0.037058        -1.0084 
  89   0.0000       0.036841         1.0025 
  90   0.0000       0.043657         1.1880 
  91   0.0000       0.065219         1.7747 
  92   0.0000       0.077723         2.1150 
  93   0.0000       0.082163         2.2358 
  94   0.0000       0.096835         2.6350 
  95   0.0000       0.097020         2.6400 
  96   0.0000       0.104410         2.8411 
  97   0.0000       0.109192         2.9713 
*Only the first 10 virtual orbitals were printed.

                    ********************************
                    * MULLIKEN POPULATION ANALYSIS *
                    ********************************

-----------------------
MULLIKEN ATOMIC CHARGES
-----------------------
   0 N :   -0.348014
   1 N :   -0.374986
   2 N :   -0.374951
   3 N :   -0.366037
   4 C :   -0.192487
   5 C :   -0.192300
   6 C :    0.174537
   7 C :    0.174722
   8 C :   -0.357831
   9 C :   -0.357463
  10 C :    0.260569
  11 C :    0.259899
  12 C :    0.220101
  13 C :    0.220336
  14 C :   -0.240769
  15 C :   -0.240676
  16 C :   -0.227244
  17 C :   -0.227299
  18 C :   -0.281943
  19 C :   -0.281963
  20 C :    0.221666
  21 C :    0.221539
  22 C :   -0.243406
  23 C :   -0.243501
  24 H :    0.131614
  25 H :    0.139561
  26 H :    0.131623
  27 H :    0.139596
  28 H :    0.149653
  29 H :    0.149688
  30 H :    0.158138
  31 H :    0.158117
  32 H :    0.161266
  33 H :    0.161292
  34 H :    0.161839
  35 H :    0.161820
  36 H :    0.155948
  37 H :    0.155919
  38 Mg:    0.681427
Sum of atomic charges:    0.0000000

--------------------------------
MULLIKEN REDUCED ORBITAL CHARGES
--------------------------------
  0 N s       :     3.684931  s :     3.684931
      pz      :     1.311726  p :     3.605189
      px      :     1.176176
      py      :     1.117286
      dz2     :     0.003773  d :     0.054465
      dxz     :     0.008761
      dyz     :     0.010317
      dx2y2   :     0.016121
      dxy     :     0.015494
      f0      :     0.000643  f :     0.003429
      f+1     :     0.000292
      f-1     :     0.000313
      f+2     :     0.000457
      f-2     :     0.000107
      f+3     :     0.000927
      f-3     :     0.000692

  1 N s       :     3.685431  s :     3.685431
      pz      :     1.382748  p :     3.632370
      px      :     1.104288
      py      :     1.145333
      dz2     :     0.003956  d :     0.053691
      dxz     :     0.010006
      dyz     :     0.008879
      dx2y2   :     0.015673
      dxy     :     0.015177
      f0      :     0.000648  f :     0.003495
      f+1     :     0.000359
      f-1     :     0.000324
      f+2     :     0.000569
      f-2     :     0.000084
      f+3     :     0.000680
      f-3     :     0.000830

  2 N s       :     3.685412  s :     3.685412
      pz      :     1.382750  p :     3.632354
      px      :     1.095620
      py      :     1.153984
      dz2     :     0.003957  d :     0.053690
      dxz     :     0.010521
      dyz     :     0.008364
      dx2y2   :     0.015304
      dxy     :     0.015544
      f0      :     0.000648  f :     0.003495
      f+1     :     0.000339
      f-1     :     0.000344
      f+2     :     0.000554
      f-2     :     0.000099
      f+3     :     0.000628
      f-3     :     0.000882

  3 N s       :     3.687602  s :     3.687602
      pz      :     1.352993  p :     3.619327
      px      :     1.158084
      py      :     1.108249
      dz2     :     0.003942  d :     0.055566
      dxz     :     0.009359
      dyz     :     0.011326
      dx2y2   :     0.015552
      dxy     :     0.015388
      f0      :     0.000643  f :     0.003542
      f+1     :     0.000327
      f-1     :     0.000340
      f+2     :     0.000633
      f-2     :     0.000091
      f+3     :     0.000854
      f-3     :     0.000655

  4 C s       :     3.214525  s :     3.214525
      pz      :     1.060849  p :     2.898706
      px      :     0.869899
      py      :     0.967957
      dz2     :     0.003266  d :     0.073420
      dxz     :     0.016193
      dyz     :     0.015335
      dx2y2   :     0.022627
      dxy     :     0.015999
      f0      :     0.000633  f :     0.005837
      f+1     :     0.000152
      f-1     :     0.001255
      f+2     :     0.000342
      f-2     :     0.000738
      f+3     :     0.001321
      f-3     :     0.001395

  5 C s       :     3.214545  s :     3.214545
      pz      :     1.060876  p :     2.898529
      px      :     0.961913
      py      :     0.875741
      dz2     :     0.003284  d :     0.073390
      dxz     :     0.014753
      dyz     :     0.016734
      dx2y2   :     0.022596
      dxy     :     0.016023
      f0      :     0.000637  f :     0.005836
      f+1     :     0.001285
      f-1     :     0.000119
      f+2     :     0.000291
      f-2     :     0.000789
      f+3     :     0.001164
      f-3     :     0.001552

  6 C s       :     3.182603  s :     3.182603
      pz      :     0.853855  p :     2.469925
      px      :     0.892046
      py      :     0.724024
      dz2     :     0.002727  d :     0.158738
      dxz     :     0.028399
      dyz     :     0.039113
      dx2y2   :     0.042066
      dxy     :     0.046433
      f0      :     0.001973  f :     0.014197
      f+1     :     0.000651
      f-1     :     0.001075
      f+2     :     0.001747
      f-2     :     0.001199
      f+3     :     0.005060
      f-3     :     0.002491

  7 C s       :     3.182743  s :     3.182743
      pz      :     0.853877  p :     2.469618
      px      :     0.740392
      py      :     0.875349
      dz2     :     0.002753  d :     0.158719
      dxz     :     0.034392
      dyz     :     0.033096
      dx2y2   :     0.044271
      dxy     :     0.044207
      f0      :     0.001973  f :     0.014197
      f+1     :     0.001076
      f-1     :     0.000652
      f+2     :     0.001526
      f-2     :     0.001419
      f+3     :     0.003566
      f-3     :     0.003984

  8 C s       :     3.305974  s :     3.305974
      pz      :     1.113760  p :     2.983838
      px      :     0.858256
      py      :     1.011822
      dz2     :     0.003254  d :     0.060956
      dxz     :     0.022470
      dyz     :     0.003372
      dx2y2   :     0.023726
      dxy     :     0.008135
      f0      :     0.001471  f :     0.007063
      f+1     :     0.000539
      f-1     :     0.000611
      f+2     :     0.000401
      f-2     :     0.000742
      f+3     :     0.001959
      f-3     :     0.001339

  9 C s       :     3.305621  s :     3.305621
      pz      :     1.113675  p :     2.983811
      px      :     1.005402
      py      :     0.864734
      dz2     :     0.003255  d :     0.060967
      dxz     :     0.003369
      dyz     :     0.022475
      dx2y2   :     0.023653
      dxy     :     0.008216
      f0      :     0.001471  f :     0.007063
      f+1     :     0.000618
      f-1     :     0.000533
      f+2     :     0.000419
      f-2     :     0.000725
      f+3     :     0.001423
      f-3     :     0.001874

 10 C s       :     3.156827  s :     3.156827
      pz      :     0.867354  p :     2.407565
      px      :     0.814730
      py      :     0.725481
      dz2     :     0.003657  d :     0.160327
      dxz     :     0.035129
      dyz     :     0.036977
      dx2y2   :     0.041500
      dxy     :     0.043064
      f0      :     0.002147  f :     0.014712
      f+1     :     0.000733
      f-1     :     0.001057
      f+2     :     0.001956
      f-2     :     0.001157
      f+3     :     0.004317
      f-3     :     0.003345

 11 C s       :     3.157089  s :     3.157089
      pz      :     0.867382  p :     2.408005
      px      :     0.718477
      py      :     0.822146
      dz2     :     0.003663  d :     0.160297
      dxz     :     0.039455
      dyz     :     0.032622
      dx2y2   :     0.038869
      dxy     :     0.045688
      f0      :     0.002146  f :     0.014709
      f+1     :     0.001098
      f-1     :     0.000693
      f+2     :     0.002373
      f-2     :     0.000740
      f+3     :     0.002503
      f-3     :     0.005158

 12 C s       :     3.143089  s :     3.143089
      pz      :     0.949743  p :     2.471558
      px      :     0.704209
      py      :     0.817606
      dz2     :     0.004315  d :     0.150940
      dxz     :     0.037304
      dyz     :     0.027924
      dx2y2   :     0.038568
      dxy     :     0.042829
      f0      :     0.002135  f :     0.014312
      f+1     :     0.001104
      f-1     :     0.000691
      f+2     :     0.002261
      f-2     :     0.000580
      f+3     :     0.002466
      f-3     :     0.005075

 13 C s       :     3.142984  s :     3.142984
      pz      :     0.949765  p :     2.471396
      px      :     0.807589
      py      :     0.714042
      dz2     :     0.004318  d :     0.150969
      dxz     :     0.029724
      dyz     :     0.035513
      dx2y2   :     0.040456
      dxy     :     0.040958
      f0      :     0.002135  f :     0.014314
      f+1     :     0.000726
      f-1     :     0.001070
      f+2     :     0.001773
      f-2     :     0.001069
      f+3     :     0.004283
      f-3     :     0.003259

 14 C s       :     3.273535  s :     3.273535
      pz      :     1.024774  p :     2.886226
      px      :     0.893680
      py      :     0.967772
      dz2     :     0.004827  d :     0.073420
      dxz     :     0.019473
      dyz     :     0.007417
      dx2y2   :     0.026777
      dxy     :     0.014926
      f0      :     0.001472  f :     0.007589
      f+1     :     0.000404
      f-1     :     0.000763
      f+2     :     0.000069
      f-2     :     0.001191
      f+3     :     0.002199
      f-3     :     0.001492

 15 C s       :     3.273735  s :     3.273735
      pz      :     1.024719  p :     2.885928
      px      :     0.972107
      py      :     0.889101
      dz2     :     0.004829  d :     0.073425
      dxz     :     0.008842
      dyz     :     0.018051
      dx2y2   :     0.027188
      dxy     :     0.014515
      f0      :     0.001472  f :     0.007589
      f+1     :     0.000721
      f-1     :     0.000445
      f+2     :     0.000360
      f-2     :     0.000899
      f+3     :     0.002014
      f-3     :     0.001677

 16 C s       :     3.284637  s :     3.284637
      pz      :     0.974541  p :     2.857352
      px      :     0.982518
      py      :     0.900292
      dz2     :     0.004705  d :     0.077571
      dxz     :     0.009501
      dyz     :     0.022627
      dx2y2   :     0.026352
      dxy     :     0.014386
      f0      :     0.001451  f :     0.007685
      f+1     :     0.000704
      f-1     :     0.000427
      f+2     :     0.000483
      f-2     :     0.000937
      f+3     :     0.002025
      f-3     :     0.001657

 17 C s       :     3.284376  s :     3.284376
      pz      :     0.974628  p :     2.857672
      px      :     0.903775
      py      :     0.979269
      dz2     :     0.004708  d :     0.077565
      dxz     :     0.024699
      dyz     :     0.007426
      dx2y2   :     0.026071
      dxy     :     0.014661
      f0      :     0.001451  f :     0.007685
      f+1     :     0.000385
      f-1     :     0.000746
      f+2     :     0.000105
      f-2     :     0.001316
      f+3     :     0.002189
      f-3     :     0.001493

 18 C s       :     3.307318  s :     3.307318
      pz      :     0.971961  p :     2.892524
      px      :     1.032454
      py      :     0.888109
      dz2     :     0.003312  d :     0.075099
      dxz     :     0.003289
      dyz     :     0.032352
      dx2y2   :     0.026482
      dxy     :     0.009664
      f0      :     0.001388  f :     0.007003
      f+1     :     0.000561
      f-1     :     0.000481
      f+2     :     0.000422
      f-2     :     0.000821
      f+3     :     0.001377
      f-3     :     0.001952

 19 C s       :     3.307400  s :     3.307400
      pz      :     0.971940  p :     2.892465
      px      :     0.888400
      py      :     1.032124
      dz2     :     0.003312  d :     0.075095
      dxz     :     0.032306
      dyz     :     0.003340
      dx2y2   :     0.026001
      dxy     :     0.010137
      f0      :     0.001388  f :     0.007003
      f+1     :     0.000476
      f-1     :     0.000566
      f+2     :     0.000432
      f-2     :     0.000812
      f+3     :     0.001948
      f-3     :     0.001381

 20 C s       :     3.143712  s :     3.143712
      pz      :     0.949852  p :     2.469534
      px      :     0.720785
      py      :     0.798897
      dz2     :     0.004156  d :     0.150594
      dxz     :     0.034927
      dyz     :     0.029040
      dx2y2   :     0.040822
      dxy     :     0.041650
      f0      :     0.002152  f :     0.014495
      f+1     :     0.001068
      f-1     :     0.000757
      f+2     :     0.001773
      f-2     :     0.001111
      f+3     :     0.003321
      f-3     :     0.004313

 21 C s       :     3.143828  s :     3.143828
      pz      :     0.949894  p :     2.469574
      px      :     0.809850
      py      :     0.709829
      dz2     :     0.004155  d :     0.150566
      dxz     :     0.028333
      dyz     :     0.035622
      dx2y2   :     0.037863
      dxy     :     0.044594
      f0      :     0.002152  f :     0.014493
      f+1     :     0.000712
      f-1     :     0.001113
      f+2     :     0.002268
      f-2     :     0.000615
      f+3     :     0.005149
      f-3     :     0.002484

 22 C s       :     3.276824  s :     3.276824
      pz      :     1.015408  p :     2.883070
      px      :     0.969296
      py      :     0.898366
      dz2     :     0.004795  d :     0.075782
      dxz     :     0.007136
      dyz     :     0.023193
      dx2y2   :     0.026154
      dxy     :     0.014504
      f0      :     0.001472  f :     0.007729
      f+1     :     0.000769
      f-1     :     0.000399
      f+2     :     0.000079
      f-2     :     0.001351
      f+3     :     0.001475
      f-3     :     0.002186

 23 C s       :     3.277253  s :     3.277253
      pz      :     1.015316  p :     2.882730
      px      :     0.894708
      py      :     0.972706
      dz2     :     0.004793  d :     0.075788
      dxz     :     0.021452
      dyz     :     0.008884
      dx2y2   :     0.026192
      dxy     :     0.014467
      f0      :     0.001472  f :     0.007730
      f+1     :     0.000436
      f-1     :     0.000731
      f+2     :     0.000433
      f-2     :     0.000996
      f+3     :     0.001684
      f-3     :     0.001977

 24 H s       :     0.846930  s :     0.846930
      pz      :     0.010770  p :     0.021455
      px      :     0.004128
      py      :     0.006558

 25 H s       :     0.839110  s :     0.839110
      pz      :     0.008573  p :     0.021329
      px      :     0.004109
      py      :     0.008647

 26 H s       :     0.846921  s :     0.846921
      pz      :     0.010792  p :     0.021456
      px      :     0.006702
      py      :     0.003962

 27 H s       :     0.839073  s :     0.839073
      pz      :     0.008555  p :     0.021331
      px      :     0.008786
      py      :     0.003990

 28 H s       :     0.827938  s :     0.827938
      pz      :     0.005596  p :     0.022409
      px      :     0.003183
      py      :     0.013630

 29 H s       :     0.827904  s :     0.827904
      pz      :     0.005596  p :     0.022408
      px      :     0.013582
      py      :     0.003230

 30 H s       :     0.819884  s :     0.819884
      pz      :     0.004767  p :     0.021978
      px      :     0.003256
      py      :     0.013956

 31 H s       :     0.819905  s :     0.819905
      pz      :     0.004767  p :     0.021977
      px      :     0.013402
      py      :     0.003809

 32 H s       :     0.816906  s :     0.816906
      pz      :     0.004459  p :     0.021828
      px      :     0.013479
      py      :     0.003890

 33 H s       :     0.816878  s :     0.816878
      pz      :     0.004460  p :     0.021830
      px      :     0.003314
      py      :     0.014057

 34 H s       :     0.816167  s :     0.816167
      pz      :     0.004702  p :     0.021994
      px      :     0.014002
      py      :     0.003291

 35 H s       :     0.816185  s :     0.816185
      pz      :     0.004702  p :     0.021995
      px      :     0.003270
      py      :     0.014022

 36 H s       :     0.822122  s :     0.822122
      pz      :     0.004739  p :     0.021929
      px      :     0.013894
      py      :     0.003296

 37 H s       :     0.822153  s :     0.822153
      pz      :     0.004739  p :     0.021928
      px      :     0.003852
      py      :     0.013337

 38 Mgs       :     4.593335  s :     4.593335
      pz      :     2.078948  p :     6.457098
      px      :     2.187682
      py      :     2.190468
      dz2     :     0.034335  d :     0.268139
      dxz     :     0.022339
      dyz     :     0.023818
      dx2y2   :     0.013787
      dxy     :     0.173860



                     *******************************
                     * LOEWDIN POPULATION ANALYSIS *
                     *******************************

----------------------
LOEWDIN ATOMIC CHARGES
----------------------
   0 N :    0.188393
   1 N :    0.165926
   2 N :    0.165909
   3 N :    0.176782
   4 C :   -0.189163
   5 C :   -0.189123
   6 C :   -0.182600
   7 C :   -0.182603
   8 C :   -0.141681
   9 C :   -0.141676
  10 C :   -0.194697
  11 C :   -0.194612
  12 C :   -0.213249
  13 C :   -0.213348
  14 C :   -0.127127
  15 C :   -0.127091
  16 C :   -0.109291
  17 C :   -0.109358
  18 C :   -0.073527
  19 C :   -0.073517
  20 C :   -0.217532
  21 C :   -0.217477
  22 C :   -0.131894
  23 C :   -0.131837
  24 H :    0.151607
  25 H :    0.149119
  26 H :    0.151604
  27 H :    0.149104
  28 H :    0.163209
  29 H :    0.163203
  30 H :    0.146321
  31 H :    0.146344
  32 H :    0.148721
  33 H :    0.148694
  34 H :    0.168726
  35 H :    0.168725
  36 H :    0.145512
  37 H :    0.145535
  38 Mg:    0.317967

-------------------------------
LOEWDIN REDUCED ORBITAL CHARGES
-------------------------------
  0 N s       :     2.973799  s :     2.973799
      pz      :     1.147773  p :     3.615258
      px      :     1.257163
      py      :     1.210322
      dz2     :     0.016140  d :     0.204290
      dxz     :     0.022465
      dyz     :     0.028840
      dx2y2   :     0.073287
      dxy     :     0.063557
      f0      :     0.001133  f :     0.018261
      f+1     :     0.001214
      f-1     :     0.001427
      f+2     :     0.002839
      f-2     :     0.000434
      f+3     :     0.006566
      f-3     :     0.004648

  1 N s       :     2.971960  s :     2.971960
      pz      :     1.209401  p :     3.645607
      px      :     1.188480
      py      :     1.247727
      dz2     :     0.015971  d :     0.198129
      dxz     :     0.030242
      dyz     :     0.022842
      dx2y2   :     0.069178
      dxy     :     0.059896
      f0      :     0.001096  f :     0.018378
      f+1     :     0.001367
      f-1     :     0.001260
      f+2     :     0.003435
      f-2     :     0.000288
      f+3     :     0.004780
      f-3     :     0.006153

  2 N s       :     2.971962  s :     2.971962
      pz      :     1.209419  p :     3.645626
      px      :     1.202045
      py      :     1.234162
      dz2     :     0.015974  d :     0.198126
      dxz     :     0.029103
      dyz     :     0.023986
      dx2y2   :     0.068177
      dxy     :     0.060886
      f0      :     0.001096  f :     0.018377
      f+1     :     0.001445
      f-1     :     0.001182
      f+2     :     0.003345
      f-2     :     0.000378
      f+3     :     0.004517
      f-3     :     0.006414

  3 N s       :     2.973544  s :     2.973544
      pz      :     1.185912  p :     3.628780
      px      :     1.244222
      py      :     1.198645
      dz2     :     0.015902  d :     0.202240
      dxz     :     0.025300
      dyz     :     0.032622
      dx2y2   :     0.068229
      dxy     :     0.060186
      f0      :     0.001060  f :     0.018654
      f+1     :     0.001201
      f-1     :     0.001383
      f+2     :     0.003789
      f-2     :     0.000315
      f+3     :     0.006270
      f-3     :     0.004637

  4 C s       :     2.763611  s :     2.763611
      pz      :     1.039209  p :     3.027551
      px      :     0.983610
      py      :     1.004732
      dz2     :     0.041672  d :     0.357752
      dxz     :     0.047580
      dyz     :     0.092619
      dx2y2   :     0.091147
      dxy     :     0.084734
      f0      :     0.003960  f :     0.040248
      f+1     :     0.003308
      f-1     :     0.004356
      f+2     :     0.004385
      f-2     :     0.005187
      f+3     :     0.009181
      f-3     :     0.009871

  5 C s       :     2.763623  s :     2.763623
      pz      :     1.039202  p :     3.027567
      px      :     1.002723
      py      :     0.985641
      dz2     :     0.041809  d :     0.357688
      dxz     :     0.091816
      dyz     :     0.048193
      dx2y2   :     0.086228
      dxy     :     0.089641
      f0      :     0.003973  f :     0.040245
      f+1     :     0.004378
      f-1     :     0.003267
      f+2     :     0.004397
      f-2     :     0.005186
      f+3     :     0.007674
      f-3     :     0.011369

  6 C s       :     2.713136  s :     2.713136
      pz      :     0.794480  p :     2.760037
      px      :     1.018841
      py      :     0.946716
      dz2     :     0.040932  d :     0.632101
      dxz     :     0.086512
      dyz     :     0.113810
      dx2y2   :     0.192214
      dxy     :     0.198633
      f0      :     0.005133  f :     0.077326
      f+1     :     0.004135
      f-1     :     0.006286
      f+2     :     0.011240
      f-2     :     0.006687
      f+3     :     0.030425
      f-3     :     0.013421

  7 C s       :     2.713149  s :     2.713149
      pz      :     0.794539  p :     2.760046
      px      :     0.940622
      py      :     1.024885
      dz2     :     0.040970  d :     0.632082
      dxz     :     0.101676
      dyz     :     0.098609
      dx2y2   :     0.189884
      dxy     :     0.200942
      f0      :     0.005132  f :     0.077325
      f+1     :     0.005964
      f-1     :     0.004463
      f+2     :     0.010286
      f-2     :     0.007639
      f+3     :     0.020534
      f-3     :     0.023308

  8 C s       :     2.743359  s :     2.743359
      pz      :     0.982039  p :     3.000918
      px      :     1.027386
      py      :     0.991493
      dz2     :     0.024608  d :     0.357446
      dxz     :     0.070866
      dyz     :     0.011065
      dx2y2   :     0.154363
      dxy     :     0.096544
      f0      :     0.003126  f :     0.039957
      f+1     :     0.004860
      f-1     :     0.003099
      f+2     :     0.002019
      f-2     :     0.005332
      f+3     :     0.012341
      f-3     :     0.009180

  9 C s       :     2.743372  s :     2.743372
      pz      :     0.982019  p :     3.000905
      px      :     0.988751
      py      :     1.030135
      dz2     :     0.024610  d :     0.357443
      dxz     :     0.011533
      dyz     :     0.070419
      dx2y2   :     0.151210
      dxy     :     0.099671
      f0      :     0.003127  f :     0.039955
      f+1     :     0.003079
      f-1     :     0.004879
      f+2     :     0.002086
      f-2     :     0.005267
      f+3     :     0.009289
      f-3     :     0.012229

 10 C s       :     2.698438  s :     2.698438
      pz      :     0.805231  p :     2.767006
      px      :     1.013626
      py      :     0.948150
      dz2     :     0.042127  d :     0.648225
      dxz     :     0.095704
      dyz     :     0.116041
      dx2y2   :     0.194718
      dxy     :     0.199636
      f0      :     0.004876  f :     0.081027
      f+1     :     0.004615
      f-1     :     0.006023
      f+2     :     0.012604
      f-2     :     0.007756
      f+3     :     0.026264
      f-3     :     0.018890

 11 C s       :     2.698457  s :     2.698457
      pz      :     0.805285  p :     2.767007
      px      :     0.947831
      py      :     1.013891
      dz2     :     0.042137  d :     0.648136
      dxz     :     0.121764
      dyz     :     0.089943
      dx2y2   :     0.191060
      dxy     :     0.203232
      f0      :     0.004875  f :     0.081011
      f+1     :     0.006279
      f-1     :     0.004359
      f+2     :     0.014853
[...]
  0-1A  ->  1-1A    2.177930   17566.2   569.3   0.220121238   0.02643   0.10284  -0.12590   0.00063
  0-1A  ->  2-1A    2.576128   20777.9   481.3   0.005784872   0.00082  -0.02223  -0.01809  -0.00006
  0-1A  ->  3-1A    3.380019   27261.7   366.8   1.416636473   0.26395   0.39800   0.32488   0.00096
  0-1A  ->  4-1A    3.604008   29068.3   344.0   1.095311689   0.21760  -0.29498   0.36138   0.00031
  0-1A  ->  5-1A    4.074105   32859.9   304.3   0.001626941   0.00037   0.01204  -0.01483   0.00072
  0-1A  ->  6-1A    4.156424   33523.8   298.3   0.022640675   0.00519  -0.05581  -0.04552  -0.00014
  0-1A  ->  7-1A    4.566160   36828.6   271.5   0.136537379   0.03437   0.14360   0.11725   0.00035
  0-1A  ->  8-1A    4.762487   38412.1   260.3   0.053564512   0.01406  -0.07503   0.09183  -0.00010
  0-1A  ->  9-1A    4.808409   38782.4   257.8   0.000000285   0.00000   0.00022   0.00016  -0.00000
  0-1A  -> 10-1A    4.920385   39685.6   252.0   0.004390772   0.00119  -0.02178   0.02667   0.00227
  0-1A  -> 11-1A    4.977278   40144.5   249.1   0.090153233   0.02474   0.09946  -0.12179  -0.00302
  0-1A  -> 12-1A    5.082572   40993.7   243.9   0.014468638   0.00405   0.04929   0.04030   0.00009
  0-1A  -> 13-1A    5.132312   41394.9   241.6   0.000329780   0.00009  -0.00451   0.00543   0.00659
  0-1A  -> 14-1A    5.265351   42467.9   235.5   0.030656660   0.00890   0.07308   0.05964   0.00018
  0-1A  -> 15-1A    5.375008   43352.4   230.7   0.012807725   0.00379   0.04743   0.03931   0.00011
  0-1A  -> 16-1A    5.405551   43598.7   229.4   0.000063493   0.00002  -0.00335  -0.00277  -0.00001
  0-1A  -> 17-1A    5.415640   43680.1   228.9   0.164077934   0.04898  -0.13998   0.17143   0.00100
  0-1A  -> 18-1A    5.517740   44503.6   224.7   0.079566201   0.02420  -0.09834   0.12051   0.00250
  0-1A  -> 19-1A    5.532552   44623.0   224.1   0.082221985   0.02508   0.10009  -0.12262   0.00480
  0-1A  -> 20-1A    5.753914   46408.5   215.5   0.000352924   0.00011   0.00815   0.00674   0.00004
  0-1A  -> 21-1A    5.778152   46603.9   214.6   0.001373604   0.00044  -0.00413   0.00499   0.01989
  0-1A  -> 22-1A    5.841483   47114.7   212.2   0.000057328   0.00002   0.00334   0.00271  -0.00002
  0-1A  -> 23-1A    5.936171   47878.5   208.9   0.017369705   0.00568   0.04746  -0.05818  -0.00683
  0-1A  -> 24-1A    5.952089   48006.8   208.3   0.000095115   0.00003  -0.00433  -0.00353  -0.00000
  0-1A  -> 25-1A    6.149630   49600.1   201.6   0.009926465   0.00336   0.03658  -0.04500  -0.00133
  0-1A  -> 26-1A    6.187265   49903.7   200.4   0.000020391   0.00001  -0.00200  -0.00171  -0.00005
  0-1A  -> 27-1A    6.203349   50033.4   199.9   0.004783944   0.00164  -0.03141  -0.02549  -0.00002
  0-1A  -> 28-1A    6.309541   50889.9   196.5   0.000008200   0.00000  -0.00131  -0.00107   0.00000
  0-1A  -> 29-1A    6.409883   51699.2   193.4   0.055039222   0.01945   0.08809  -0.10806  -0.00307
  0-1A  -> 30-1A    6.450804   52029.2   192.2   0.001516266   0.00054   0.00044  -0.00063   0.02321

------------------------------------------------------------------------------------------
                     CD SPECTRUM VIA TRANSITION ELECTRIC DIPOLE MOMENTS    
------------------------------------------------------------------------------------------
     Transition      Energy     Energy  Wavelength    R        MX        MY        MZ   
                      (eV)      (cm-1)    (nm)   (1e40*cgs)   (au)      (au)      (au)  
------------------------------------------------------------------------------------------
  0-1A  ->  1-1A    2.177930   17566.2   569.3    3.23574  -0.00161  -0.00108   1.02121
  0-1A  ->  2-1A    2.576128   20777.9   481.3   -0.24069   0.00133   0.00107   0.00029
  0-1A  ->  3-1A    3.380019   27261.7   366.8  -20.90780  -0.00834  -0.00664  -0.00022
  0-1A  ->  4-1A    3.604008   29068.3   344.0    1.87457  -0.00077   0.00075   0.08664
  0-1A  ->  5-1A    4.074105   32859.9   304.3   -1.71013  -0.00184   0.00430  -0.65691
  0-1A  ->  6-1A    4.156424   33523.8   298.3   -1.13805   0.00401   0.00326   0.00044
  0-1A  ->  7-1A    4.566160   36828.6   271.5   -2.64042  -0.00392  -0.00320  -0.00009
  0-1A  ->  8-1A    4.762487   38412.1   260.3    0.75856  -0.00046   0.00202  -0.49051
  0-1A  ->  9-1A    4.808409   38782.4   257.8   -0.01856   0.03524   0.02886   0.00010
  0-1A  -> 10-1A    4.920385   39685.6   252.0   26.56696  -0.18071   0.22111   0.13288
  0-1A  -> 11-1A    4.977278   40144.5   249.1  -13.47537  -0.02822   0.03670  -0.72727
  0-1A  -> 12-1A    5.082572   40993.7   243.9   -0.72630  -0.00366  -0.00283  -0.00004
  0-1A  -> 13-1A    5.132312   41394.9   241.6    1.16586  -0.03272   0.04002   0.02222
  0-1A  -> 14-1A    5.265351   42467.9   235.5    1.93266   0.00643   0.00527  -0.00022
  0-1A  -> 15-1A    5.375008   43352.4   230.7   -0.44728  -0.00238  -0.00193   0.00089
  0-1A  -> 16-1A    5.405551   43598.7   229.4   -2.15058   0.16249   0.13258   0.00048
  0-1A  -> 17-1A    5.415640   43680.1   228.9   -0.32223   0.00121  -0.00312   0.56941
  0-1A  -> 18-1A    5.517740   44503.6   224.7   -0.77321   0.00267  -0.00371   0.14209
  0-1A  -> 19-1A    5.532552   44623.0   224.1    7.88066   0.00329  -0.00557   0.48869
  0-1A  -> 20-1A    5.753914   46408.5   215.5   -0.18656  -0.00553  -0.00462   0.00041
  0-1A  -> 21-1A    5.778152   46603.9   214.6   -0.14712  -0.02853   0.03492  -0.02005
  0-1A  -> 22-1A    5.841483   47114.7   212.2   -0.06251  -0.00589  -0.00473   0.00003
  0-1A  -> 23-1A    5.936171   47878.5   208.9    1.08075   0.00371  -0.00460  -0.00620
  0-1A  -> 24-1A    5.952089   48006.8   208.3   -1.33058   0.08670   0.07067   0.00025
  0-1A  -> 25-1A    6.149630   49600.1   201.6    0.09145  -0.00114   0.00157  -0.12305
  0-1A  -> 26-1A    6.187265   49903.7   200.4   -0.85968   0.11672   0.09557   0.00020
  0-1A  -> 27-1A    6.203349   50033.4   199.9    3.06783  -0.02889  -0.02389   0.00016
  0-1A  -> 28-1A    6.309541   50889.9   196.5    0.22249  -0.05161  -0.04218  -0.00020
  0-1A  -> 29-1A    6.409883   51699.2   193.4   -0.47321  -0.00328   0.00456  -0.18234
  0-1A  -> 30-1A    6.450804   52029.2   192.2    0.58555   0.07791  -0.09532   0.00992

------------------------------------------------------------------------------------------
                     CD SPECTRUM VIA TRANSITION VELOCITY DIPOLE MOMENTS    
------------------------------------------------------------------------------------------
     Transition      Energy     Energy  Wavelength    R        MX        MY        MZ   
                      (eV)      (cm-1)    (nm)   (1e40*cgs)   (au)      (au)      (au)  
------------------------------------------------------------------------------------------
  0-1A  ->  1-1A    2.177930   17566.2   569.3    3.59098  -0.00161  -0.00108   1.02121
  0-1A  ->  2-1A    2.576128   20777.9   481.3   -0.24303   0.00133   0.00107   0.00029
  0-1A  ->  3-1A    3.380019   27261.7   366.8  -20.79313  -0.00834  -0.00664  -0.00022
  0-1A  ->  4-1A    3.604008   29068.3   344.0    1.86454  -0.00077   0.00075   0.08664
  0-1A  ->  5-1A    4.074105   32859.9   304.3   -1.75927  -0.00184   0.00430  -0.65691
  0-1A  ->  6-1A    4.156424   33523.8   298.3   -1.14809   0.00401   0.00326   0.00044
  0-1A  ->  7-1A    4.566160   36828.6   271.5   -2.63476  -0.00392  -0.00320  -0.00009
  0-1A  ->  8-1A    4.762487   38412.1   260.3    0.73061  -0.00046   0.00202  -0.49051
  0-1A  ->  9-1A    4.808409   38782.4   257.8    0.03334   0.03524   0.02886   0.00010
  0-1A  -> 10-1A    4.920385   39685.6   252.0   26.42531  -0.18071   0.22111   0.13288
  0-1A  -> 11-1A    4.977278   40144.5   249.1  -13.09615  -0.02822   0.03670  -0.72727
  0-1A  -> 12-1A    5.082572   40993.7   243.9   -0.74362  -0.00366  -0.00283  -0.00004
  0-1A  -> 13-1A    5.132312   41394.9   241.6    1.27832  -0.03272   0.04002   0.02222
  0-1A  -> 14-1A    5.265351   42467.9   235.5    1.91047   0.00643   0.00527  -0.00022
  0-1A  -> 15-1A    5.375008   43352.4   230.7   -0.44992  -0.00238  -0.00193   0.00089
  0-1A  -> 16-1A    5.405551   43598.7   229.4   -2.16489   0.16249   0.13258   0.00048
  0-1A  -> 17-1A    5.415640   43680.1   228.9   -0.31782   0.00121  -0.00312   0.56941
  0-1A  -> 18-1A    5.517740   44503.6   224.7   -0.82212   0.00267  -0.00371   0.14209
  0-1A  -> 19-1A    5.532552   44623.0   224.1    7.78241   0.00329  -0.00557   0.48869
  0-1A  -> 20-1A    5.753914   46408.5   215.5   -0.17001  -0.00553  -0.00462   0.00041
  0-1A  -> 21-1A    5.778152   46603.9   214.6   -0.23670  -0.02853   0.03492  -0.02005
  0-1A  -> 22-1A    5.841483   47114.7   212.2   -0.07125  -0.00589  -0.00473   0.00003
  0-1A  -> 23-1A    5.936171   47878.5   208.9    1.05050   0.00371  -0.00460  -0.00620
  0-1A  -> 24-1A    5.952089   48006.8   208.3   -1.34678   0.08670   0.07067   0.00025
  0-1A  -> 25-1A    6.149630   49600.1   201.6    0.10668  -0.00114   0.00157  -0.12305
  0-1A  -> 26-1A    6.187265   49903.7   200.4   -0.82454   0.11672   0.09557   0.00020
  0-1A  -> 27-1A    6.203349   50033.4   199.9    3.13523  -0.02889  -0.02389   0.00016
  0-1A  -> 28-1A    6.309541   50889.9   196.5    0.22887  -0.05161  -0.04218  -0.00020
  0-1A  -> 29-1A    6.409883   51699.2   193.4   -0.44453  -0.00328   0.00456  -0.18234
  0-1A  -> 30-1A    6.450804   52029.2   192.2    0.64582   0.07791  -0.09532   0.00992

Total run time:     8544.642 sec

           *** ORCA-CIS/TD-DFT FINISHED WITHOUT ERROR ***
-----------------------
CIS/TD-DFT TOTAL ENERGY
-----------------------

    E(SCF)  =  -1189.625130634 Eh
    DE(CIS) =      0.080037474 Eh (Root  1)
    ----------------------------- ---------
    E(tot)  =  -1189.545093160 Eh


Maximum memory used throughout the entire CIS-calculation: 2727.0 MB
=> NOW LEAVING ORCA_CIS

-------------------------   --------------------
FINAL SINGLE POINT ENERGY     -1189.545093160061
-------------------------   --------------------



           ************************************************************
           *        Program running with 4 parallel MPI-processes     *
           *              working on a common directory               *
           ************************************************************

------------------------------------------------------------------------------
                              ORCA PROPERTY CALCULATIONS
------------------------------------------------------------------------------

GBWName                                 ... tddft.gbw
Number of atoms                         ...     39
Number of basis functions               ...    860
Max core memory                         ...   3000 MB

Electric properties:
Dipole moment                           ... YES
Quadrupole moment                       ...  NO
Static polarizability (Dipole/Dipole)   ...  NO
Static polarizability (Dipole/Quad.)    ...  NO
Static polarizability (Quad./Quad.)     ...  NO
Static polarizability (Velocity)        ...  NO
Static hyperpolarizability              ...  NO

Atomic electric properties:
Dipole moment                           ...  NO
Quadrupole moment                       ...  NO
Static polarizability                   ...  NO

Choice of electric origin               ... Center of mass
Position of electric origin             ...     0.020726     0.037348     0.001110

General magnetic properties:
Magnetizability                         ...  NO

EPR properties:
g-Tensor (aka g-matrix)                 ...  NO
Zero-Field splitting spin-orbit         ...  NO
Zero-field splitting spin-spin          ...  NO
Hyperfine couplings                     ...  NO (   0 nuclei)
Quadrupole couplings                    ...  NO (   0 nuclei)
Contact density                         ...  NO (   0 nuclei)

NMR properties:
Chemical shifts                         ...  NO (   0 nuclei)
Spin-rotation constants                 ...  NO (   0 nuclei)
Spin-spin couplings                     ...  NO (   0 nuclei,    0 pairs)

Choice of magnetic origin               ... GIAO
Position of magnetic origin             ...     0.000000     0.000000     0.000000

Properties with geometric perturbations:
SCF Hessian                             ...  NO
IR spectrum                             ...  NO
VCD spectrum                            ...  NO
X-ray spectroscopy properties:
SCF XES/XAS/RIXS spectra                ...  NO

SCF SOC stabilization energy            ...  NO
Diagonal Born-Oppenheimer correction    ...  NO

-------------
DIPOLE MOMENT
-------------

Method             : SCF
Type of density    : Electron Density
Multiplicity       :   1
Irrep              :   0
Energy             : -1189.6251306342576299 Eh
Basis              : AO
                                X                 Y                 Z
Electronic contribution:     -5.288125262      -4.315516395      -0.010513941
Nuclear contribution   :      6.309094870       5.149182336       0.012909410
                        -----------------------------------------
Total Dipole Moment    :      1.020969608       0.833665941       0.002395468
                        -----------------------------------------
Magnitude (a.u.)       :      1.318098471
Magnitude (Debye)      :      3.350340058



--------------------
Rotational spectrum 
--------------------
 
Rotational constants in cm-1:             0.008906             0.008560             0.004372 
Rotational constants in MHz :           266.993354           256.633129           131.080005 

Dipole components along the rotational axes: 
x,y,z [a.u.] :     1.318098    -0.000817    -0.000043 
x,y,z [Debye]:     3.350339    -0.002075    -0.000109 

 

Dipole moment calculation done in   0.0 sec 

Maximum memory used throughout the entire PROP-calculation: 88.5 MB

--------------------------------
SUGGESTED CITATIONS FOR THIS RUN
--------------------------------

Below you find a list of papers that are relevant to this ORCA run
We neither can nor want to force you to cite these papers, but we appreciate if you do
You receive ORCA, which is the product of decades of hard work by many enthusiastic individuals, for free
The only thing we kindly ask in return is that you cite our papers,
We deeply appreciate it, if you show your appreciation for ORCA by not just citing the generic ORCA reference.

Please note that relegating all ORCA citations to the supporting information does *not* help us.
SI sections are not indexed - citations you put there will not count into any citation statistics
But we need these citations in order to attract the funding resources that allow us to do what we are doing

Therefore, if you are a happy ORCA user, please consider citing a few of the papers listed below in the main body of your paper

In addition to the list printed below, the program has created the file tddft.bibtex that contains the list in bibtex format
You can import this file easily into all common literature databanks and citation aid programs

It goes without saying that in many instances, there are alternative algorithms to achieve similar
results as the ones you have gotten from ORCA. It is, of course, also the case that in some instances
ORCA just re-implements algorithms worked out by others. We are fully aware of that and we are also
fully appreciative of our colleagues work. Hence this citation list should not be read as indicating
that the listed papers, which are focused on our own work, are the only ones worth citing. It simply
meant to make it easier for users to cite ORCA specific papers. It is not a substitute for doing your
own literature research and citing the relevant literature in a scientifically appropriate manner.

List of essential papers. We consider these as the minimum necessary citations

  1. Neese, F.
     Software update: the ORCA program system, version 6.0
     WIRES Comput. Molec. Sci. 2025 15(1), e70019
     doi.org/10.1002/wcms.70019

List of papers to cite with high priority. The work reported in these papers was absolutely
necessary for this run to complete.
Our perspective: the developers of density functionals and basis sets usually get cited in chemistry papers
Good! But without the algorithms to do something with them, the functionals or basis sets would not do anything.
Hence, in our opinion, the algorithm design and method developments papers are equally worthy of getting cited

  1. Neese, F.; Olbrich, G.
     Efficient use of the resolution of the identity approximation in time-dependent density functional calculations with hybrid density functionals
     Chem. Phys. Lett. 2002 362 , 170-178
     doi.org/10.1016/s0009-2614(02)01053-9
  2. Neese, F.
     An improvement of the resolution of the identity approximation for the formation of the Coulomb matrix
     J. Comp. Chem. 2003 24(14), 1740-1747
     doi.org/10.1002/jcc.10318
  3. Neese, F.; Wennmohs, F.; Hansen, A.; Becker, U.
     Efficient, approximate and parallel Hartree-Fock and hybrid DFT calculations. A 'chain-of-spheres' algorithm for the Hartree-Fock exchange
     Chem. Phys. 2009 356(1-3), 98-109
     doi.org/10.1016/j.chemphys.2008.10.036
  4. Garcia-Rates, M.; Neese, F.
     Effect of the Solute Cavity on the Solvation Energy and its Derivatives within the Framework of the Gaussian Charge Scheme
     J. Comput. Chem. 2020 41 , 922-939
     doi.org/10.1002/jcc.26139
  5. Helmich-Paris, B.; de Souza, B.; Neese, F.; Izsák, R.
     An improved chain of spheres for exchange algorithm
     J. Chem. Phys. 2021 155(10), 104109
     doi.org/10.1063/5.0058766
  6. Neese, F.
     The SHARK Integral Generation and Digestion System
     J. Comp. Chem. 2022 44(3), 381
     doi.org/10.1002/jcc.26942

List of suggested additional citations. These are papers that are important in the 'surrounding' of 
of this run, or papers that preceded the highly important papers. If you like your results we are grateful for a citation.

  1. Izsak, R.; Neese, F.
     An overlap fitted chain of spheres exchange method
     J. Chem. Phys. 2011 135 , 144105
     doi.org/10.1063/1.3646921
  2. Izsak, R.; Hansen, A.; Neese, F.
     The resolution of identity and chain of spheres approximations for the LPNO-CCSD singles Fock term
     Molec. Phys. 2012 110 , 2413-2417
     doi.org/10.1080/00268976.2012.687466
  3. Neese, F.
     The ORCA program system
     WIRES Comput. Molec. Sci. 2012 2(1), 73-78
     doi.org/10.1002/wcms.81
  4. Izsak, R.; Neese, F.; Klopper, W.
     Robust fitting techniques in the chain of spheres approximation to the Fock exchange: The role of the complementary space
     J. Chem. Phys. 2013 139 , 
     doi.org/10.1063/1.4819264
  5. Neese, F.
     Software update: the ORCA program system, version 4.0
     WIRES Comput. Molec. Sci. 2018 8(1), 1-6
     doi.org/10.1002/wcms.1327
  6. Neese, F.; Wennmohs, F.; Becker, U.; Riplinger, C.
     The ORCA quantum chemistry program package
     J. Chem. Phys. 2020 152(22), 224108
     doi.org/10.1063/5.0004608
  7. Neese, F.
     Software update: The ORCA program system—Version 5.0
     WIRES Comput. Molec. Sci. 2022 12(1), e1606
     doi.org/10.1002/wcms.1606

List of optional additional citations

  1. Neese, F.
     Approximate second-order SCF convergence for spin unrestricted wavefunctions
     Chem. Phys. Lett. 2000 325(1-3), 93-98
     doi.org/10.1016/s0009-2614(00)00662-x

Timings for individual modules:

Sum of individual times          ...    10392.291 sec (= 173.205 min)
Startup calculation              ...       16.887 sec (=   0.281 min)   0.2 %
SCF iterations                   ...     1824.536 sec (=  30.409 min)  17.6 %
Property integrals               ...        5.077 sec (=   0.085 min)   0.0 %
Property calculations            ...        0.603 sec (=   0.010 min)   0.0 %
CIS module                       ...     8545.188 sec (= 142.420 min)  82.2 %
                             ****ORCA TERMINATED NORMALLY****
TOTAL RUN TIME: 0 days 2 hours 53 minutes 12 seconds 691 msec
