
                                 *****************
                                 * O   R   C   A *
                                 *****************

                                            #,                                       
                                            ###                                      
                                            ####                                     
                                            #####                                    
                                            ######                                   
                                           ########,                                 
                                     ,,################,,,,,                         
                               ,,#################################,,                 
                          ,,##########################################,,             
                       ,#########################################, ''#####,          
                    ,#############################################,,   '####,        
                  ,##################################################,,,,####,       
                ,###########''''           ''''###############################       
              ,#####''   ,,,,##########,,,,          '''####'''          '####       
            ,##' ,,,,###########################,,,                        '##       
           ' ,,###''''                  '''############,,,                           
         ,,##''                                '''############,,,,        ,,,,,,###''
      ,#''                                            '''#######################'''  
     '                                                          ''''####''''         
             ,#######,   #######,   ,#######,      ##                                
            ,#'     '#,  ##    ##  ,#'     '#,    #''#        ,####,    ,#,          
            ##       ##  ##   ,#'  ##            #'  '#       #'       ,# #          
            ##       ##  #######   ##           ,######,      #####,      #          
            '#,     ,#'  ##    ##  '#,     ,#' ,#      #,     #,   #      #          
             '#######'   ##     ##  '#######'  #'      '#     '####' #    #          



                #########################################################
                #                        -***-                          #
                #          Department of theory and spectroscopy        #
                #                                                       #
                #                      Frank Neese                      #
                #                                                       #
                #     Directorship, Architecture, Infrastructure        #
                #                    SHARK, DRIVERS                     #
                #        Core code/Algorithms in most modules           #
                #                                                       #
                #        Max Planck Institute fuer Kohlenforschung      #
                #                Kaiser Wilhelm Platz 1                 #
                #                 D-45470 Muelheim/Ruhr                 #
                #                      Germany                          #
                #                                                       #
                #                  All rights reserved                  #
                #                        -***-                          #
                #########################################################


                         Program Version 6.1.1  -  RELEASE   -
                                (GIT: $487d211c$)
                          ($2025-11-21 10:33:24 +0100$)


 With contributions from (in alphabetic order):
[Max-Planck-Institut fuer Kohlenforschung]                               
  Daniel Aravena         : Magnetic Suceptibility                        
  Michael Atanasov       : Ab Initio Ligand Field Theory (pilot matlab implementation)
  Alexander A. Auer      : GIAO ZORA, VPT2 properties, NMR spectrum      
  Ute Becker             : All parallelization in ORCA, NUMFREQ, NUMCALC 
  Giovanni Bistoni       : ED, misc. LED, open-shell LED, HFLD           
  Dmytro Bykov           : pre 5.0 version of the SCF Hessian            
  Marcos Casanova-Páez   : Triplet and SCS-CIS(D). UHF-(DLPNO)-IP/EA/STEOM-CCSD. UHF-CVS-IP/STEOM-CCSD   
  Vijay G. Chilkuri      : MRCI spin determinant printing, contributions to CSF-ICE 
  Pauline Colinet        : FMM embedding                                 
  Dipayan Datta          : RHF DLPNO-CCSD density                        
  Achintya Kumar Dutta   : EOM-CC, STEOM-CC                              
  Nicolas Foglia         : Exact transition moments, OPA infrastructure, MCD improvements    
  Dmitry Ganyushin       : Spin-Orbit,Spin-Spin,Magnetic field MRCI      
  Miquel Garcia-Rates    : C-PCM and meta-GGA Hessian, CCSD/C-PCM, Gaussian charge scheme 
  Tiago L. C. Gouveia    : GS-ROHF, GS-ROCIS                             
  Yang Guo               : DLPNO-NEVPT2, F12-NEVPT2, CIM, IAO-localization        
  Andreas Hansen         : Spin unrestricted coupled pair/coupled cluster methods 
  Ingolf Harden          : AUTO-CI MPn and infrastructure                
  Benjamin Helmich-Paris : MC-RPA, TRAH-(SCF,CASSCF), AVAS, COSX integrals, SCF dyn. polar., MC-PDFT, srDFT 
  Lee Huntington         : MR-EOM, pCC                                   
  Robert Izsak           : Overlap fitted RIJCOSX, COSX-SCS-MP3, EOM     
  Riya Kayal             : Wick's Theorem for AUTO-CI, AUTO-CI UHF-CCSDT 
  Emily Kempfer          : AUTO-CI RHF CISDT and CCSDT, approximate NEVPT4
  Christian Kollmar      : KDIIS, OOCD, Brueckner-CCSD(T), CCSD density, CASPT2, CASPT2-K, improved NEVPT2 
  Axel Koslowski         : Symmetry handling                             
  Simone Kossmann        : meta-GGA functionals, TD-DFT gradient, OOMP2, (MP2 Hessian; deprecated post 5.0) 
  Lucas Lang             : DCDCAS, Hyperfine gauge corrections, ICE-SOC+SSC
  Marvin Lechner         : AUTO-CI (C++ implementation), FIC-MRCC        
  Spencer Leger          : CASSCF response                               
  Dagmar Lenk            : GEPOL surface, SMD, ORCA-2-JSON               
  Dimitrios Liakos       : Extrapolation schemes; Compound Job, Property file
  Dimitrios Manganas     : Further ROCIS development; embedding schemes. LFT, Crystal Embedding 
  Dimitrios Pantazis     : SARC Basis sets                               
  Anastasios Papadopoulos: AUTO-CI, single reference methods and gradients 
  Taras Petrenko         : pre 6.0 DFT Hessian and TD-DFT gradient,  ECA, NRVS 
  Petra Pikulova         : Analytic Raman intensities                    
  Peter Pinski           : DLPNO-MP2, DLPNO-MP2 Gradient                 
  Shashank Vittal Rao    : ES-AILFT, MagRelax                            
  Christoph Reimann      : Effective Core Potentials                     
  Marius Retegan         : Local ZFS, SOC                                
  Christoph Riplinger    : Optimizer, TS searches, QM/MM, DLPNO-CCSD(T), (RO)-DLPNO pert. Triples 
  Michael Roemelt        : Original ROCIS implementation, recursive CI coupling coefficients
  Masaaki Saitow         : Open-shell DLPNO-CCSD energy and density      
  Barbara Sandhoefer     : DKH picture change effects                    
  Yorick L. A. Schmerwitz: GMF and freeze-and-release deltaSCF, NEB S-IDPP initial path                    
  Kantharuban Sivalingam : CASSCF convergence/infrastructure, NEVPT2, NEVPT3, NEVPT4(SD), FIC-MRCI and CEPA variants
  Bernardo de Souza      : ESD, SOC TD-DFT                               
  Georgi L. Stoychev     : AutoAux, RI-MP2 NMR, DLPNO-MP2 response, X2C  
  Van Anh Tran           : RI-MP2 g-tensors                              
  Willem Van den Heuvel  : Paramagnetic NMR                              
  Zikuan Wang            : NOTCH, Electric field optimization            
  Frank Wennmohs         : Technical directorship and infrastructure     
  Hang Xu                : AUTO-CI-Response properties                   
                                                                         
[FACCTs GmbH]                                                            
  Markus Bursch, Nicolas Foglia, Miquel Garcia-Rates, Ingolf Harden, Hagen Neugebauer, Anastasios Papadopoulos, 
  Christoph Riplinger, Bernardo de Souza, Georgi L. Stoychev                                                    
                                                                 
  APM, various basis sets, CI-OPT, improved COSX, DLPNO-Multilevel,           
  DOCKER, DRACO, updates on ESD, Fragmentator, GOAT, IRC, LR-CPCM, L-BFGS, MBIS, meta-GGA TD-DFT gradient, ML-optimized integration grids, 
  MM, NACMEs, nearIR, NEB, NEB-TS, NL-DFT gradient (VV10), 2- and 3-layer-ONIOM, interface openCOSMO-RS, QMMM,   
  Crystal-QMMM, RESP, rigid body optimization, SF, symmetry and pop. for TD-DFT, various functionals, SOLVATOR                                   
                                                                         
[Other institutions]                                                     
  V. Asgeirsson          : NEB                                           
  Christoph Bannwarth    : sTDA-DFT, sTD-DFT, PBEh-3c, B97-3c, D3        
  Giovanni Bistoni       : ETS/NOCV, ADLD/ADEX, COVALED                  
  Martin Brehm           : Molecular dynamics                            
  Ronald Cardenas        : ETS/NOCV                                      
  Martina Colucci        : COVALED                                       
  Sebastian Ehlert       : rSCAN, r2SCAN, r2SCAN-3c, D4, dhf basis sets  
  Marvin Friede          : D4 for Fr, Ra, Ac-Lr                          
  Lars Goerigk           : TD-DFT with DH, B97 family of functionals     
  Stefan Grimme          : VdW corrections, initial TS optimization, DFT functionals, gCP, sTDA/sTD-DF 
  Waldemar Hujo          : DFT-NL                                        
  H. Jonsson             : NEB                                           
  Holger Kruse           : gCP                                           
  Marcel Mueller         : wB97X-3c, vDZP basis set                      
  Hagen Neugebauer       : wr2SCAN, Native XTB                           
  Gianluca Regni         : ADLD/ADEX                                     
  Tobias Risthaus        : pre 6.0 range-separated hybrid DFT and stability analysis
  Lukas Wittmann         : regularized MP2, r2SCAN double-hybrids, wr2SCAN        
                                                                         
We gratefully acknowledge several colleagues who have allowed us to      
interface, adapt or use parts of their codes:                            
  Ed Valeev, F. Pavosevic, A. Kumar             : LibInt (2-el integral package), F12 methods 
  Garnet Chan, S. Sharma, J. Yang, R. Olivares  : DMRG                   
  Ulf Ekstrom                                   : XCFun DFT Library      
  Mihaly Kallay                                 : mrcc  (arbitrary order and MRCC methods)
  Frank Weinhold                                : gennbo (NPA and NBO analysis)           
  Simon Mueller                                 : openCOSMO-RS                            
  Christopher J. Cramer and Donald G. Truhlar   : smd solvation model                     
  S Lehtola, MJT Oliveira, MAL Marques          : LibXC Library                           
  Liviu Ungur et al                             : ANISO software                          


 Your calculation uses the libint2 library for the computation of 2-el integrals
 For citations please refer to: http://libint.valeyev.net

 Your ORCA version has been built with support for libXC version: 7.0.0
 For citations please refer to: https://libxc.gitlab.io

 This ORCA versions uses:
   CBLAS   interface :  Fast vector & matrix operations
   LAPACKE interface :  Fast linear algebra routines
   SCALAPACK package :  Parallel linear algebra routines
   Shared memory     :  Shared parallel matrices
   BLAS/LAPACK       :  OpenBLAS 0.3.29  USE64BITINT DYNAMIC_ARCH NO_AFFINITY Haswell SINGLE_THREADED
        Core in use  :  Haswell
   Copyright (c) 2011-2014, The OpenBLAS Project


  ***********************************
  * Starting time: Sun Jul  5 21:21:23 2026
  * Host name:     steezy
  * Process ID:    1299432
  * Working dir.:  /home/jannes/chlorophyll-ladder/007-mg-core-ladder/mgchlorin/03_tddft_ch2cl2/wb97xd
  ***********************************

NOTE: MaxCore=3000 MB was set to SCF,MP2,MDCI,CIPSI,MRCI,RASCI and CIS
      => If you want to overwrite this, your respective input block should be placed after the MaxCore statement


***************************************
The coordinates will be read from file: /home/jannes/chlorophyll-ladder/007-mg-core-ladder/mgchlorin/01_opt/mgchlorin_opt_b3lypd4_tzvp.xyz
***************************************


Your calculation utilizes the atom-pairwise dispersion correction
with the zero-damping scheme (D30)


XCFun DFT library Copyright 2009-2010 Ulf Ekstrom and contributors.
See http://admol.org/xcfun for more information.
This is free software; see the source code for copying conditions.
There is ABSOLUTELY NO WARRANTY; not even for MERCHANTABILITY or FITNESS FOR A PARTICULAR PURPOSE.
For details see the documentation.
Scientific users of this library should cite U. Ekstrom, L. Visscher, R. Bast, A. J. Thorvaldsen and K. Ruud;
J.Chem.Theor.Comp. 2010, DOI: 10.1021/ct100117s
XCFun Version 0.99 

================================================================================

----- Orbital basis set information -----
Your calculation utilizes the basis: def2-TZVP
   F. Weigend and R. Ahlrichs, Phys. Chem. Chem. Phys. 7, 3297 (2005).

----- AuxJ basis set information -----
Your calculation utilizes the auxiliary basis: def2/J
   H-Rn: F. Weigend, Phys. Chem. Chem. Phys. 8, 1057 (2006).
   Fr-Lr: K. Eichkorn, F. Weigend, O. Treutler, R. Ahlrichs; Theor. Chem. Acc. 97, 119 (1997).

================================================================================
                                        WARNINGS
                       Please study these warnings very carefully!
================================================================================


WARNING: CIS/ROCIS methods need fully converged wavefunctions
  ===> : Setting SCFConvForced true
         You can overwrite this default with %scf ConvForced false 


================================================================================
                                       INPUT FILE
================================================================================
NAME = tddft.inp
|  1> %pal nprocs 4 end
|  2> %maxcore 3000
|  3> ! wB97X-D3 def2-TZVP def2/J RIJCOSX DefGrid3 TightSCF CPCM(CH2Cl2)
|  4> %tddft
|  5>   nroots 30
|  6>   tda false
|  7>   triplets false
|  8> end
|  9> * xyzfile 0 1 /home/jannes/chlorophyll-ladder/007-mg-core-ladder/mgchlorin/01_opt/mgchlorin_opt_b3lypd4_tzvp.xyz
| 10> 
| 11>                          ****END OF INPUT****
================================================================================

                       ****************************
                       * Single Point Calculation *
                       ****************************

---------------------------------
CARTESIAN COORDINATES (ANGSTROEM)
---------------------------------
  N      1.617376    1.330383    0.004551
  N     -1.306529    1.580997    0.003644
  N      1.276091   -1.584198   -0.002271
  N     -1.612608   -1.304895   -0.003475
  C      2.875203    3.342362   -0.063685
  C      3.840630    2.159068    0.079915
  C      1.509656    2.684377   -0.016153
  C      2.922172    0.953296    0.027878
  C      0.336508    3.400638   -0.015219
  C      3.388460   -0.339731    0.025539
  C     -0.976132    2.896056   -0.002122
  C      2.630796   -1.524412    0.007627
  C     -2.686758    1.511059    0.009704
  C      0.930668   -2.922223   -0.012658
  C     -2.169427    3.701790    0.002039
  C      3.180636   -2.855093    0.001851
  C     -3.225855    2.843438    0.009928
  C      2.127735   -3.717737   -0.011279
  C     -3.426856    0.343504    0.009772
  C     -0.361658   -3.413010   -0.017853
  C     -2.938073   -0.969119    0.002267
  C     -1.549551   -2.670848   -0.012186
  C     -3.737889   -2.157029   -0.002719
  C     -2.873771   -3.216052   -0.012243
  H      3.004410    3.866805   -1.013495
  H      2.986016    4.085160    0.727134
  H      4.377829    2.179169    1.031116
  H      4.592202    2.120440   -0.709370
  H      0.429527    4.479453   -0.029677
  H      4.463992   -0.464803    0.042863
  H     -2.189602    4.780461   -0.001150
  H      4.233282   -3.091377    0.007587
  H     -4.277438    3.085144    0.014504
  H      2.153498   -4.796427   -0.018419
  H     -4.504247    0.454657    0.013550
  H     -0.468513   -4.490823   -0.024516
  H     -4.816548   -2.181344    0.000207
  H     -3.114006   -4.267872   -0.018337
  Mg    -0.018551   -0.004412    0.000625

----------------------------
CARTESIAN COORDINATES (A.U.)
----------------------------
  NO LB      ZA    FRAG     MASS         X           Y           Z
   0 N     7.0000    0    14.007    3.056398    2.514059    0.008600
   1 N     7.0000    0    14.007   -2.468981    2.987652    0.006887
   2 N     7.0000    0    14.007    2.411463   -2.993700   -0.004293
   3 N     7.0000    0    14.007   -3.047387   -2.465895   -0.006567
   4 C     6.0000    0    12.011    5.433346    6.316149   -0.120347
   5 C     6.0000    0    12.011    7.257738    4.080048    0.151018
   6 C     6.0000    0    12.011    2.852836    5.072737   -0.030524
   7 C     6.0000    0    12.011    5.522104    1.801468    0.052683
   8 C     6.0000    0    12.011    0.635908    6.426274   -0.028760
   9 C     6.0000    0    12.011    6.403262   -0.641999    0.048262
  10 C     6.0000    0    12.011   -1.844622    5.472752   -0.004009
  11 C     6.0000    0    12.011    4.971483   -2.880721    0.014414
  12 C     6.0000    0    12.011   -5.077236    2.855488    0.018338
  13 C     6.0000    0    12.011    1.758707   -5.522200   -0.023920
  14 C     6.0000    0    12.011   -4.099623    6.995369    0.003853
  15 C     6.0000    0    12.011    6.010530   -5.395343    0.003498
  16 C     6.0000    0    12.011   -6.095983    5.373319    0.018761
  17 C     6.0000    0    12.011    4.020836   -7.025504   -0.021315
  18 C     6.0000    0    12.011   -6.475819    0.649128    0.018466
  19 C     6.0000    0    12.011   -0.683435   -6.449655   -0.033738
  20 C     6.0000    0    12.011   -5.552153   -1.831369    0.004284
  21 C     6.0000    0    12.011   -2.928227   -5.047171   -0.023027
  22 C     6.0000    0    12.011   -7.063586   -4.076195   -0.005137
  23 C     6.0000    0    12.011   -5.430639   -6.077458   -0.023136
  24 H     1.0000    0     1.008    5.677511    7.307202   -1.915228
  25 H     1.0000    0     1.008    5.642753    7.719833    1.374085
  26 H     1.0000    0     1.008    8.272899    4.118034    1.948527
  27 H     1.0000    0     1.008    8.678005    4.007051   -1.340516
  28 H     1.0000    0     1.008    0.811688    8.464939   -0.056081
  29 H     1.0000    0     1.008    8.435723   -0.878351    0.081000
  30 H     1.0000    0     1.008   -4.137748    9.033761   -0.002174
  31 H     1.0000    0     1.008    7.999744   -5.841856    0.014337
  32 H     1.0000    0     1.008   -8.083187    5.830076    0.027408
  33 H     1.0000    0     1.008    4.069522   -9.063934   -0.034807
  34 H     1.0000    0     1.008   -8.511794    0.859178    0.025605
  35 H     1.0000    0     1.008   -0.885361   -8.486426   -0.046329
  36 H     1.0000    0     1.008   -9.101956   -4.122142    0.000392
  37 H     1.0000    0     1.008   -5.884618   -8.065109   -0.034653
  38 Mg   12.0000    0    24.305   -0.035057   -0.008338    0.001182

--------------------------------
INTERNAL COORDINATES (ANGSTROEM)
--------------------------------
 N      0   0   0     0.000000000000     0.00000000     0.00000000
 N      1   0   0     2.934625567277     0.00000000     0.00000000
 N      1   2   0     2.934502219461    88.22026361     0.00000000
 N      2   1   3     2.902087324163    91.15525092     0.00000000
 C      1   2   3     2.373783144973   117.10066924   178.00775617
 C      5   1   2     1.533901517256    71.15336793   175.74864028
 C      1   2   3     1.358430124362    80.55312792   178.98494255
 C      1   2   3     1.358392392334   168.73866091   354.91154939
 C      7   1   2     1.374520448020   125.94914713     0.55405638
 C      8   1   7     1.374536203187   125.94130379   181.39600351
 C      2   1   3     1.355940334932    80.79598169   180.38241652
 C      3   1   2     1.356059119169    80.79364978   180.38854817
 C      2   1   3     1.382013227933   172.19563123     2.11228019
 C      3   1   2     1.381931604181   172.19772945     2.18695519
 C     11   2   1     1.439853693466   109.92374504   180.32182958
 C     12   3   1     1.439815791155   109.92104971   180.32893451
 C     15  11   2     1.361202173100   106.87870823     0.00000000
 C     16  12   3     1.361222836597   106.87868208     0.00000000
 C     13   2  11     1.382364012124   125.27049495   179.64780351
 C     14   3  12     1.382391454942   125.27124228   179.65348396
 C      4   2   1     1.367346283750    81.83816516   179.76221527
 C      4   2   1     1.367434918034   171.29992091   358.49070100
 C     21   4   2     1.432083165488   109.73552966   179.80925939
 C     23  21   4     1.366865067502   106.83566180   359.97041685
 H      5   1   2     1.092645014934   119.63454595   281.07952700
 H      5   1   2     1.090606617469   127.60927975    70.55922818
 H      6   5   1     1.092598204440   112.13340192   244.83271966
 H      6   5   1     1.090562030620   113.16139441   123.71896896
 H      9   7   1     1.082914591440   116.47481442   179.76700295
 H     10   8   1     1.082918427081   116.45780824   179.78631778
 H     15  11   2     1.078863876263   125.09848097   180.00420488
 H     16  12   3     1.078854659017   125.09944828   180.00572083
 H     17  15  11     1.079013379288   127.96205293   180.02317060
 H     18  16  12     1.079022169130   127.96119491   180.02286464
 H     19  13   2     1.083116608289   116.47961750   180.08384249
 H     20  14   3     1.083117372845   116.45786284   180.08863448
 H     23  21   4     1.078936570721   125.24249032   179.99600471
 H     24  23  21     1.078923308856   127.92239530   180.01162826
 Mg     3   1   2     2.042506205857    46.01341093     0.00000000

---------------------------
INTERNAL COORDINATES (A.U.)
---------------------------
 N      0   0   0     0.000000000000     0.00000000     0.00000000
 N      1   0   0     5.545638627757     0.00000000     0.00000000
 N      1   2   0     5.545405534166    88.22026361     0.00000000
 N      2   1   3     5.484150259393    91.15525092     0.00000000
 C      1   2   3     4.485800045317   117.10066924   178.00775617
 C      5   1   2     2.898653784021    71.15336793   175.74864028
 C      1   2   3     2.567060907114    80.55312792   178.98494255
 C      1   2   3     2.566989603913   168.73866091   354.91154939
 C      7   1   2     2.597467212233   125.94914713     0.55405638
 C      8   1   7     2.597496985183   125.94130379   181.39600351
 C      2   1   3     2.562355886959    80.79598169   180.38241652
 C      3   1   2     2.562580356635    80.79364978   180.38854817
 C      2   1   3     2.611626514250   172.19563123     2.11228019
 C      3   1   2     2.611472267713   172.19772945     2.18695519
 C     11   2   1     2.720929153566   109.92374504   180.32182958
 C     12   3   1     2.720857528579   109.92104971   180.32893451
 C     15  11   2     2.572299320058   106.87870823     0.00000000
 C     16  12   3     2.572338368408   106.87868208     0.00000000
 C     13   2  11     2.612289400304   125.27049495   179.64780351
 C     14   3  12     2.612341259714   125.27124228   179.65348396
 C      4   2   1     2.583910006522    81.83816516   179.76221527
 C      4   2   1     2.584077501046   171.29992091   358.49070100
 C     21   4   2     2.706244983771   109.73552966   179.80925939
 C     23  21   4     2.583000639603   106.83566180   359.97041685
 H      5   1   2     2.064799839820   119.63454595   281.07952700
 H      5   1   2     2.060947826859   127.60927975    70.55922818
 H      6   5   1     2.064711380806   112.13340192   244.83271966
 H      6   5   1     2.060863569926   113.16139441   123.71896896
 H      9   7   1     2.046412004250   116.47481442   179.76700295
 H     10   8   1     2.046419252561   116.45780824   179.78631778
 H     15  11   2     2.038757261919   125.09848097   180.00420488
 H     16  12   3     2.038739843848   125.09944828   180.00572083
 H     17  15  11     2.039039781691   127.96205293   180.02317060
 H     18  16  12     2.039056392086   127.96119491   180.02286464
 H     19  13   2     2.046793760768   116.47961750   180.08384249
 H     20  14   3     2.046795205569   116.45786284   180.08863448
 H     23  21   4     2.038894634535   125.24249032   179.99600471
 H     24  23  21     2.038869573241   127.92239530   180.01162826
 Mg     3   1   2     3.859777355904    46.01341093     0.00000000

---------------------
BASIS SET INFORMATION
---------------------
There are 4 groups of distinct atoms

 Group   1 Type N   : 11s6p2d1f contracted to 5s3p2d1f pattern {62111/411/11/1}
 Group   2 Type C   : 11s6p2d1f contracted to 5s3p2d1f pattern {62111/411/11/1}
 Group   3 Type H   : 5s1p contracted to 3s1p pattern {311/1}
 Group   4 Type Mg  : 14s8p3d contracted to 5s4p3d pattern {73211/5111/111}

Atom   0N    basis set group =>   1
Atom   1N    basis set group =>   1
Atom   2N    basis set group =>   1
Atom   3N    basis set group =>   1
Atom   4C    basis set group =>   2
Atom   5C    basis set group =>   2
Atom   6C    basis set group =>   2
Atom   7C    basis set group =>   2
Atom   8C    basis set group =>   2
Atom   9C    basis set group =>   2
Atom  10C    basis set group =>   2
Atom  11C    basis set group =>   2
Atom  12C    basis set group =>   2
Atom  13C    basis set group =>   2
Atom  14C    basis set group =>   2
Atom  15C    basis set group =>   2
Atom  16C    basis set group =>   2
Atom  17C    basis set group =>   2
Atom  18C    basis set group =>   2
Atom  19C    basis set group =>   2
Atom  20C    basis set group =>   2
Atom  21C    basis set group =>   2
Atom  22C    basis set group =>   2
Atom  23C    basis set group =>   2
Atom  24H    basis set group =>   3
Atom  25H    basis set group =>   3
Atom  26H    basis set group =>   3
Atom  27H    basis set group =>   3
Atom  28H    basis set group =>   3
Atom  29H    basis set group =>   3
Atom  30H    basis set group =>   3
Atom  31H    basis set group =>   3
Atom  32H    basis set group =>   3
Atom  33H    basis set group =>   3
Atom  34H    basis set group =>   3
Atom  35H    basis set group =>   3
Atom  36H    basis set group =>   3
Atom  37H    basis set group =>   3
Atom  38Mg   basis set group =>   4
---------------------------------
AUXILIARY/J BASIS SET INFORMATION
---------------------------------
There are 4 groups of distinct atoms

 Group   1 Type N   : 12s5p4d2f1g contracted to 6s4p3d1f1g pattern {711111/2111/211/2/1}
 Group   2 Type C   : 12s5p4d2f1g contracted to 6s4p3d1f1g pattern {711111/2111/211/2/1}
 Group   3 Type H   : 5s2p1d contracted to 3s1p1d pattern {311/2/1}
 Group   4 Type Mg  : 14s5p5d2f1g contracted to 8s4p4d1f1g pattern {71111111/2111/2111/2/1}

Atom   0N    basis set group =>   1
Atom   1N    basis set group =>   1
Atom   2N    basis set group =>   1
Atom   3N    basis set group =>   1
Atom   4C    basis set group =>   2
Atom   5C    basis set group =>   2
Atom   6C    basis set group =>   2
Atom   7C    basis set group =>   2
Atom   8C    basis set group =>   2
Atom   9C    basis set group =>   2
Atom  10C    basis set group =>   2
Atom  11C    basis set group =>   2
Atom  12C    basis set group =>   2
Atom  13C    basis set group =>   2
Atom  14C    basis set group =>   2
Atom  15C    basis set group =>   2
Atom  16C    basis set group =>   2
Atom  17C    basis set group =>   2
Atom  18C    basis set group =>   2
Atom  19C    basis set group =>   2
Atom  20C    basis set group =>   2
Atom  21C    basis set group =>   2
Atom  22C    basis set group =>   2
Atom  23C    basis set group =>   2
Atom  24H    basis set group =>   3
Atom  25H    basis set group =>   3
Atom  26H    basis set group =>   3
Atom  27H    basis set group =>   3
Atom  28H    basis set group =>   3
Atom  29H    basis set group =>   3
Atom  30H    basis set group =>   3
Atom  31H    basis set group =>   3
Atom  32H    basis set group =>   3
Atom  33H    basis set group =>   3
Atom  34H    basis set group =>   3
Atom  35H    basis set group =>   3
Atom  36H    basis set group =>   3
Atom  37H    basis set group =>   3
Atom  38Mg   basis set group =>   4


           ************************************************************
           *        Program running with 4 parallel MPI-processes     *
           *              working on a common directory               *
           ************************************************************
------------------------------------------------------------------------------
                             ORCA STARTUP CALCULATIONS
                           -- RI-GTO INTEGRALS CHOSEN --
------------------------------------------------------------------------------
------------------------------------------------------------------------------
                   ___                                                        
                  /   \      - P O W E R E D   B Y -                         
                 /     \                                                     
                 |  |  |   _    _      __       _____    __    __             
                 |  |  |  | |  | |    /  \     |  _  \  |  |  /  |          
                  \  \/   | |  | |   /    \    | | | |  |  | /  /          
                 / \  \   | |__| |  /  /\  \   | |_| |  |  |/  /          
                |  |  |   |  __  | /  /__\  \  |    /   |      \           
                |  |  |   | |  | | |   __   |  |    \   |  |\   \          
                \     /   | |  | | |  |  |  |  | |\  \  |  | \   \       
                 \___/    |_|  |_| |__|  |__|  |_| \__\ |__|  \__/        
                                                                              
                      - O R C A' S   B I G   F R I E N D -                    
                                      &                                       
                       - I N T E G R A L  F E E D E R -                       
                                                                              
 v1 FN, 2020, v2 2021, v3 2022-2024                                           
------------------------------------------------------------------------------


----------------------
SHARK INTEGRAL PACKAGE
----------------------

Number of atoms                             ...     39
Number of basis functions                   ...    860
Number of shells                            ...    332
Maximum angular momentum                    ...      3
Integral batch strategy                     ... SHARK/LIBINT Hybrid
RI-J (if used) integral strategy            ... SPLIT-RIJ (Revised 2003 algorithm where possible)
Printlevel                                  ...      1
Contraction scheme used                     ... SEGMENTED contraction
Prescreening option                         ... SCHWARTZ
   Thresh                                   ... 2.500e-11
   Tcut                                     ... 2.500e-12
   Tpresel                                  ... 2.500e-12 
Coulomb Range Separation                    ... NOT USED
Exchange Range Separation                   ... Long Range
   Mu parameter                             ... 2.500e-01
   Scaling (regular/separated)              ... 1.957e-01 8.043e-01
Robust (split-)RI terms used:
  metric    (central integrals)             ... YES
  density   (r.h.s.  integrals)             ... YES
  potential (l.h.s.  integrals)             ... YES
Multipole approximations                    ... NOT USED
Finite Nucleus Model                        ... NOT USED
CABS basis                                  ... NOT available
Auxiliary Coulomb fitting basis             ... AVAILABLE
   # of basis functions in Aux-J            ...   1386
   # of shells in Aux-J                     ...    448
   Maximum angular momentum in Aux-J        ...      4
Auxiliary J/K fitting basis                 ... NOT available
Auxiliary Correlation fitting basis         ... NOT available
Auxiliary 'external' fitting basis          ... NOT available

Checking pre-screening integrals            ... done (  0.0 sec) Dimension = 332
   => SHARK Basis and OBASIS are compatible. Storing Pre-screening
Shell pair information
Shell pair cut-off parameter TPreSel        ...   2.5e-12
Total number of shell pairs                 ...     55278
Shell pairs after pre-screening             ...     38985
Total number of primitive shell pairs       ...    174360
Primitive shell pairs kept                  ...     80636
          la=0 lb=0:   9326 shell pairs
          la=1 lb=0:  11131 shell pairs
          la=1 lb=1:   3288 shell pairs
          la=2 lb=0:   5767 shell pairs
          la=2 lb=1:   3529 shell pairs
          la=2 lb=2:    978 shell pairs
          la=3 lb=0:   2472 shell pairs
          la=3 lb=1:   1540 shell pairs
          la=3 lb=2:    784 shell pairs
          la=3 lb=3:    170 shell pairs

Checking whether 4 symmetric matrices of dimension 860 fit in memory
:Max Core in MB      =   3000.00
 MB in use           =     50.97
 MB left             =   2949.03
 MB needed           =     11.30
 Data fit in memory  = YES
Calculating RI/J V-Matrix + Cholesky decomp.... done (  0.9 sec)
Calculating Nuclear repulsion               ... done (  0.0 sec) ENN=   2155.857692955848 Eh

Diagonalization of the overlap matrix:
Smallest eigenvalue                        ... 1.000e-05
Time for diagonalization                   ...    0.668 sec
Threshold for overlap eigenvalues          ... 1.000e-07
Number of eigenvalues below threshold      ... 0
Time for construction of square roots      ...    0.416 sec
Total time needed                          ...    1.118 sec

-------------------
DFT GRID GENERATION
-------------------

General Integration Accuracy     IntAcc      ... 4.959
Radial Grid Type                 RadialGrid  ... OptM3 with GC (2021)
Angular Grid (max. ang.)         AngularGrid ... 6 (Lebedev-590)
Angular grid pruning method      GridPruning ... 4 (adaptive)
Weight generation scheme         WeightScheme... mBecke (2022)
Basis function cutoff            BFCut       ... 1.0000e-11
Integration weight cutoff        WCut        ... 1.0000e-14
Partially contracted basis set               ... off
Rotationally invariant grid construction     ... off
Angular grids for H and He will be reduced by one unit

Total number of grid points                  ...   473102
Total number of batches                      ...     7410
Average number of points per batch           ...       63
Average number of grid points per atom       ...    12131

--------------------
COSX GRID GENERATION
--------------------

GRIDX 1
-------
General Integration Accuracy     IntAcc      ... 4.020
Radial Grid Type                 RadialGrid  ... OptM3 with GC (2021)
Angular Grid (max. ang.)         AngularGrid ... 2 (Lebedev-110)
Angular grid pruning method      GridPruning ... 4 (adaptive)
Weight generation scheme         WeightScheme... mBecke (2022)
Basis function cutoff            BFCut       ... 1.0000e-11
Integration weight cutoff        WCut        ... 1.0000e-14
Partially contracted basis set               ... on
Rotationally invariant grid construction     ... off
Angular grids for H and He will be reduced by one unit

Total number of grid points                  ...    54054
Total number of batches                      ...      445
Average number of points per batch           ...      121
Average number of grid points per atom       ...     1386
UseSFitting                                  ... on

GRIDX 2
-------
General Integration Accuracy     IntAcc      ... 4.338
Radial Grid Type                 RadialGrid  ... OptM3 with GC (2021)
Angular Grid (max. ang.)         AngularGrid ... 3 (Lebedev-194)
Angular grid pruning method      GridPruning ... 4 (adaptive)
Weight generation scheme         WeightScheme... mBecke (2022)
Basis function cutoff            BFCut       ... 1.0000e-11
Integration weight cutoff        WCut        ... 1.0000e-14
Partially contracted basis set               ... on
Rotationally invariant grid construction     ... off
Angular grids for H and He will be reduced by one unit

Total number of grid points                  ...   119051
Total number of batches                      ...      950
Average number of points per batch           ...      125
Average number of grid points per atom       ...     3053
UseSFitting                                  ... on

GRIDX 3
-------
General Integration Accuracy     IntAcc      ... 4.871
Radial Grid Type                 RadialGrid  ... OptM3 with GC (2021)
Angular Grid (max. ang.)         AngularGrid ... 4 (Lebedev-302)
Angular grid pruning method      GridPruning ... 4 (adaptive)
Weight generation scheme         WeightScheme... mBecke (2022)
Basis function cutoff            BFCut       ... 1.0000e-11
Integration weight cutoff        WCut        ... 1.0000e-14
Partially contracted basis set               ... on
Rotationally invariant grid construction     ... off
Angular grids for H and He will be reduced by one unit

Total number of grid points                  ...   219016
Total number of batches                      ...     1726
Average number of points per batch           ...      126
Average number of grid points per atom       ...     5616
UseSFitting                                  ... on
Grids setup in  32.7 sec
Initializing property integral containers    ... done (  0.0 sec)

SHARK setup successfully completed in  36.7 seconds

Maximum memory used throughout the entire STARTUP-calculation: 154.4 MB


           ************************************************************
           *        Program running with 4 parallel MPI-processes     *
           *              working on a common directory               *
           ************************************************************
-------------------------------------------------------------------------------
                                 ORCA GUESS
                   Start orbitals & Density for SCF / CASSCF
-------------------------------------------------------------------------------

------------
SCF SETTINGS
------------
Hamiltonian:
 Density Functional     Method          .... DFT(GTOs)
 Exchange Functional    Exchange        .... WB97X-D3
 Correlation Functional Correlation     .... WB97X-D3
 Gradients option       PostSCFGGA      .... off
 Hybrid DFT is turned on
   Fraction HF Exchange ScalHFX         ....  0.195728
   Scaling of DF-GGA-X  ScalDFX         ....  0.000000
   Scaling of DF-GGA-C  ScalDFC         ....  1.000000
   Scaling of DF-LDA-C  ScalLDAC        ....  1.000000
   Perturbative correction              ....  0.000000
 Long-range corrected/Screened/Range-Separated Hybrid DFT is turned on
   Amount of maximum screened exact exchange              ....  0.804272
   Range separation parameter mu (erf(mu*r12)/r12)        ....  0.250000
 RI-approximation to the Coulomb term is turned on
   Number of AuxJ basis functions       .... 1386
   RIJ-COSX (HFX calculated with COS-X)).... on


General Settings:
 Integral files         IntName         .... tddft
 Hartree-Fock type      HFTyp           .... RHF
 Total Charge           Charge          ....    0
 Multiplicity           Mult            ....    1
 Number of Electrons    NEL             ....  174
 Basis Dimension        Dim             ....  860
 Nuclear Repulsion      ENuc            ....   2155.8576929558 Eh

Convergence Acceleration:
 AO-DIIS                CNVDIIS         .... on
   Start iteration      DIISMaxIt       ....    12
   Startup error        DIISStart       ....  0.200000
   # of expansion vecs  DIISMaxEq       ....     5
   Bias factor          DIISBfac        ....   1.050
   Max. coefficient     DIISMaxC        ....  10.000
 MO-DIIS                CNVKDIIS        .... off
 Trust-Rad. Augm. Hess. CNVTRAH         .... auto
   Auto Start mean grad. ratio tolernc. ....  1.125000
   Auto Start start iteration           ....    50
   Auto Start num. interpolation iter.  ....    10
   Max. Number of Micro iterations      ....    24
   Max. Number of Macro iterations      .... Maxiter - #DIIS iter
   Number of Davidson start vectors     ....     2
   Converg. threshold    (grad. norm)   ....   1.000e-05
   Grad. Scal. Fac. for Micro threshold ....   0.100
   Minimum threshold for Micro iter.    ....   1.000e-02
   NR start threshold (gradient norm)   ....   1.000e-04
   Initial trust radius                 ....   0.400
   Minimum AH scaling param. (alpha)    ....   1.000
   Maximum AH scaling param. (alpha)    .... 1000.000
   Quad. conv. algorithm                .... NR
   White noise on init. David. guess    .... on
   Maximum white noise                  ....   0.010
   Pseudo random numbers                .... off
   Inactive MOs                         .... canonical
   Orbital update algorithm             .... Taylor
   Preconditioner                       .... Diag
   Full preconditioner red. dimension   ....   250
 SOSCF                 CNVSOSCF           .... on
   Start iteration     SOSCFMaxIt         ....   150
   Startup grad/error  SOSCFStart         ....  0.003300
   Hessian update      SOSCFHessUp        .... L-BFGS
   Autom. constraints  SOSCFAutoConstrain .... off
 Level Shifting         CNVShift        .... on
   Level shift para.    LevelShift      ....    0.2500
   Turn off err/grad.   ShiftErr        ....    0.0010
 Zerner damping         CNVZerner       .... off
 Static damping         CNVDamp         .... on
   Fraction old density DampFac         ....    0.7000
   Max. Damping (<1)    DampMax         ....    0.9800
   Min. Damping (>=0)   DampMin         ....    0.0000
   Turn off err/grad.   DampErr         ....    0.1000

SCF Procedure:
 Maximum # iterations   MaxIter         ....   125
 SCF integral mode      SCFMode         .... Direct
   Integral package                     .... SHARK and LIBINT hybrid scheme
 Reset frequency        DirectResetFreq ....    20
 Integral Threshold     Thresh          ....  2.500e-11 Eh
 Primitive CutOff       TCut            ....  2.500e-12 Eh

Convergence Tolerance:
 Convergence Check Mode ConvCheckMode   .... Total+1el-Energy
 Convergence forced     ConvForced      .... 1
 Energy Change          TolE            ....  1.000e-08 Eh
 1-El. energy change                    ....  1.000e-05 Eh
 Orbital Gradient       TolG            ....  1.000e-05
 Orbital Rotation angle TolX            ....  1.000e-05
 DIIS Error             TolErr          ....  5.000e-07

------------------------------
INITIAL GUESS: MODEL POTENTIAL
------------------------------
Loading Hartree-Fock densities                     ... done
Calculating cut-offs                               ... done
Initializing the effective Hamiltonian             ... done
Setting up the integral package (SHARK)            ... done
Starting the Coulomb interaction                   ... done (   2.2 sec)
Making the grid                                    ... done (   0.8 sec)
Mapping shells                                     ... done
Starting the XC term evaluation                    ... done (   1.3 sec)
  promolecular density results
     # of electrons  =    173.997675708
     EX              =   -148.716356810
     EC              =     -5.920044363
     EX+EC           =   -154.636401173
Transforming the Hamiltonian                       ... done (   0.1 sec)
Diagonalizing the Hamiltonian                      ... done (   0.3 sec)
Back transforming the eigenvectors                 ... done (   0.1 sec)
Now organizing SCF variables                       ... done
                      ------------------
                      INITIAL GUESS DONE (   4.9 sec)
                      ------------------
             **** ENERGY FILE WAS UPDATED (tddft.en.tmp) ****
Finished Guess after   6.9 sec
Maximum memory used throughout the entire GUESS-calculation: 86.1 MB


           ************************************************************
           *        Program running with 4 parallel MPI-processes     *
           *              working on a common directory               *
           ************************************************************

-------------------------------------------------------------------------------------------
                                      ORCA LEAN-SCF
                              memory conserving SCF solver
-------------------------------------------------------------------------------------------

--------------------
CPCM SOLVATION MODEL
--------------------
CPCM parameters:
  Epsilon                                         ...       8.9990
  Refrac                                          ...       1.4242
  Rsolv                                           ...       1.3000
  Surface type                                    ... GAUSSIAN VDW
  Discretization scheme                           ... Constant charge density
    Threshold for H atoms                         ...       5.0000 (charges/Ang^2)
    Threshold for non-H atoms                     ...       5.0000 (charges/Ang^2)
  Epsilon function type                           ...         CPCM
Solvent:                                          ... DICHLOROMETHANE
Radii:
  Scheme                                          ... Element-dependent radii
  Radius for N  used is    3.5149 Bohr (=   1.8600 Ang.)
  Radius for C  used is    3.8550 Bohr (=   2.0400 Ang.)
  Radius for H  used is    2.4944 Bohr (=   1.3200 Ang.)
  Radius for Mg used is    3.9231 Bohr (=   2.0760 Ang.)
Calculating surface                               ...        done! (  0.0s)
Cavity surface points                             ...         3503
Cavity Volume                                     ...    2512.0151
Cavity Surface-area                               ...    1198.2147
Calculating surface distance matrix               ...        done! (  2.0s)
Performing Cholesky decomposition & store         ...        done! (  5.2s)
Overall time for CPCM initialization              ...                 7.2s

----------------------------------------D-I-I-S--------------------------------------------
Iteration    Energy (Eh)           Delta-E    RMSDP     MaxDP     DIISErr   Damp  Time(sec)
-------------------------------------------------------------------------------------------
               ***  Starting incremental Fock matrix formation  ***
    1    -1189.3079604906106397     0.00e+00  1.62e-03  3.57e-02  2.21e-01  0.700 220.2
    2    -1189.5142928166660568    -2.06e-01  1.33e-03  2.52e-02  1.22e-01  0.700 112.6
                               ***Turning on AO-DIIS***
    3    -1189.6246019817563138    -1.10e-01  8.53e-04  2.05e-02  5.63e-02  0.700 103.7
    4    -1189.6912813426779394    -6.67e-02  1.90e-03  4.40e-02  3.95e-02  0.000  89.0
    5    -1189.8347470970584254    -1.43e-01  2.17e-04  6.46e-03  4.92e-03  0.000  94.3
                              *** Initializing SOSCF ***
---------------------------------------S-O-S-C-F--------------------------------------
Iteration    Energy (Eh)           Delta-E    RMSDP     MaxDP     MaxGrad    Time(sec)
--------------------------------------------------------------------------------------
    6    -1189.8352895477441962    -5.42e-04  1.01e-04  3.88e-03  2.60e-03    99.6
               *** Restarting incremental Fock matrix formation ***
    7    -1189.8354810527985137    -1.92e-04  9.39e-05  2.66e-03  2.47e-03   224.5
    8    -1189.8356589733866713    -1.78e-04  1.69e-04  4.80e-03  1.51e-03   174.3
    9    -1189.8357983963510378    -1.39e-04  4.58e-05  1.13e-03  6.33e-04   171.7
   10    -1189.8358122070958416    -1.38e-05  1.81e-05  6.00e-04  3.51e-04   177.8
   11    -1189.8358189299783589    -6.72e-06  9.08e-06  2.29e-04  7.23e-05   138.8
   12    -1189.8358195440450800    -6.14e-07  5.99e-06  1.35e-04  5.57e-05   135.0
   13    -1189.8358197598527113    -2.16e-07  5.45e-06  1.71e-04  8.43e-06   126.5
   14    -1189.8358197399470555     1.99e-08  4.37e-06  1.35e-04  5.20e-06   115.8
   15    -1189.8358197204852331     1.95e-08  6.29e-06  2.37e-04  2.39e-06   112.6
                  *** Gradient check signals convergence ***

               *****************************************************
               *                     SUCCESS                       *
               *           SCF CONVERGED AFTER  15 CYCLES          *
               *****************************************************

Recomputing exchange energy using gridx3       ... done (  348.413 sec)
Old exchange energy                            :    -48.282693553 Eh
New exchange energy                            :    -48.282696628 Eh
Exchange energy change after final integration :     -0.000003076 Eh
Total energy after final integration           :  -1189.835822803 Eh
             **** ENERGY FILE WAS UPDATED (tddft.en.tmp) ****

----------------
TOTAL SCF ENERGY
----------------

Total Energy       :      -1189.83582280264795 Eh          -32377.07876 eV

Components:
Nuclear Repulsion  :       2155.85769295584805 Eh           58663.87024 eV
Electronic Energy  :      -3345.67745068088425 Eh          -91040.51184 eV
One Electron Energy:      -5909.20510648443815 Eh         -160797.64574 eV
Two Electron Energy:       2563.52765580355390 Eh           69757.13390 eV
CPCM Dielectric    :         -0.01606200210700 Eh              -0.43707 eV

Virial components:
Potential Energy   :      -2374.47316334909465 Eh          -64612.69962 eV
Kinetic Energy     :       1184.63734054644647 Eh           32235.62086 eV
Virial Ratio       :          2.00438824784453

DFT components:
N(Alpha)           :       86.999986693455 electrons
N(Beta)            :       86.999986693455 electrons
N(Total)           :      173.999973386911 electrons
E(XC)              :     -109.820025181984 Eh       

CPCM Solvation Model Properties:
Surface-charge          :         -0.03671272738522
Corrected charge        :          0.00000000000000
Outlying charge corr.   :          0.00006401716500 Eh               0.00174 eV
Free-energy (cav+disp)  :  This term is not implemented in the current solvation scheme

---------------
SCF CONVERGENCE
---------------

  Last Energy change         ...   -1.9462e-08  Tolerance :   1.0000e-08
  Last MAX-Density change    ...    2.3664e-04  Tolerance :   1.0000e-07
  Last RMS-Density change    ...    6.2936e-06  Tolerance :   5.0000e-09
  Last DIIS Error            ...    2.5991e-03  Tolerance :   5.0000e-07
  Last Orbital Gradient      ...    2.3931e-06  Tolerance :   1.0000e-05
  Last Orbital Rotation      ...    1.0472e-05  Tolerance :   1.0000e-05


----------------
ORBITAL ENERGIES
----------------

  NO   OCC          E(Eh)            E(eV) 
   0   2.0000     -46.854493     -1274.9756 
   1   2.0000     -14.426011      -392.5517 
   2   2.0000     -14.410804      -392.1379 
   3   2.0000     -14.408524      -392.0759 
   4   2.0000     -14.408515      -392.0756 
   5   2.0000     -10.326755      -281.0053 
   6   2.0000     -10.326723      -281.0044 
   7   2.0000     -10.319328      -280.8032 
   8   2.0000     -10.319326      -280.8031 
   9   2.0000     -10.307097      -280.4704 
  10   2.0000     -10.307084      -280.4700 
  11   2.0000     -10.304303      -280.3943 
  12   2.0000     -10.304263      -280.3933 
  13   2.0000     -10.293048      -280.0881 
  14   2.0000     -10.293037      -280.0878 
  15   2.0000     -10.282016      -279.7879 
  16   2.0000     -10.282015      -279.7879 
  17   2.0000     -10.280826      -279.7555 
  18   2.0000     -10.280633      -279.7502 
  19   2.0000     -10.274563      -279.5851 
  20   2.0000     -10.274549      -279.5847 
  21   2.0000     -10.271817      -279.5103 
  22   2.0000     -10.271125      -279.4915 
  23   2.0000     -10.267372      -279.3894 
  24   2.0000     -10.267361      -279.3891 
  25   2.0000      -3.164287       -86.1046 
  26   2.0000      -1.902340       -51.7653 
  27   2.0000      -1.896790       -51.6143 
  28   2.0000      -1.896439       -51.6047 
  29   2.0000      -1.082257       -29.4497 
  30   2.0000      -1.073221       -29.2038 
  31   2.0000      -1.072835       -29.1933 
  32   2.0000      -1.062965       -28.9248 
  33   2.0000      -0.933204       -25.3938 
  34   2.0000      -0.907034       -24.6817 
  35   2.0000      -0.904188       -24.6042 
  36   2.0000      -0.888354       -24.1733 
  37   2.0000      -0.881740       -23.9934 
  38   2.0000      -0.880247       -23.9527 
  39   2.0000      -0.873585       -23.7715 
  40   2.0000      -0.851294       -23.1649 
  41   2.0000      -0.831796       -22.6343 
  42   2.0000      -0.769334       -20.9346 
  43   2.0000      -0.764417       -20.8008 
  44   2.0000      -0.720026       -19.5929 
  45   2.0000      -0.687661       -18.7122 
  46   2.0000      -0.680408       -18.5148 
  47   2.0000      -0.676878       -18.4188 
  48   2.0000      -0.674648       -18.3581 
  49   2.0000      -0.656638       -17.8680 
  50   2.0000      -0.642056       -17.4712 
  51   2.0000      -0.626821       -17.0567 
  52   2.0000      -0.618613       -16.8333 
  53   2.0000      -0.605709       -16.4822 
  54   2.0000      -0.601357       -16.3638 
  55   2.0000      -0.592205       -16.1147 
  56   2.0000      -0.579336       -15.7645 
  57   2.0000      -0.540830       -14.7167 
  58   2.0000      -0.534529       -14.5453 
  59   2.0000      -0.532598       -14.4927 
  60   2.0000      -0.522569       -14.2198 
  61   2.0000      -0.518587       -14.1115 
  62   2.0000      -0.513661       -13.9774 
  63   2.0000      -0.506073       -13.7709 
  64   2.0000      -0.504186       -13.7196 
  65   2.0000      -0.503413       -13.6986 
  66   2.0000      -0.482793       -13.1375 
  67   2.0000      -0.480069       -13.0633 
  68   2.0000      -0.474023       -12.8988 
  69   2.0000      -0.468960       -12.7610 
  70   2.0000      -0.465148       -12.6573 
  71   2.0000      -0.462462       -12.5842 
  72   2.0000      -0.460201       -12.5227 
  73   2.0000      -0.459747       -12.5103 
  74   2.0000      -0.453089       -12.3292 
  75   2.0000      -0.450109       -12.2481 
  76   2.0000      -0.415967       -11.3190 
  77   2.0000      -0.409220       -11.1355 
  78   2.0000      -0.405696       -11.0395 
  79   2.0000      -0.377450       -10.2709 
  80   2.0000      -0.369191       -10.0462 
  81   2.0000      -0.359327        -9.7778 
  82   2.0000      -0.349228        -9.5030 
  83   2.0000      -0.338423        -9.2090 
  84   2.0000      -0.335246        -9.1225 
  85   2.0000      -0.264999        -7.2110 
  86   2.0000      -0.245318        -6.6754 
  87   0.0000      -0.040080        -1.0906 
  88   0.0000      -0.012990        -0.3535 
  89   0.0000       0.070117         1.9080 
  90   0.0000       0.073900         2.0109 
  91   0.0000       0.099148         2.6980 
  92   0.0000       0.110422         3.0047 
  93   0.0000       0.123656         3.3648 
  94   0.0000       0.129265         3.5175 
  95   0.0000       0.137777         3.7491 
  96   0.0000       0.144972         3.9449 
  97   0.0000       0.146442         3.9849 
*Only the first 10 virtual orbitals were printed.

                    ********************************
                    * MULLIKEN POPULATION ANALYSIS *
                    ********************************

-----------------------
MULLIKEN ATOMIC CHARGES
-----------------------
   0 N :   -0.417636
   1 N :   -0.422737
   2 N :   -0.421829
   3 N :   -0.408621
   4 C :   -0.156868
   5 C :   -0.156610
   6 C :    0.211249
   7 C :    0.209429
   8 C :   -0.462693
   9 C :   -0.460379
  10 C :    0.323232
  11 C :    0.320987
  12 C :    0.248711
  13 C :    0.249186
  14 C :   -0.250649
  15 C :   -0.250484
  16 C :   -0.225356
  17 C :   -0.225545
  18 C :   -0.331482
  19 C :   -0.331804
  20 C :    0.253253
  21 C :    0.253661
  22 C :   -0.250060
  23 C :   -0.249853
  24 H :    0.130659
  25 H :    0.139222
  26 H :    0.130667
  27 H :    0.139256
  28 H :    0.155224
  29 H :    0.155278
  30 H :    0.159597
  31 H :    0.159558
  32 H :    0.162804
  33 H :    0.162829
  34 H :    0.167351
  35 H :    0.167336
  36 H :    0.156651
  37 H :    0.156620
  38 Mg:    0.809846
Sum of atomic charges:    0.0000000

--------------------------------
MULLIKEN REDUCED ORBITAL CHARGES
--------------------------------
  0 N s       :     3.662741  s :     3.662741
      pz      :     1.325484  p :     3.690592
      px      :     1.211379
      py      :     1.153729
      dz2     :     0.004599  d :     0.060724
      dxz     :     0.008694
      dyz     :     0.010112
      dx2y2   :     0.020097
      dxy     :     0.017221
      f0      :     0.000677  f :     0.003580
      f+1     :     0.000325
      f-1     :     0.000353
      f+2     :     0.000451
      f-2     :     0.000112
      f+3     :     0.000958
      f-3     :     0.000704

  1 N s       :     3.658891  s :     3.658891
      pz      :     1.386947  p :     3.700673
      px      :     1.135932
      py      :     1.177794
      dz2     :     0.004654  d :     0.059546
      dxz     :     0.010013
      dyz     :     0.008993
      dx2y2   :     0.019089
      dxy     :     0.016797
      f0      :     0.000683  f :     0.003627
      f+1     :     0.000391
      f-1     :     0.000354
      f+2     :     0.000581
      f-2     :     0.000089
      f+3     :     0.000684
      f-3     :     0.000845

  2 N s       :     3.658525  s :     3.658525
      pz      :     1.386948  p :     3.700130
      px      :     1.130785
      py      :     1.182397
      dz2     :     0.004655  d :     0.059546
      dxz     :     0.010601
      dyz     :     0.008405
      dx2y2   :     0.018748
      dxy     :     0.017136
      f0      :     0.000683  f :     0.003628
      f+1     :     0.000375
      f-1     :     0.000371
      f+2     :     0.000563
      f-2     :     0.000107
      f+3     :     0.000631
      f-3     :     0.000898

  3 N s       :     3.659522  s :     3.659522
      pz      :     1.351169  p :     3.683632
      px      :     1.189943
      py      :     1.142520
      dz2     :     0.004623  d :     0.061783
      dxz     :     0.009600
      dyz     :     0.011630
      dx2y2   :     0.018945
      dxy     :     0.016985
      f0      :     0.000677  f :     0.003684
      f+1     :     0.000352
      f-1     :     0.000371
      f+2     :     0.000663
      f-2     :     0.000096
      f+3     :     0.000868
      f-3     :     0.000657

  4 C s       :     3.141342  s :     3.141342
      pz      :     1.063192  p :     2.931453
      px      :     0.877562
      py      :     0.990699
      dz2     :     0.004895  d :     0.078587
      dxz     :     0.015941
      dyz     :     0.016150
      dx2y2   :     0.024292
      dxy     :     0.017308
      f0      :     0.000615  f :     0.005486
      f+1     :     0.000165
      f-1     :     0.001033
      f+2     :     0.000304
      f-2     :     0.000749
      f+3     :     0.001306
      f-3     :     0.001315

  5 C s       :     3.141303  s :     3.141303
      pz      :     1.063216  p :     2.931271
      px      :     0.982327
      py      :     0.885728
      dz2     :     0.004914  d :     0.078551
      dxz     :     0.015492
      dyz     :     0.016560
      dx2y2   :     0.023891
      dxy     :     0.017695
      f0      :     0.000617  f :     0.005485
      f+1     :     0.001055
      f-1     :     0.000140
      f+2     :     0.000251
      f-2     :     0.000802
      f+3     :     0.001052
      f-3     :     0.001567

  6 C s       :     3.128647  s :     3.128647
      pz      :     0.846060  p :     2.485437
      px      :     0.899178
      py      :     0.740199
      dz2     :     0.001418  d :     0.160562
      dxz     :     0.028711
      dyz     :     0.039404
      dx2y2   :     0.043064
      dxy     :     0.047966
      f0      :     0.002084  f :     0.014106
      f+1     :     0.000776
      f-1     :     0.001041
      f+2     :     0.001777
      f-2     :     0.001215
      f+3     :     0.005187
      f-3     :     0.002026

  7 C s       :     3.129479  s :     3.129479
      pz      :     0.846122  p :     2.486456
      px      :     0.759986
      py      :     0.880348
      dz2     :     0.001444  d :     0.160529
      dxz     :     0.034542
      dyz     :     0.033550
      dx2y2   :     0.043132
      dxy     :     0.047861
      f0      :     0.002083  f :     0.014106
      f+1     :     0.001044
      f-1     :     0.000776
      f+2     :     0.001553
      f-2     :     0.001438
      f+3     :     0.003349
      f-3     :     0.003863

  8 C s       :     3.330259  s :     3.330259
      pz      :     1.127377  p :     3.057893
      px      :     0.910264
      py      :     1.020252
      dz2     :     0.002828  d :     0.067213
      dxz     :     0.021269
      dyz     :     0.003378
      dx2y2   :     0.030666
      dxy     :     0.009072
      f0      :     0.001546  f :     0.007328
      f+1     :     0.000726
      f-1     :     0.000688
      f+2     :     0.000417
      f-2     :     0.000724
      f+3     :     0.002153
      f-3     :     0.001073

  9 C s       :     3.328942  s :     3.328942
      pz      :     1.127293  p :     3.056886
      px      :     1.012150
      py      :     0.917443
      dz2     :     0.002830  d :     0.067224
      dxz     :     0.003368
      dyz     :     0.021282
      dx2y2   :     0.030987
      dxy     :     0.008757
      f0      :     0.001546  f :     0.007327
      f+1     :     0.000693
      f-1     :     0.000722
      f+2     :     0.000438
      f-2     :     0.000704
      f+3     :     0.001168
      f-3     :     0.002057

 10 C s       :     3.105021  s :     3.105021
      pz      :     0.860469  p :     2.395061
      px      :     0.790277
      py      :     0.744315
      dz2     :     0.002368  d :     0.162008
      dxz     :     0.035403
      dyz     :     0.036689
      dx2y2   :     0.041209
      dxy     :     0.046340
      f0      :     0.002271  f :     0.014677
      f+1     :     0.000850
      f-1     :     0.001038
      f+2     :     0.001973
      f-2     :     0.001181
      f+3     :     0.004256
      f-3     :     0.003108

 11 C s       :     3.105885  s :     3.105885
      pz      :     0.860507  p :     2.396451
      px      :     0.736174
      py      :     0.799770
      dz2     :     0.002378  d :     0.162003
      dxz     :     0.039176
      dyz     :     0.032885
      dx2y2   :     0.041345
      dxy     :     0.046219
      f0      :     0.002270  f :     0.014675
      f+1     :     0.001070
      f-1     :     0.000818
      f+2     :     0.002393
      f-2     :     0.000760
      f+3     :     0.002070
      f-3     :     0.005294

 12 C s       :     3.100503  s :     3.100503
      pz      :     0.959103  p :     2.483597
      px      :     0.724372
      py      :     0.800122
      dz2     :     0.003284  d :     0.152875
      dxz     :     0.037064
      dyz     :     0.027191
      dx2y2   :     0.041104
      dxy     :     0.044231
      f0      :     0.002252  f :     0.014313
      f+1     :     0.001093
      f-1     :     0.000841
      f+2     :     0.002276
      f-2     :     0.000569
      f+3     :     0.002060
      f-3     :     0.005221

 13 C s       :     3.099922  s :     3.099922
      pz      :     0.959143  p :     2.483749
      px      :     0.789217
      py      :     0.735388
      dz2     :     0.003263  d :     0.152828
      dxz     :     0.028882
      dyz     :     0.035378
      dx2y2   :     0.040309
      dxy     :     0.044995
      f0      :     0.002252  f :     0.014315
      f+1     :     0.000870
      f-1     :     0.001067
      f+2     :     0.001771
      f-2     :     0.001076
      f+3     :     0.004232
      f-3     :     0.003047

 14 C s       :     3.273009  s :     3.273009
      pz      :     1.025436  p :     2.888756
      px      :     0.915525
      py      :     0.947795
      dz2     :     0.004932  d :     0.081178
      dxz     :     0.019079
      dyz     :     0.007594
      dx2y2   :     0.029594
      dxy     :     0.019980
      f0      :     0.001558  f :     0.007706
      f+1     :     0.000519
      f-1     :     0.000845
      f+2     :     0.000067
      f-2     :     0.001190
      f+3     :     0.002242
      f-3     :     0.001285

 15 C s       :     3.273167  s :     3.273167
      pz      :     1.025395  p :     2.888434
      px      :     0.956007
      py      :     0.907032
      dz2     :     0.004932  d :     0.081178
      dxz     :     0.009023
      dyz     :     0.017654
      dx2y2   :     0.031173
      dxy     :     0.018396
      f0      :     0.001557  f :     0.007705
      f+1     :     0.000812
      f-1     :     0.000552
      f+2     :     0.000358
      f-2     :     0.000899
      f+3     :     0.001901
      f-3     :     0.001626

 16 C s       :     3.280735  s :     3.280735
      pz      :     0.964703  p :     2.850472
      px      :     0.966539
      py      :     0.919230
      dz2     :     0.004682  d :     0.086338
      dxz     :     0.009888
      dyz     :     0.023156
      dx2y2   :     0.030415
      dxy     :     0.018197
      f0      :     0.001535  f :     0.007812
      f+1     :     0.000790
      f-1     :     0.000526
      f+2     :     0.000506
      f-2     :     0.000948
      f+3     :     0.001917
      f-3     :     0.001590

 17 C s       :     3.280595  s :     3.280595
      pz      :     0.964784  p :     2.850800
      px      :     0.926423
      py      :     0.959594
      dz2     :     0.004686  d :     0.086337
      dxz     :     0.025390
      dyz     :     0.007650
      dx2y2   :     0.028929
      dxy     :     0.019682
      f0      :     0.001535  f :     0.007812
      f+1     :     0.000493
      f-1     :     0.000824
      f+2     :     0.000111
      f-2     :     0.001343
      f+3     :     0.002221
      f-3     :     0.001285

 18 C s       :     3.318666  s :     3.318666
      pz      :     0.957816  p :     2.923474
      px      :     1.035247
      py      :     0.930410
      dz2     :     0.002491  d :     0.082090
      dxz     :     0.003328
      dyz     :     0.032864
      dx2y2   :     0.033589
      dxy     :     0.009818
      f0      :     0.001458  f :     0.007252
      f+1     :     0.000632
      f-1     :     0.000631
      f+2     :     0.000445
      f-2     :     0.000832
      f+3     :     0.001124
      f-3     :     0.002131

 19 C s       :     3.318887  s :     3.318887
      pz      :     0.957781  p :     2.923574
      px      :     0.930964
      py      :     1.034829
      dz2     :     0.002493  d :     0.082091
      dxz     :     0.032808
      dyz     :     0.003389
      dx2y2   :     0.033154
      dxy     :     0.010247
      f0      :     0.001458  f :     0.007252
      f+1     :     0.000627
      f-1     :     0.000636
      f+2     :     0.000454
      f-2     :     0.000822
      f+3     :     0.002131
      f-3     :     0.001124

 20 C s       :     3.100786  s :     3.100786
      pz      :     0.961516  p :     2.480337
      px      :     0.742038
      py      :     0.776783
      dz2     :     0.003003  d :     0.151156
      dxz     :     0.034417
      dyz     :     0.027995
      dx2y2   :     0.040597
      dxy     :     0.045144
      f0      :     0.002271  f :     0.014468
      f+1     :     0.001063
      f-1     :     0.000895
      f+2     :     0.001766
      f-2     :     0.001124
      f+3     :     0.003091
      f-3     :     0.004257

 21 C s       :     3.101037  s :     3.101037
      pz      :     0.961557  p :     2.479658
      px      :     0.788905
      py      :     0.729195
      dz2     :     0.003022  d :     0.151179
      dxz     :     0.027638
      dyz     :     0.034760
      dx2y2   :     0.040378
      dxy     :     0.045382
      f0      :     0.002270  f :     0.014466
      f+1     :     0.000856
      f-1     :     0.001100
      f+2     :     0.002275
      f-2     :     0.000614
      f+3     :     0.005294
      f-3     :     0.002056

 22 C s       :     3.275049  s :     3.275049
      pz      :     1.014915  p :     2.883316
      px      :     0.948171
      py      :     0.920230
      dz2     :     0.004826  d :     0.083824
      dxz     :     0.007212
      dyz     :     0.023610
      dx2y2   :     0.028760
      dxy     :     0.019416
      f0      :     0.001560  f :     0.007871
      f+1     :     0.000849
      f-1     :     0.000511
      f+2     :     0.000078
      f-2     :     0.001394
      f+3     :     0.001261
      f-3     :     0.002218

 23 C s       :     3.275279  s :     3.275279
      pz      :     1.014820  p :     2.882868
      px      :     0.912862
      py      :     0.955186
      dz2     :     0.004824  d :     0.083835
      dxz     :     0.021793
      dyz     :     0.009038
      dx2y2   :     0.030027
      dxy     :     0.018153
      f0      :     0.001560  f :     0.007871
      f+1     :     0.000540
      f-1     :     0.000819
      f+2     :     0.000446
      f-2     :     0.001026
      f+3     :     0.001618
      f-3     :     0.001861

 24 H s       :     0.847368  s :     0.847368
      pz      :     0.010911  p :     0.021973
      px      :     0.004247
      py      :     0.006815

 25 H s       :     0.838975  s :     0.838975
      pz      :     0.008658  p :     0.021803
      px      :     0.004215
      py      :     0.008930

 26 H s       :     0.847359  s :     0.847359
      pz      :     0.010934  p :     0.021974
      px      :     0.006966
      py      :     0.004074

 27 H s       :     0.838938  s :     0.838938
      pz      :     0.008639  p :     0.021806
      px      :     0.009074
      py      :     0.004093

 28 H s       :     0.821856  s :     0.821856
      pz      :     0.005670  p :     0.022920
      px      :     0.003431
      py      :     0.013819

 29 H s       :     0.821803  s :     0.821803
      pz      :     0.005670  p :     0.022919
      px      :     0.013771
      py      :     0.003478

 30 H s       :     0.818356  s :     0.818356
      pz      :     0.004729  p :     0.022047
      px      :     0.003473
      py      :     0.013845

 31 H s       :     0.818397  s :     0.818397
      pz      :     0.004729  p :     0.022045
      px      :     0.013301
      py      :     0.004016

 32 H s       :     0.815372  s :     0.815372
      pz      :     0.004363  p :     0.021825
      px      :     0.013354
      py      :     0.004108

 33 H s       :     0.815344  s :     0.815344
      pz      :     0.004364  p :     0.021827
      px      :     0.003545
      py      :     0.013918

 34 H s       :     0.810375  s :     0.810375
      pz      :     0.004603  p :     0.022274
      px      :     0.014110
      py      :     0.003561

 35 H s       :     0.810390  s :     0.810390
      pz      :     0.004604  p :     0.022274
      px      :     0.003538
      py      :     0.014133

 36 H s       :     0.821334  s :     0.821334
      pz      :     0.004699  p :     0.022016
      px      :     0.013795
      py      :     0.003521

 37 H s       :     0.821365  s :     0.821365
      pz      :     0.004699  p :     0.022014
      px      :     0.004065
      py      :     0.013250

 38 Mgs       :     4.504003  s :     4.504003
      pz      :     2.071872  p :     6.421416
      px      :     2.173516
      py      :     2.176028
      dz2     :     0.033508  d :     0.264735
      dxz     :     0.022892
      dyz     :     0.024284
      dx2y2   :     0.014803
      dxy     :     0.169248



                     *******************************
                     * LOEWDIN POPULATION ANALYSIS *
                     *******************************

----------------------
LOEWDIN ATOMIC CHARGES
----------------------
   0 N :    0.178933
   1 N :    0.161422
   2 N :    0.161413
   3 N :    0.174115
   4 C :   -0.188486
   5 C :   -0.188444
   6 C :   -0.182515
   7 C :   -0.182533
   8 C :   -0.147645
   9 C :   -0.147641
  10 C :   -0.194248
  11 C :   -0.194167
  12 C :   -0.218622
  13 C :   -0.218718
  14 C :   -0.126895
  15 C :   -0.126865
  16 C :   -0.105557
  17 C :   -0.105625
  18 C :   -0.068572
  19 C :   -0.068558
  20 C :   -0.223173
  21 C :   -0.223123
  22 C :   -0.133641
  23 C :   -0.133581
  24 H :    0.152351
  25 H :    0.149741
  26 H :    0.152345
  27 H :    0.149724
  28 H :    0.163617
  29 H :    0.163613
  30 H :    0.147123
  31 H :    0.147142
  32 H :    0.149841
  33 H :    0.149812
  34 H :    0.170211
  35 H :    0.170209
  36 H :    0.145969
  37 H :    0.145989
  38 Mg:    0.345038

-------------------------------
LOEWDIN REDUCED ORBITAL CHARGES
-------------------------------
  0 N s       :     2.974957  s :     2.974957
      pz      :     1.155770  p :     3.623166
      px      :     1.257104
      py      :     1.210292
      dz2     :     0.016301  d :     0.204766
      dxz     :     0.022286
      dyz     :     0.028450
      dx2y2   :     0.073858
      dxy     :     0.063871
      f0      :     0.001178  f :     0.018178
      f+1     :     0.001183
      f-1     :     0.001388
      f+2     :     0.002806
      f-2     :     0.000446
      f+3     :     0.006595
      f-3     :     0.004581

  1 N s       :     2.973677  s :     2.973677
      pz      :     1.209450  p :     3.647210
      px      :     1.189384
      py      :     1.248376
      dz2     :     0.016111  d :     0.199374
      dxz     :     0.030789
      dyz     :     0.022749
      dx2y2   :     0.069593
      dxy     :     0.060132
      f0      :     0.001124  f :     0.018317
      f+1     :     0.001327
      f-1     :     0.001224
      f+2     :     0.003490
      f-2     :     0.000285
      f+3     :     0.004715
      f-3     :     0.006152

  2 N s       :     2.973682  s :     2.973682
      pz      :     1.209462  p :     3.647211
      px      :     1.202889
      py      :     1.234860
      dz2     :     0.016114  d :     0.199379
      dxz     :     0.029094
      dyz     :     0.024449
      dx2y2   :     0.068567
      dxy     :     0.061154
      f0      :     0.001124  f :     0.018315
      f+1     :     0.001401
      f-1     :     0.001150
      f+2     :     0.003380
      f-2     :     0.000395
      f+3     :     0.004437
      f-3     :     0.006427

  3 N s       :     2.975425  s :     2.975425
      pz      :     1.181538  p :     3.627356
      px      :     1.245589
      py      :     1.200229
      dz2     :     0.015994  d :     0.204460
      dxz     :     0.025941
      dyz     :     0.033628
      dx2y2   :     0.068464
      dxy     :     0.060433
      f0      :     0.001075  f :     0.018643
      f+1     :     0.001163
      f-1     :     0.001335
      f+2     :     0.003940
      f-2     :     0.000318
      f+3     :     0.006261
      f-3     :     0.004550

  4 C s       :     2.762819  s :     2.762819
      pz      :     1.038470  p :     3.026827
      px      :     0.983642
      py      :     1.004715
      dz2     :     0.041754  d :     0.358863
      dxz     :     0.047538
      dyz     :     0.092616
      dx2y2   :     0.091861
      dxy     :     0.085094
      f0      :     0.003981  f :     0.039977
      f+1     :     0.003213
      f-1     :     0.004209
      f+2     :     0.004295
      f-2     :     0.005251
      f+3     :     0.009185
      f-3     :     0.009843

  5 C s       :     2.762830  s :     2.762830
      pz      :     1.038461  p :     3.026841
      px      :     1.002740
      py      :     0.985640
      dz2     :     0.041890  d :     0.358799
      dxz     :     0.091573
      dyz     :     0.048395
      dx2y2   :     0.086995
      dxy     :     0.089946
      f0      :     0.003993  f :     0.039974
      f+1     :     0.004228
      f-1     :     0.003177
      f+2     :     0.004305
      f-2     :     0.005251
      f+3     :     0.007540
      f-3     :     0.011480

  6 C s       :     2.713427  s :     2.713427
      pz      :     0.787319  p :     2.751431
      px      :     1.017838
      py      :     0.946274
      dz2     :     0.041020  d :     0.639770
      dxz     :     0.088510
      dyz     :     0.116602
      dx2y2   :     0.193446
      dxy     :     0.200192
      f0      :     0.005242  f :     0.077887
      f+1     :     0.004060
      f-1     :     0.006190
      f+2     :     0.011548
      f-2     :     0.006851
      f+3     :     0.030843
      f-3     :     0.013152

  7 C s       :     2.713439  s :     2.713439
      pz      :     0.787389  p :     2.751460
      px      :     0.940244
      py      :     1.023826
      dz2     :     0.041056  d :     0.639746
      dxz     :     0.103899
      dyz     :     0.101179
      dx2y2   :     0.191124
      dxy     :     0.202488
      f0      :     0.005241  f :     0.077887
      f+1     :     0.005872
      f-1     :     0.004385
      f+2     :     0.010609
      f-2     :     0.007789
      f+3     :     0.020552
      f-3     :     0.023439

  8 C s       :     2.743222  s :     2.743222
      pz      :     0.990368  p :     3.006922
      px      :     1.026250
      py      :     0.990304
      dz2     :     0.024536  d :     0.357726
      dxz     :     0.069624
      dyz     :     0.010996
      dx2y2   :     0.155480
      dxy     :     0.097090
      f0      :     0.003178  f :     0.039775
      f+1     :     0.004757
      f-1     :     0.003035
      f+2     :     0.002043
      f-2     :     0.005313
      f+3     :     0.012529
      f-3     :     0.008920

  9 C s       :     2.743233  s :     2.743233
      pz      :     0.990351  p :     3.006911
      px      :     0.987488
      py      :     1.029073
      dz2     :     0.024538  d :     0.357724
      dxz     :     0.011604
      dyz     :     0.069041
      dx2y2   :     0.152204
      dxy     :     0.100338
      f0      :     0.003179  f :     0.039773
      f+1     :     0.003016
      f-1     :     0.004775
      f+2     :     0.002100
      f-2     :     0.005258
      f+3     :     0.009053
      f-3     :     0.012392

 10 C s       :     2.698690  s :     2.698690
      pz      :     0.798759  p :     2.759139
      px      :     1.012706
      py      :     0.947673
      dz2     :     0.042247  d :     0.654846
      dxz     :     0.098498
      dyz     :     0.116690
      dx2y2   :     0.196160
      dxy     :     0.201251
      f0      :     0.004984  f :     0.081573
      f+1     :     0.004532
      f-1     :     0.005936
      f+2     :     0.012867
      f-2     :     0.007937
      f+3     :     0.026489
      f-3     :     0.018828

 11 C s       :     2.698711  s :     2.698711
      pz      :     0.798817  p :     2.759144
      px      :     0.947217
      py      :     1.013110
      dz2     :     0.042257  d :     0.654754
      dxz     :     0.122740
      dyz     :     0.092409
      dx2y2   :     0.192367
      dxy     :     0.204980
[...]
  0-1A  -> 16-1A    5.634652   45446.5   220.0   0.149341631   0.04639   0.13616  -0.16687   0.00006
  0-1A  -> 17-1A    5.765224   46499.7   215.1   0.000503926   0.00016  -0.00982  -0.00798  -0.00002
  0-1A  -> 18-1A    5.830903   47029.4   212.6   0.011179739   0.00359   0.03769  -0.04628  -0.00554
  0-1A  -> 19-1A    5.886824   47480.4   210.6   0.002054066   0.00067   0.00920  -0.01135   0.02129
  0-1A  -> 20-1A    5.923346   47775.0   209.3   0.156737761   0.05118  -0.14302   0.17528  -0.00095
  0-1A  -> 21-1A    5.957864   48053.4   208.1   0.000928873   0.00031   0.01325   0.01138   0.00006
  0-1A  -> 22-1A    6.106276   49250.4   203.0   0.000216452   0.00007   0.00653   0.00550   0.00007
  0-1A  -> 23-1A    6.126065   49410.1   202.4   0.008230236   0.00278  -0.03320   0.04055   0.00576
  0-1A  -> 24-1A    6.151864   49618.1   201.5   0.000589251   0.00020  -0.01081  -0.00910  -0.00008
  0-1A  -> 25-1A    6.405005   51659.9   193.6   0.000044450   0.00002  -0.00305  -0.00253  -0.00005
  0-1A  -> 26-1A    6.486098   52313.9   191.2   0.007521871   0.00269   0.04003   0.03297   0.00008
  0-1A  -> 27-1A    6.522788   52609.8   190.1   0.041491908   0.01492  -0.07719   0.09461   0.00295
  0-1A  -> 28-1A    6.553043   52853.9   189.2   0.001583699   0.00057  -0.00484   0.00584   0.02268
  0-1A  -> 29-1A    6.640100   53556.0   186.7   0.000799752   0.00029  -0.01328  -0.01079   0.00003
  0-1A  -> 30-1A    6.703014   54063.5   185.0   0.055983501   0.02069   0.09073  -0.11157  -0.00205

------------------------------------------------------------------------------------------
                     CD SPECTRUM VIA TRANSITION ELECTRIC DIPOLE MOMENTS    
------------------------------------------------------------------------------------------
     Transition      Energy     Energy  Wavelength    R        MX        MY        MZ   
                      (eV)      (cm-1)    (nm)   (1e40*cgs)   (au)      (au)      (au)  
------------------------------------------------------------------------------------------
  0-1A  ->  1-1A    2.106753   16992.1   588.5    3.99691   0.00142   0.00153  -1.09366
  0-1A  ->  2-1A    2.632933   21236.0   470.9   -0.22764  -0.00134  -0.00107  -0.00030
  0-1A  ->  3-1A    3.402656   27444.3   364.4  -21.30951  -0.00844  -0.00671  -0.00027
  0-1A  ->  4-1A    3.690977   29769.7   335.9    3.00358   0.00117  -0.00117  -0.11392
  0-1A  ->  5-1A    4.193232   33820.7   295.7   -2.15869   0.00153  -0.00416   0.73662
  0-1A  ->  6-1A    4.274638   34477.3   290.0   -1.42279  -0.00429  -0.00349  -0.00073
  0-1A  ->  7-1A    4.746286   38281.4   261.2   -2.80041   0.00401   0.00329   0.00015
  0-1A  ->  8-1A    4.983111   40191.5   248.8  -14.15899   0.02641  -0.03095  -0.47676
  0-1A  ->  9-1A    4.991149   40256.3   248.4   25.13085   0.18443  -0.22605   0.03274
  0-1A  -> 10-1A    5.146866   41512.3   240.9    0.37215   0.04610   0.03778   0.00014
  0-1A  -> 11-1A    5.212267   42039.8   237.9    3.88491   0.00434  -0.00746   0.73410
  0-1A  -> 12-1A    5.273074   42530.2   235.1   -0.80567  -0.00553  -0.00435  -0.00026
  0-1A  -> 13-1A    5.416036   43683.3   228.9    1.92871   0.04541  -0.04748  -0.03166
  0-1A  -> 14-1A    5.418128   43700.2   228.8    2.69334  -0.16671  -0.13818  -0.00112
  0-1A  -> 15-1A    5.508441   44428.6   225.1   -3.69792   0.01064   0.00866  -0.00014
  0-1A  -> 16-1A    5.634652   45446.5   220.0   -1.61718  -0.00121   0.00299  -0.54594
  0-1A  -> 17-1A    5.765224   46499.7   215.1    0.03872  -0.00110  -0.00090   0.00045
  0-1A  -> 18-1A    5.830903   47029.4   212.6    5.32917  -0.00224   0.00423  -0.48019
  0-1A  -> 19-1A    5.886824   47480.4   210.6   -1.51225  -0.02477   0.03072  -0.00578
  0-1A  -> 20-1A    5.923346   47775.0   209.3    3.24622  -0.00227   0.00405  -0.43033
  0-1A  -> 21-1A    5.957864   48053.4   208.1   -0.31292  -0.00614  -0.00511   0.00027
  0-1A  -> 22-1A    6.106276   49250.4   203.0   -1.87137  -0.08071  -0.06607  -0.00023
  0-1A  -> 23-1A    6.126065   49410.1   202.4   -0.56045  -0.00480   0.00646  -0.12314
  0-1A  -> 24-1A    6.151864   49618.1   201.5    0.81998  -0.02097  -0.01707   0.00029
  0-1A  -> 25-1A    6.405005   51659.9   193.6    0.66082  -0.06555  -0.05324  -0.00031
  0-1A  -> 26-1A    6.486098   52313.9   191.2   -1.35017  -0.01035  -0.00823  -0.00001
  0-1A  -> 27-1A    6.522788   52609.8   190.1    3.54374  -0.00793   0.00989   0.07599
  0-1A  -> 28-1A    6.553043   52853.9   189.2   -2.18519   0.12150  -0.14836   0.01848
  0-1A  -> 29-1A    6.640100   53556.0   186.7    9.86278  -0.23515  -0.19247  -0.00054
  0-1A  -> 30-1A    6.703014   54063.5   185.0    0.03039  -0.00091   0.00188  -0.15470

------------------------------------------------------------------------------------------
                     CD SPECTRUM VIA TRANSITION VELOCITY DIPOLE MOMENTS    
------------------------------------------------------------------------------------------
     Transition      Energy     Energy  Wavelength    R        MX        MY        MZ   
                      (eV)      (cm-1)    (nm)   (1e40*cgs)   (au)      (au)      (au)  
------------------------------------------------------------------------------------------
  0-1A  ->  1-1A    2.106753   16992.1   588.5    4.32330   0.00142   0.00153  -1.09366
  0-1A  ->  2-1A    2.632933   21236.0   470.9   -0.22780  -0.00134  -0.00107  -0.00030
  0-1A  ->  3-1A    3.402656   27444.3   364.4  -21.19073  -0.00844  -0.00671  -0.00027
  0-1A  ->  4-1A    3.690977   29769.7   335.9    2.99088   0.00117  -0.00117  -0.11392
  0-1A  ->  5-1A    4.193232   33820.7   295.7   -2.21312   0.00153  -0.00416   0.73662
  0-1A  ->  6-1A    4.274638   34477.3   290.0   -1.42243  -0.00429  -0.00349  -0.00073
  0-1A  ->  7-1A    4.746286   38281.4   261.2   -2.79439   0.00401   0.00329   0.00015
  0-1A  ->  8-1A    4.983111   40191.5   248.8  -14.18958   0.02641  -0.03095  -0.47676
  0-1A  ->  9-1A    4.991149   40256.3   248.4   25.11049   0.18443  -0.22605   0.03274
  0-1A  -> 10-1A    5.146866   41512.3   240.9    0.43293   0.04610   0.03778   0.00014
  0-1A  -> 11-1A    5.212267   42039.8   237.9    4.08974   0.00434  -0.00746   0.73410
  0-1A  -> 12-1A    5.273074   42530.2   235.1   -0.83783  -0.00553  -0.00435  -0.00026
  0-1A  -> 13-1A    5.416036   43683.3   228.9    2.11076   0.04541  -0.04748  -0.03166
  0-1A  -> 14-1A    5.418128   43700.2   228.8    2.62539  -0.16671  -0.13818  -0.00112
  0-1A  -> 15-1A    5.508441   44428.6   225.1   -3.67681   0.01064   0.00866  -0.00014
  0-1A  -> 16-1A    5.634652   45446.5   220.0   -1.58789  -0.00121   0.00299  -0.54594
  0-1A  -> 17-1A    5.765224   46499.7   215.1    0.04002  -0.00110  -0.00090   0.00045
  0-1A  -> 18-1A    5.830903   47029.4   212.6    5.23915  -0.00224   0.00423  -0.48019
  0-1A  -> 19-1A    5.886824   47480.4   210.6   -1.52436  -0.02477   0.03072  -0.00578
  0-1A  -> 20-1A    5.923346   47775.0   209.3    3.12390  -0.00227   0.00405  -0.43033
  0-1A  -> 21-1A    5.957864   48053.4   208.1   -0.30055  -0.00614  -0.00511   0.00027
  0-1A  -> 22-1A    6.106276   49250.4   203.0   -1.87020  -0.08071  -0.06607  -0.00023
  0-1A  -> 23-1A    6.126065   49410.1   202.4   -0.60306  -0.00480   0.00646  -0.12314
  0-1A  -> 24-1A    6.151864   49618.1   201.5    0.79696  -0.02097  -0.01707   0.00029
  0-1A  -> 25-1A    6.405005   51659.9   193.6    0.67003  -0.06555  -0.05324  -0.00031
  0-1A  -> 26-1A    6.486098   52313.9   191.2   -1.35601  -0.01035  -0.00823  -0.00001
  0-1A  -> 27-1A    6.522788   52609.8   190.1    3.48510  -0.00793   0.00989   0.07599
  0-1A  -> 28-1A    6.553043   52853.9   189.2   -2.02716   0.12150  -0.14836   0.01848
  0-1A  -> 29-1A    6.640100   53556.0   186.7   10.04481  -0.23515  -0.19247  -0.00054
  0-1A  -> 30-1A    6.703014   54063.5   185.0    0.05031  -0.00091   0.00188  -0.15470

Total run time:     7131.616 sec

           *** ORCA-CIS/TD-DFT FINISHED WITHOUT ERROR ***
-----------------------
CIS/TD-DFT TOTAL ENERGY
-----------------------

    E(SCF)  =  -1189.835822803 Eh
    DE(CIS) =      0.077421752 Eh (Root  1)
    ----------------------------- ---------
    E(tot)  =  -1189.758401051 Eh


Maximum memory used throughout the entire CIS-calculation: 2727.0 MB
=> NOW LEAVING ORCA_CIS


-------------------------------------------------------------------------------
                          DFT DISPERSION CORRECTION                            
                                                                               
                              DFTD3 V3.1  Rev 1                                
                              USING zero damping                               
-------------------------------------------------------------------------------
The omegaB97X-D3 functional is recognized. Fit by Chai et al.
Active option DFTDOPT                   ...         3   

molecular C6(AA) [au] = 22114.517997 


            DFT-D V3
 parameters
 s6 scaling factor         :     1.0000 
 rs6 scaling factor        :     1.2810 
 s8 scaling factor         :     1.0000 
 rs8 scaling factor        :     1.0940 
 Damping factor alpha6     :    14.0000 
 Damping factor alpha8     :    16.0000 
 ad hoc parameters k1-k3   :    16.0000     1.3333    -4.0000 

 Edisp/kcal,au: -11.580984657182  -0.018455471830 
 E6   /kcal   :  -5.080828504 
 E8   /kcal   :  -6.500156153 
 % E8         :  56.127836672 

-------------------------   ----------------
Dispersion correction           -0.018455472
-------------------------   ----------------


-------------------------   --------------------
FINAL SINGLE POINT ENERGY     -1189.776856522492
-------------------------   --------------------



           ************************************************************
           *        Program running with 4 parallel MPI-processes     *
           *              working on a common directory               *
           ************************************************************

------------------------------------------------------------------------------
                              ORCA PROPERTY CALCULATIONS
------------------------------------------------------------------------------

GBWName                                 ... tddft.gbw
Number of atoms                         ...     39
Number of basis functions               ...    860
Max core memory                         ...   3000 MB

Electric properties:
Dipole moment                           ... YES
Quadrupole moment                       ...  NO
Static polarizability (Dipole/Dipole)   ...  NO
Static polarizability (Dipole/Quad.)    ...  NO
Static polarizability (Quad./Quad.)     ...  NO
Static polarizability (Velocity)        ...  NO
Static hyperpolarizability              ...  NO

Atomic electric properties:
Dipole moment                           ...  NO
Quadrupole moment                       ...  NO
Static polarizability                   ...  NO

Choice of electric origin               ... Center of mass
Position of electric origin             ...     0.020726     0.037348     0.001110

General magnetic properties:
Magnetizability                         ...  NO

EPR properties:
g-Tensor (aka g-matrix)                 ...  NO
Zero-Field splitting spin-orbit         ...  NO
Zero-field splitting spin-spin          ...  NO
Hyperfine couplings                     ...  NO (   0 nuclei)
Quadrupole couplings                    ...  NO (   0 nuclei)
Contact density                         ...  NO (   0 nuclei)

NMR properties:
Chemical shifts                         ...  NO (   0 nuclei)
Spin-rotation constants                 ...  NO (   0 nuclei)
Spin-spin couplings                     ...  NO (   0 nuclei,    0 pairs)

Choice of magnetic origin               ... GIAO
Position of magnetic origin             ...     0.000000     0.000000     0.000000

Properties with geometric perturbations:
SCF Hessian                             ...  NO
IR spectrum                             ...  NO
VCD spectrum                            ...  NO
X-ray spectroscopy properties:
SCF XES/XAS/RIXS spectra                ...  NO

SCF SOC stabilization energy            ...  NO
Diagonal Born-Oppenheimer correction    ...  NO

-------------
DIPOLE MOMENT
-------------

Method             : SCF
Type of density    : Electron Density
Multiplicity       :   1
Irrep              :   0
Energy             : -1189.8358228026479537 Eh
Basis              : AO
                                X                 Y                 Z
Electronic contribution:     -5.303951783      -4.328162923      -0.010551857
Nuclear contribution   :      6.309094870       5.149182336       0.012909410
                        -----------------------------------------
Total Dipole Moment    :      1.005143087       0.821019413       0.002357553
                        -----------------------------------------
Magnitude (a.u.)       :      1.297840922
Magnitude (Debye)      :      3.298849460



--------------------
Rotational spectrum 
--------------------
 
Rotational constants in cm-1:             0.008906             0.008560             0.004372 
Rotational constants in MHz :           266.993354           256.633129           131.080005 

Dipole components along the rotational axes: 
x,y,z [a.u.] :     1.297841    -0.001018    -0.000043 
x,y,z [Debye]:     3.298848    -0.002588    -0.000110 

 

Dipole moment calculation done in   0.0 sec 

Maximum memory used throughout the entire PROP-calculation: 88.5 MB

--------------------------------
SUGGESTED CITATIONS FOR THIS RUN
--------------------------------

Below you find a list of papers that are relevant to this ORCA run
We neither can nor want to force you to cite these papers, but we appreciate if you do
You receive ORCA, which is the product of decades of hard work by many enthusiastic individuals, for free
The only thing we kindly ask in return is that you cite our papers,
We deeply appreciate it, if you show your appreciation for ORCA by not just citing the generic ORCA reference.

Please note that relegating all ORCA citations to the supporting information does *not* help us.
SI sections are not indexed - citations you put there will not count into any citation statistics
But we need these citations in order to attract the funding resources that allow us to do what we are doing

Therefore, if you are a happy ORCA user, please consider citing a few of the papers listed below in the main body of your paper

In addition to the list printed below, the program has created the file tddft.bibtex that contains the list in bibtex format
You can import this file easily into all common literature databanks and citation aid programs

It goes without saying that in many instances, there are alternative algorithms to achieve similar
results as the ones you have gotten from ORCA. It is, of course, also the case that in some instances
ORCA just re-implements algorithms worked out by others. We are fully aware of that and we are also
fully appreciative of our colleagues work. Hence this citation list should not be read as indicating
that the listed papers, which are focused on our own work, are the only ones worth citing. It simply
meant to make it easier for users to cite ORCA specific papers. It is not a substitute for doing your
own literature research and citing the relevant literature in a scientifically appropriate manner.

List of essential papers. We consider these as the minimum necessary citations

  1. Neese, F.
     Software update: the ORCA program system, version 6.0
     WIRES Comput. Molec. Sci. 2025 15(1), e70019
     doi.org/10.1002/wcms.70019

List of papers to cite with high priority. The work reported in these papers was absolutely
necessary for this run to complete.
Our perspective: the developers of density functionals and basis sets usually get cited in chemistry papers
Good! But without the algorithms to do something with them, the functionals or basis sets would not do anything.
Hence, in our opinion, the algorithm design and method developments papers are equally worthy of getting cited

  1. Neese, F.; Olbrich, G.
     Efficient use of the resolution of the identity approximation in time-dependent density functional calculations with hybrid density functionals
     Chem. Phys. Lett. 2002 362 , 170-178
     doi.org/10.1016/s0009-2614(02)01053-9
  2. Neese, F.
     An improvement of the resolution of the identity approximation for the formation of the Coulomb matrix
     J. Comp. Chem. 2003 24(14), 1740-1747
     doi.org/10.1002/jcc.10318
  3. Neese, F.; Wennmohs, F.; Hansen, A.; Becker, U.
     Efficient, approximate and parallel Hartree-Fock and hybrid DFT calculations. A 'chain-of-spheres' algorithm for the Hartree-Fock exchange
     Chem. Phys. 2009 356(1-3), 98-109
     doi.org/10.1016/j.chemphys.2008.10.036
  4. Grimme, S.; Antony, J.; Ehrlich, S.; Krieg, H.
     A consistent and accurate ab initio parametrization of density functional dispersion correction (DFT-D) for the 94 elements H-Pu
     J. Chem. Phys. 2010 132 , 154104
     doi.org/10.1063/1.3382344
  5. Garcia-Rates, M.; Neese, F.
     Effect of the Solute Cavity on the Solvation Energy and its Derivatives within the Framework of the Gaussian Charge Scheme
     J. Comput. Chem. 2020 41 , 922-939
     doi.org/10.1002/jcc.26139
  6. Helmich-Paris, B.; de Souza, B.; Neese, F.; Izsák, R.
     An improved chain of spheres for exchange algorithm
     J. Chem. Phys. 2021 155(10), 104109
     doi.org/10.1063/5.0058766
  7. Neese, F.
     The SHARK Integral Generation and Digestion System
     J. Comp. Chem. 2022 44(3), 381
     doi.org/10.1002/jcc.26942

List of suggested additional citations. These are papers that are important in the 'surrounding' of 
of this run, or papers that preceded the highly important papers. If you like your results we are grateful for a citation.

  1. Izsak, R.; Neese, F.
     An overlap fitted chain of spheres exchange method
     J. Chem. Phys. 2011 135 , 144105
     doi.org/10.1063/1.3646921
  2. Izsak, R.; Hansen, A.; Neese, F.
     The resolution of identity and chain of spheres approximations for the LPNO-CCSD singles Fock term
     Molec. Phys. 2012 110 , 2413-2417
     doi.org/10.1080/00268976.2012.687466
  3. Neese, F.
     The ORCA program system
     WIRES Comput. Molec. Sci. 2012 2(1), 73-78
     doi.org/10.1002/wcms.81
  4. Izsak, R.; Neese, F.; Klopper, W.
     Robust fitting techniques in the chain of spheres approximation to the Fock exchange: The role of the complementary space
     J. Chem. Phys. 2013 139 , 
     doi.org/10.1063/1.4819264
  5. Neese, F.
     Software update: the ORCA program system, version 4.0
     WIRES Comput. Molec. Sci. 2018 8(1), 1-6
     doi.org/10.1002/wcms.1327
  6. Neese, F.; Wennmohs, F.; Becker, U.; Riplinger, C.
     The ORCA quantum chemistry program package
     J. Chem. Phys. 2020 152(22), 224108
     doi.org/10.1063/5.0004608
  7. Neese, F.
     Software update: The ORCA program system—Version 5.0
     WIRES Comput. Molec. Sci. 2022 12(1), e1606
     doi.org/10.1002/wcms.1606

List of optional additional citations

  1. Neese, F.
     Approximate second-order SCF convergence for spin unrestricted wavefunctions
     Chem. Phys. Lett. 2000 325(1-3), 93-98
     doi.org/10.1016/s0009-2614(00)00662-x

Timings for individual modules:

Sum of individual times          ...     9744.053 sec (= 162.401 min)
Startup calculation              ...       37.549 sec (=   0.626 min)   0.4 %
SCF iterations                   ...     2572.528 sec (=  42.875 min)  26.4 %
Property integrals               ...        1.247 sec (=   0.021 min)   0.0 %
Property calculations            ...        0.682 sec (=   0.011 min)   0.0 %
CIS module                       ...     7132.047 sec (= 118.867 min)  73.2 %
                             ****ORCA TERMINATED NORMALLY****
TOTAL RUN TIME: 0 days 2 hours 42 minutes 24 seconds 926 msec
