
                                 *****************
                                 * O   R   C   A *
                                 *****************

                                            #,                                       
                                            ###                                      
                                            ####                                     
                                            #####                                    
                                            ######                                   
                                           ########,                                 
                                     ,,################,,,,,                         
                               ,,#################################,,                 
                          ,,##########################################,,             
                       ,#########################################, ''#####,          
                    ,#############################################,,   '####,        
                  ,##################################################,,,,####,       
                ,###########''''           ''''###############################       
              ,#####''   ,,,,##########,,,,          '''####'''          '####       
            ,##' ,,,,###########################,,,                        '##       
           ' ,,###''''                  '''############,,,                           
         ,,##''                                '''############,,,,        ,,,,,,###''
      ,#''                                            '''#######################'''  
     '                                                          ''''####''''         
             ,#######,   #######,   ,#######,      ##                                
            ,#'     '#,  ##    ##  ,#'     '#,    #''#        ,####,    ,#,          
            ##       ##  ##   ,#'  ##            #'  '#       #'       ,# #          
            ##       ##  #######   ##           ,######,      #####,      #          
            '#,     ,#'  ##    ##  '#,     ,#' ,#      #,     #,   #      #          
             '#######'   ##     ##  '#######'  #'      '#     '####' #    #          



                #########################################################
                #                        -***-                          #
                #          Department of theory and spectroscopy        #
                #                                                       #
                #                      Frank Neese                      #
                #                                                       #
                #     Directorship, Architecture, Infrastructure        #
                #                    SHARK, DRIVERS                     #
                #        Core code/Algorithms in most modules           #
                #                                                       #
                #        Max Planck Institute fuer Kohlenforschung      #
                #                Kaiser Wilhelm Platz 1                 #
                #                 D-45470 Muelheim/Ruhr                 #
                #                      Germany                          #
                #                                                       #
                #                  All rights reserved                  #
                #                        -***-                          #
                #########################################################


                         Program Version 6.1.1  -  RELEASE   -
                                (GIT: $487d211c$)
                          ($2025-11-21 10:33:24 +0100$)


 With contributions from (in alphabetic order):
[Max-Planck-Institut fuer Kohlenforschung]                               
  Daniel Aravena         : Magnetic Suceptibility                        
  Michael Atanasov       : Ab Initio Ligand Field Theory (pilot matlab implementation)
  Alexander A. Auer      : GIAO ZORA, VPT2 properties, NMR spectrum      
  Ute Becker             : All parallelization in ORCA, NUMFREQ, NUMCALC 
  Giovanni Bistoni       : ED, misc. LED, open-shell LED, HFLD           
  Dmytro Bykov           : pre 5.0 version of the SCF Hessian            
  Marcos Casanova-Páez   : Triplet and SCS-CIS(D). UHF-(DLPNO)-IP/EA/STEOM-CCSD. UHF-CVS-IP/STEOM-CCSD   
  Vijay G. Chilkuri      : MRCI spin determinant printing, contributions to CSF-ICE 
  Pauline Colinet        : FMM embedding                                 
  Dipayan Datta          : RHF DLPNO-CCSD density                        
  Achintya Kumar Dutta   : EOM-CC, STEOM-CC                              
  Nicolas Foglia         : Exact transition moments, OPA infrastructure, MCD improvements    
  Dmitry Ganyushin       : Spin-Orbit,Spin-Spin,Magnetic field MRCI      
  Miquel Garcia-Rates    : C-PCM and meta-GGA Hessian, CCSD/C-PCM, Gaussian charge scheme 
  Tiago L. C. Gouveia    : GS-ROHF, GS-ROCIS                             
  Yang Guo               : DLPNO-NEVPT2, F12-NEVPT2, CIM, IAO-localization        
  Andreas Hansen         : Spin unrestricted coupled pair/coupled cluster methods 
  Ingolf Harden          : AUTO-CI MPn and infrastructure                
  Benjamin Helmich-Paris : MC-RPA, TRAH-(SCF,CASSCF), AVAS, COSX integrals, SCF dyn. polar., MC-PDFT, srDFT 
  Lee Huntington         : MR-EOM, pCC                                   
  Robert Izsak           : Overlap fitted RIJCOSX, COSX-SCS-MP3, EOM     
  Riya Kayal             : Wick's Theorem for AUTO-CI, AUTO-CI UHF-CCSDT 
  Emily Kempfer          : AUTO-CI RHF CISDT and CCSDT, approximate NEVPT4
  Christian Kollmar      : KDIIS, OOCD, Brueckner-CCSD(T), CCSD density, CASPT2, CASPT2-K, improved NEVPT2 
  Axel Koslowski         : Symmetry handling                             
  Simone Kossmann        : meta-GGA functionals, TD-DFT gradient, OOMP2, (MP2 Hessian; deprecated post 5.0) 
  Lucas Lang             : DCDCAS, Hyperfine gauge corrections, ICE-SOC+SSC
  Marvin Lechner         : AUTO-CI (C++ implementation), FIC-MRCC        
  Spencer Leger          : CASSCF response                               
  Dagmar Lenk            : GEPOL surface, SMD, ORCA-2-JSON               
  Dimitrios Liakos       : Extrapolation schemes; Compound Job, Property file
  Dimitrios Manganas     : Further ROCIS development; embedding schemes. LFT, Crystal Embedding 
  Dimitrios Pantazis     : SARC Basis sets                               
  Anastasios Papadopoulos: AUTO-CI, single reference methods and gradients 
  Taras Petrenko         : pre 6.0 DFT Hessian and TD-DFT gradient,  ECA, NRVS 
  Petra Pikulova         : Analytic Raman intensities                    
  Peter Pinski           : DLPNO-MP2, DLPNO-MP2 Gradient                 
  Shashank Vittal Rao    : ES-AILFT, MagRelax                            
  Christoph Reimann      : Effective Core Potentials                     
  Marius Retegan         : Local ZFS, SOC                                
  Christoph Riplinger    : Optimizer, TS searches, QM/MM, DLPNO-CCSD(T), (RO)-DLPNO pert. Triples 
  Michael Roemelt        : Original ROCIS implementation, recursive CI coupling coefficients
  Masaaki Saitow         : Open-shell DLPNO-CCSD energy and density      
  Barbara Sandhoefer     : DKH picture change effects                    
  Yorick L. A. Schmerwitz: GMF and freeze-and-release deltaSCF, NEB S-IDPP initial path                    
  Kantharuban Sivalingam : CASSCF convergence/infrastructure, NEVPT2, NEVPT3, NEVPT4(SD), FIC-MRCI and CEPA variants
  Bernardo de Souza      : ESD, SOC TD-DFT                               
  Georgi L. Stoychev     : AutoAux, RI-MP2 NMR, DLPNO-MP2 response, X2C  
  Van Anh Tran           : RI-MP2 g-tensors                              
  Willem Van den Heuvel  : Paramagnetic NMR                              
  Zikuan Wang            : NOTCH, Electric field optimization            
  Frank Wennmohs         : Technical directorship and infrastructure     
  Hang Xu                : AUTO-CI-Response properties                   
                                                                         
[FACCTs GmbH]                                                            
  Markus Bursch, Nicolas Foglia, Miquel Garcia-Rates, Ingolf Harden, Hagen Neugebauer, Anastasios Papadopoulos, 
  Christoph Riplinger, Bernardo de Souza, Georgi L. Stoychev                                                    
                                                                 
  APM, various basis sets, CI-OPT, improved COSX, DLPNO-Multilevel,           
  DOCKER, DRACO, updates on ESD, Fragmentator, GOAT, IRC, LR-CPCM, L-BFGS, MBIS, meta-GGA TD-DFT gradient, ML-optimized integration grids, 
  MM, NACMEs, nearIR, NEB, NEB-TS, NL-DFT gradient (VV10), 2- and 3-layer-ONIOM, interface openCOSMO-RS, QMMM,   
  Crystal-QMMM, RESP, rigid body optimization, SF, symmetry and pop. for TD-DFT, various functionals, SOLVATOR                                   
                                                                         
[Other institutions]                                                     
  V. Asgeirsson          : NEB                                           
  Christoph Bannwarth    : sTDA-DFT, sTD-DFT, PBEh-3c, B97-3c, D3        
  Giovanni Bistoni       : ETS/NOCV, ADLD/ADEX, COVALED                  
  Martin Brehm           : Molecular dynamics                            
  Ronald Cardenas        : ETS/NOCV                                      
  Martina Colucci        : COVALED                                       
  Sebastian Ehlert       : rSCAN, r2SCAN, r2SCAN-3c, D4, dhf basis sets  
  Marvin Friede          : D4 for Fr, Ra, Ac-Lr                          
  Lars Goerigk           : TD-DFT with DH, B97 family of functionals     
  Stefan Grimme          : VdW corrections, initial TS optimization, DFT functionals, gCP, sTDA/sTD-DF 
  Waldemar Hujo          : DFT-NL                                        
  H. Jonsson             : NEB                                           
  Holger Kruse           : gCP                                           
  Marcel Mueller         : wB97X-3c, vDZP basis set                      
  Hagen Neugebauer       : wr2SCAN, Native XTB                           
  Gianluca Regni         : ADLD/ADEX                                     
  Tobias Risthaus        : pre 6.0 range-separated hybrid DFT and stability analysis
  Lukas Wittmann         : regularized MP2, r2SCAN double-hybrids, wr2SCAN        
                                                                         
We gratefully acknowledge several colleagues who have allowed us to      
interface, adapt or use parts of their codes:                            
  Ed Valeev, F. Pavosevic, A. Kumar             : LibInt (2-el integral package), F12 methods 
  Garnet Chan, S. Sharma, J. Yang, R. Olivares  : DMRG                   
  Ulf Ekstrom                                   : XCFun DFT Library      
  Mihaly Kallay                                 : mrcc  (arbitrary order and MRCC methods)
  Frank Weinhold                                : gennbo (NPA and NBO analysis)           
  Simon Mueller                                 : openCOSMO-RS                            
  Christopher J. Cramer and Donald G. Truhlar   : smd solvation model                     
  S Lehtola, MJT Oliveira, MAL Marques          : LibXC Library                           
  Liviu Ungur et al                             : ANISO software                          


 Your calculation uses the libint2 library for the computation of 2-el integrals
 For citations please refer to: http://libint.valeyev.net

 Your ORCA version has been built with support for libXC version: 7.0.0
 For citations please refer to: https://libxc.gitlab.io

 This ORCA versions uses:
   CBLAS   interface :  Fast vector & matrix operations
   LAPACKE interface :  Fast linear algebra routines
   SCALAPACK package :  Parallel linear algebra routines
   Shared memory     :  Shared parallel matrices
   BLAS/LAPACK       :  OpenBLAS 0.3.29  USE64BITINT DYNAMIC_ARCH NO_AFFINITY Haswell SINGLE_THREADED
        Core in use  :  Haswell
   Copyright (c) 2011-2014, The OpenBLAS Project


  ***********************************
  * Starting time: Sun Jul  5 17:08:28 2026
  * Host name:     steezy
  * Process ID:    1275768
  * Working dir.:  /home/jannes/chlorophyll-ladder/007-mg-core-ladder/mgchlorin/02_tddft/tpss
  ***********************************

NOTE: MaxCore=3000 MB was set to SCF,MP2,MDCI,CIPSI,MRCI,RASCI and CIS
      => If you want to overwrite this, your respective input block should be placed after the MaxCore statement


***************************************
The coordinates will be read from file: /home/jannes/chlorophyll-ladder/007-mg-core-ladder/mgchlorin/01_opt/mgchlorin_opt_b3lypd4_tzvp.xyz
***************************************


================================================================================

----- Orbital basis set information -----
Your calculation utilizes the basis: def2-TZVP
   F. Weigend and R. Ahlrichs, Phys. Chem. Chem. Phys. 7, 3297 (2005).

----- AuxJ basis set information -----
Your calculation utilizes the auxiliary basis: def2/J
   H-Rn: F. Weigend, Phys. Chem. Chem. Phys. 8, 1057 (2006).
   Fr-Lr: K. Eichkorn, F. Weigend, O. Treutler, R. Ahlrichs; Theor. Chem. Acc. 97, 119 (1997).

================================================================================
                                        WARNINGS
                       Please study these warnings very carefully!
================================================================================



WARNING: Found flag for RIJCOSX approximation but no HF exchange needed!
  ===> : RIJCOSX  will be disabled and Split-RI-J is turned on

WARNING: CIS/ROCIS methods need fully converged wavefunctions
  ===> : Setting SCFConvForced true
         You can overwrite this default with %scf ConvForced false 


================================================================================
                                       INPUT FILE
================================================================================
NAME = tddft.inp
|  1> %pal nprocs 4 end
|  2> %maxcore 3000
|  3> ! TPSS def2-TZVP def2/J RIJCOSX DefGrid3 TightSCF
|  4> %tddft
|  5>   nroots 30
|  6>   triplets false
|  7> end
|  8> * xyzfile 0 1 /home/jannes/chlorophyll-ladder/007-mg-core-ladder/mgchlorin/01_opt/mgchlorin_opt_b3lypd4_tzvp.xyz
|  9> 
| 10>                          ****END OF INPUT****
================================================================================

                       ****************************
                       * Single Point Calculation *
                       ****************************

---------------------------------
CARTESIAN COORDINATES (ANGSTROEM)
---------------------------------
  N      1.617376    1.330383    0.004551
  N     -1.306529    1.580997    0.003644
  N      1.276091   -1.584198   -0.002271
  N     -1.612608   -1.304895   -0.003475
  C      2.875203    3.342362   -0.063685
  C      3.840630    2.159068    0.079915
  C      1.509656    2.684377   -0.016153
  C      2.922172    0.953296    0.027878
  C      0.336508    3.400638   -0.015219
  C      3.388460   -0.339731    0.025539
  C     -0.976132    2.896056   -0.002122
  C      2.630796   -1.524412    0.007627
  C     -2.686758    1.511059    0.009704
  C      0.930668   -2.922223   -0.012658
  C     -2.169427    3.701790    0.002039
  C      3.180636   -2.855093    0.001851
  C     -3.225855    2.843438    0.009928
  C      2.127735   -3.717737   -0.011279
  C     -3.426856    0.343504    0.009772
  C     -0.361658   -3.413010   -0.017853
  C     -2.938073   -0.969119    0.002267
  C     -1.549551   -2.670848   -0.012186
  C     -3.737889   -2.157029   -0.002719
  C     -2.873771   -3.216052   -0.012243
  H      3.004410    3.866805   -1.013495
  H      2.986016    4.085160    0.727134
  H      4.377829    2.179169    1.031116
  H      4.592202    2.120440   -0.709370
  H      0.429527    4.479453   -0.029677
  H      4.463992   -0.464803    0.042863
  H     -2.189602    4.780461   -0.001150
  H      4.233282   -3.091377    0.007587
  H     -4.277438    3.085144    0.014504
  H      2.153498   -4.796427   -0.018419
  H     -4.504247    0.454657    0.013550
  H     -0.468513   -4.490823   -0.024516
  H     -4.816548   -2.181344    0.000207
  H     -3.114006   -4.267872   -0.018337
  Mg    -0.018551   -0.004412    0.000625

----------------------------
CARTESIAN COORDINATES (A.U.)
----------------------------
  NO LB      ZA    FRAG     MASS         X           Y           Z
   0 N     7.0000    0    14.007    3.056398    2.514059    0.008600
   1 N     7.0000    0    14.007   -2.468981    2.987652    0.006887
   2 N     7.0000    0    14.007    2.411463   -2.993700   -0.004293
   3 N     7.0000    0    14.007   -3.047387   -2.465895   -0.006567
   4 C     6.0000    0    12.011    5.433346    6.316149   -0.120347
   5 C     6.0000    0    12.011    7.257738    4.080048    0.151018
   6 C     6.0000    0    12.011    2.852836    5.072737   -0.030524
   7 C     6.0000    0    12.011    5.522104    1.801468    0.052683
   8 C     6.0000    0    12.011    0.635908    6.426274   -0.028760
   9 C     6.0000    0    12.011    6.403262   -0.641999    0.048262
  10 C     6.0000    0    12.011   -1.844622    5.472752   -0.004009
  11 C     6.0000    0    12.011    4.971483   -2.880721    0.014414
  12 C     6.0000    0    12.011   -5.077236    2.855488    0.018338
  13 C     6.0000    0    12.011    1.758707   -5.522200   -0.023920
  14 C     6.0000    0    12.011   -4.099623    6.995369    0.003853
  15 C     6.0000    0    12.011    6.010530   -5.395343    0.003498
  16 C     6.0000    0    12.011   -6.095983    5.373319    0.018761
  17 C     6.0000    0    12.011    4.020836   -7.025504   -0.021315
  18 C     6.0000    0    12.011   -6.475819    0.649128    0.018466
  19 C     6.0000    0    12.011   -0.683435   -6.449655   -0.033738
  20 C     6.0000    0    12.011   -5.552153   -1.831369    0.004284
  21 C     6.0000    0    12.011   -2.928227   -5.047171   -0.023027
  22 C     6.0000    0    12.011   -7.063586   -4.076195   -0.005137
  23 C     6.0000    0    12.011   -5.430639   -6.077458   -0.023136
  24 H     1.0000    0     1.008    5.677511    7.307202   -1.915228
  25 H     1.0000    0     1.008    5.642753    7.719833    1.374085
  26 H     1.0000    0     1.008    8.272899    4.118034    1.948527
  27 H     1.0000    0     1.008    8.678005    4.007051   -1.340516
  28 H     1.0000    0     1.008    0.811688    8.464939   -0.056081
  29 H     1.0000    0     1.008    8.435723   -0.878351    0.081000
  30 H     1.0000    0     1.008   -4.137748    9.033761   -0.002174
  31 H     1.0000    0     1.008    7.999744   -5.841856    0.014337
  32 H     1.0000    0     1.008   -8.083187    5.830076    0.027408
  33 H     1.0000    0     1.008    4.069522   -9.063934   -0.034807
  34 H     1.0000    0     1.008   -8.511794    0.859178    0.025605
  35 H     1.0000    0     1.008   -0.885361   -8.486426   -0.046329
  36 H     1.0000    0     1.008   -9.101956   -4.122142    0.000392
  37 H     1.0000    0     1.008   -5.884618   -8.065109   -0.034653
  38 Mg   12.0000    0    24.305   -0.035057   -0.008338    0.001182

--------------------------------
INTERNAL COORDINATES (ANGSTROEM)
--------------------------------
 N      0   0   0     0.000000000000     0.00000000     0.00000000
 N      1   0   0     2.934625567277     0.00000000     0.00000000
 N      1   2   0     2.934502219461    88.22026361     0.00000000
 N      2   1   3     2.902087324163    91.15525092     0.00000000
 C      1   2   3     2.373783144973   117.10066924   178.00775617
 C      5   1   2     1.533901517256    71.15336793   175.74864028
 C      1   2   3     1.358430124362    80.55312792   178.98494255
 C      1   2   3     1.358392392334   168.73866091   354.91154939
 C      7   1   2     1.374520448020   125.94914713     0.55405638
 C      8   1   7     1.374536203187   125.94130379   181.39600351
 C      2   1   3     1.355940334932    80.79598169   180.38241652
 C      3   1   2     1.356059119169    80.79364978   180.38854817
 C      2   1   3     1.382013227933   172.19563123     2.11228019
 C      3   1   2     1.381931604181   172.19772945     2.18695519
 C     11   2   1     1.439853693466   109.92374504   180.32182958
 C     12   3   1     1.439815791155   109.92104971   180.32893451
 C     15  11   2     1.361202173100   106.87870823     0.00000000
 C     16  12   3     1.361222836597   106.87868208     0.00000000
 C     13   2  11     1.382364012124   125.27049495   179.64780351
 C     14   3  12     1.382391454942   125.27124228   179.65348396
 C      4   2   1     1.367346283750    81.83816516   179.76221527
 C      4   2   1     1.367434918034   171.29992091   358.49070100
 C     21   4   2     1.432083165488   109.73552966   179.80925939
 C     23  21   4     1.366865067502   106.83566180   359.97041685
 H      5   1   2     1.092645014934   119.63454595   281.07952700
 H      5   1   2     1.090606617469   127.60927975    70.55922818
 H      6   5   1     1.092598204440   112.13340192   244.83271966
 H      6   5   1     1.090562030620   113.16139441   123.71896896
 H      9   7   1     1.082914591440   116.47481442   179.76700295
 H     10   8   1     1.082918427081   116.45780824   179.78631778
 H     15  11   2     1.078863876263   125.09848097   180.00420488
 H     16  12   3     1.078854659017   125.09944828   180.00572083
 H     17  15  11     1.079013379288   127.96205293   180.02317060
 H     18  16  12     1.079022169130   127.96119491   180.02286464
 H     19  13   2     1.083116608289   116.47961750   180.08384249
 H     20  14   3     1.083117372845   116.45786284   180.08863448
 H     23  21   4     1.078936570721   125.24249032   179.99600471
 H     24  23  21     1.078923308856   127.92239530   180.01162826
 Mg     3   1   2     2.042506205857    46.01341093     0.00000000

---------------------------
INTERNAL COORDINATES (A.U.)
---------------------------
 N      0   0   0     0.000000000000     0.00000000     0.00000000
 N      1   0   0     5.545638627757     0.00000000     0.00000000
 N      1   2   0     5.545405534166    88.22026361     0.00000000
 N      2   1   3     5.484150259393    91.15525092     0.00000000
 C      1   2   3     4.485800045317   117.10066924   178.00775617
 C      5   1   2     2.898653784021    71.15336793   175.74864028
 C      1   2   3     2.567060907114    80.55312792   178.98494255
 C      1   2   3     2.566989603913   168.73866091   354.91154939
 C      7   1   2     2.597467212233   125.94914713     0.55405638
 C      8   1   7     2.597496985183   125.94130379   181.39600351
 C      2   1   3     2.562355886959    80.79598169   180.38241652
 C      3   1   2     2.562580356635    80.79364978   180.38854817
 C      2   1   3     2.611626514250   172.19563123     2.11228019
 C      3   1   2     2.611472267713   172.19772945     2.18695519
 C     11   2   1     2.720929153566   109.92374504   180.32182958
 C     12   3   1     2.720857528579   109.92104971   180.32893451
 C     15  11   2     2.572299320058   106.87870823     0.00000000
 C     16  12   3     2.572338368408   106.87868208     0.00000000
 C     13   2  11     2.612289400304   125.27049495   179.64780351
 C     14   3  12     2.612341259714   125.27124228   179.65348396
 C      4   2   1     2.583910006522    81.83816516   179.76221527
 C      4   2   1     2.584077501046   171.29992091   358.49070100
 C     21   4   2     2.706244983771   109.73552966   179.80925939
 C     23  21   4     2.583000639603   106.83566180   359.97041685
 H      5   1   2     2.064799839820   119.63454595   281.07952700
 H      5   1   2     2.060947826859   127.60927975    70.55922818
 H      6   5   1     2.064711380806   112.13340192   244.83271966
 H      6   5   1     2.060863569926   113.16139441   123.71896896
 H      9   7   1     2.046412004250   116.47481442   179.76700295
 H     10   8   1     2.046419252561   116.45780824   179.78631778
 H     15  11   2     2.038757261919   125.09848097   180.00420488
 H     16  12   3     2.038739843848   125.09944828   180.00572083
 H     17  15  11     2.039039781691   127.96205293   180.02317060
 H     18  16  12     2.039056392086   127.96119491   180.02286464
 H     19  13   2     2.046793760768   116.47961750   180.08384249
 H     20  14   3     2.046795205569   116.45786284   180.08863448
 H     23  21   4     2.038894634535   125.24249032   179.99600471
 H     24  23  21     2.038869573241   127.92239530   180.01162826
 Mg     3   1   2     3.859777355904    46.01341093     0.00000000

---------------------
BASIS SET INFORMATION
---------------------
There are 4 groups of distinct atoms

 Group   1 Type N   : 11s6p2d1f contracted to 5s3p2d1f pattern {62111/411/11/1}
 Group   2 Type C   : 11s6p2d1f contracted to 5s3p2d1f pattern {62111/411/11/1}
 Group   3 Type H   : 5s1p contracted to 3s1p pattern {311/1}
 Group   4 Type Mg  : 14s8p3d contracted to 5s4p3d pattern {73211/5111/111}

Atom   0N    basis set group =>   1
Atom   1N    basis set group =>   1
Atom   2N    basis set group =>   1
Atom   3N    basis set group =>   1
Atom   4C    basis set group =>   2
Atom   5C    basis set group =>   2
Atom   6C    basis set group =>   2
Atom   7C    basis set group =>   2
Atom   8C    basis set group =>   2
Atom   9C    basis set group =>   2
Atom  10C    basis set group =>   2
Atom  11C    basis set group =>   2
Atom  12C    basis set group =>   2
Atom  13C    basis set group =>   2
Atom  14C    basis set group =>   2
Atom  15C    basis set group =>   2
Atom  16C    basis set group =>   2
Atom  17C    basis set group =>   2
Atom  18C    basis set group =>   2
Atom  19C    basis set group =>   2
Atom  20C    basis set group =>   2
Atom  21C    basis set group =>   2
Atom  22C    basis set group =>   2
Atom  23C    basis set group =>   2
Atom  24H    basis set group =>   3
Atom  25H    basis set group =>   3
Atom  26H    basis set group =>   3
Atom  27H    basis set group =>   3
Atom  28H    basis set group =>   3
Atom  29H    basis set group =>   3
Atom  30H    basis set group =>   3
Atom  31H    basis set group =>   3
Atom  32H    basis set group =>   3
Atom  33H    basis set group =>   3
Atom  34H    basis set group =>   3
Atom  35H    basis set group =>   3
Atom  36H    basis set group =>   3
Atom  37H    basis set group =>   3
Atom  38Mg   basis set group =>   4
---------------------------------
AUXILIARY/J BASIS SET INFORMATION
---------------------------------
There are 4 groups of distinct atoms

 Group   1 Type N   : 12s5p4d2f1g contracted to 6s4p3d1f1g pattern {711111/2111/211/2/1}
 Group   2 Type C   : 12s5p4d2f1g contracted to 6s4p3d1f1g pattern {711111/2111/211/2/1}
 Group   3 Type H   : 5s2p1d contracted to 3s1p1d pattern {311/2/1}
 Group   4 Type Mg  : 14s5p5d2f1g contracted to 8s4p4d1f1g pattern {71111111/2111/2111/2/1}

Atom   0N    basis set group =>   1
Atom   1N    basis set group =>   1
Atom   2N    basis set group =>   1
Atom   3N    basis set group =>   1
Atom   4C    basis set group =>   2
Atom   5C    basis set group =>   2
Atom   6C    basis set group =>   2
Atom   7C    basis set group =>   2
Atom   8C    basis set group =>   2
Atom   9C    basis set group =>   2
Atom  10C    basis set group =>   2
Atom  11C    basis set group =>   2
Atom  12C    basis set group =>   2
Atom  13C    basis set group =>   2
Atom  14C    basis set group =>   2
Atom  15C    basis set group =>   2
Atom  16C    basis set group =>   2
Atom  17C    basis set group =>   2
Atom  18C    basis set group =>   2
Atom  19C    basis set group =>   2
Atom  20C    basis set group =>   2
Atom  21C    basis set group =>   2
Atom  22C    basis set group =>   2
Atom  23C    basis set group =>   2
Atom  24H    basis set group =>   3
Atom  25H    basis set group =>   3
Atom  26H    basis set group =>   3
Atom  27H    basis set group =>   3
Atom  28H    basis set group =>   3
Atom  29H    basis set group =>   3
Atom  30H    basis set group =>   3
Atom  31H    basis set group =>   3
Atom  32H    basis set group =>   3
Atom  33H    basis set group =>   3
Atom  34H    basis set group =>   3
Atom  35H    basis set group =>   3
Atom  36H    basis set group =>   3
Atom  37H    basis set group =>   3
Atom  38Mg   basis set group =>   4


           ************************************************************
           *        Program running with 4 parallel MPI-processes     *
           *              working on a common directory               *
           ************************************************************
------------------------------------------------------------------------------
                             ORCA STARTUP CALCULATIONS
                           -- RI-GTO INTEGRALS CHOSEN --
------------------------------------------------------------------------------
------------------------------------------------------------------------------
                   ___                                                        
                  /   \      - P O W E R E D   B Y -                         
                 /     \                                                     
                 |  |  |   _    _      __       _____    __    __             
                 |  |  |  | |  | |    /  \     |  _  \  |  |  /  |          
                  \  \/   | |  | |   /    \    | | | |  |  | /  /          
                 / \  \   | |__| |  /  /\  \   | |_| |  |  |/  /          
                |  |  |   |  __  | /  /__\  \  |    /   |      \           
                |  |  |   | |  | | |   __   |  |    \   |  |\   \          
                \     /   | |  | | |  |  |  |  | |\  \  |  | \   \       
                 \___/    |_|  |_| |__|  |__|  |_| \__\ |__|  \__/        
                                                                              
                      - O R C A' S   B I G   F R I E N D -                    
                                      &                                       
                       - I N T E G R A L  F E E D E R -                       
                                                                              
 v1 FN, 2020, v2 2021, v3 2022-2024                                           
------------------------------------------------------------------------------


----------------------
SHARK INTEGRAL PACKAGE
----------------------

Number of atoms                             ...     39
Number of basis functions                   ...    860
Number of shells                            ...    332
Maximum angular momentum                    ...      3
Integral batch strategy                     ... SHARK/LIBINT Hybrid
RI-J (if used) integral strategy            ... SPLIT-RIJ (Revised 2003 algorithm where possible)
Printlevel                                  ...      1
Contraction scheme used                     ... SEGMENTED contraction
Prescreening option                         ... SCHWARTZ
   Thresh                                   ... 2.500e-11
   Tcut                                     ... 2.500e-12
   Tpresel                                  ... 2.500e-12 
Coulomb Range Separation                    ... NOT USED
Exchange Range Separation                   ... NOT USED
Multipole approximations                    ... NOT USED
Finite Nucleus Model                        ... NOT USED
CABS basis                                  ... NOT available
Auxiliary Coulomb fitting basis             ... AVAILABLE
   # of basis functions in Aux-J            ...   1386
   # of shells in Aux-J                     ...    448
   Maximum angular momentum in Aux-J        ...      4
Auxiliary J/K fitting basis                 ... NOT available
Auxiliary Correlation fitting basis         ... NOT available
Auxiliary 'external' fitting basis          ... NOT available

Checking pre-screening integrals            ... done (  0.0 sec) Dimension = 332
   => SHARK Basis and OBASIS are compatible. Storing Pre-screening
Shell pair information
Shell pair cut-off parameter TPreSel        ...   2.5e-12
Total number of shell pairs                 ...     55278
Shell pairs after pre-screening             ...     38985
Total number of primitive shell pairs       ...    174360
Primitive shell pairs kept                  ...     80636
          la=0 lb=0:   9326 shell pairs
          la=1 lb=0:  11131 shell pairs
          la=1 lb=1:   3288 shell pairs
          la=2 lb=0:   5767 shell pairs
          la=2 lb=1:   3529 shell pairs
          la=2 lb=2:    978 shell pairs
          la=3 lb=0:   2472 shell pairs
          la=3 lb=1:   1540 shell pairs
          la=3 lb=2:    784 shell pairs
          la=3 lb=3:    170 shell pairs

Checking whether 4 symmetric matrices of dimension 860 fit in memory
:Max Core in MB      =   3000.00
 MB in use           =     50.97
 MB left             =   2949.03
 MB needed           =     11.30
 Data fit in memory  = YES
Calculating RI/J V-Matrix + Cholesky decomp.... done (  0.2 sec)
Calculating Nuclear repulsion               ... done (  0.0 sec) ENN=   2155.857692955848 Eh

Diagonalization of the overlap matrix:
Smallest eigenvalue                        ... 1.000e-05
Time for diagonalization                   ...    0.206 sec
Threshold for overlap eigenvalues          ... 1.000e-07
Number of eigenvalues below threshold      ... 0
Time for construction of square roots      ...    0.109 sec
Total time needed                          ...    0.323 sec

-------------------
DFT GRID GENERATION
-------------------

General Integration Accuracy     IntAcc      ... 4.959
Radial Grid Type                 RadialGrid  ... OptM3 with GC (2021)
Angular Grid (max. ang.)         AngularGrid ... 6 (Lebedev-590)
Angular grid pruning method      GridPruning ... 4 (adaptive)
Weight generation scheme         WeightScheme... mBecke (2022)
Basis function cutoff            BFCut       ... 1.0000e-11
Integration weight cutoff        WCut        ... 1.0000e-14
Partially contracted basis set               ... off
Rotationally invariant grid construction     ... off
Angular grids for H and He will be reduced by one unit

Total number of grid points                  ...   473102
Total number of batches                      ...     7410
Average number of points per batch           ...       63
Average number of grid points per atom       ...    12131
Grids setup in   8.8 sec
Initializing property integral containers    ... done (  0.0 sec)

SHARK setup successfully completed in  10.2 seconds

Maximum memory used throughout the entire STARTUP-calculation: 154.4 MB


           ************************************************************
           *        Program running with 4 parallel MPI-processes     *
           *              working on a common directory               *
           ************************************************************
-------------------------------------------------------------------------------
                                 ORCA GUESS
                   Start orbitals & Density for SCF / CASSCF
-------------------------------------------------------------------------------

------------
SCF SETTINGS
------------
Hamiltonian:
 Density Functional     Method          .... DFT(GTOs)
 Exchange Functional    Exchange        .... TPSS
 Correlation Functional Correlation     .... TPSS
 LDA part of GGA corr.  LDAOpt          .... PW91-LDA
 Gradients option       PostSCFGGA      .... off
   NL short-range parameter             ....  5.000000
 RI-approximation to the Coulomb term is turned on
   Number of AuxJ basis functions       .... 1386


General Settings:
 Integral files         IntName         .... tddft
 Hartree-Fock type      HFTyp           .... RHF
 Total Charge           Charge          ....    0
 Multiplicity           Mult            ....    1
 Number of Electrons    NEL             ....  174
 Basis Dimension        Dim             ....  860
 Nuclear Repulsion      ENuc            ....   2155.8576929558 Eh

Convergence Acceleration:
 AO-DIIS                CNVDIIS         .... on
   Start iteration      DIISMaxIt       ....    12
   Startup error        DIISStart       ....  0.200000
   # of expansion vecs  DIISMaxEq       ....     5
   Bias factor          DIISBfac        ....   1.050
   Max. coefficient     DIISMaxC        ....  10.000
 MO-DIIS                CNVKDIIS        .... off
 Trust-Rad. Augm. Hess. CNVTRAH         .... auto
   Auto Start mean grad. ratio tolernc. ....  1.125000
   Auto Start start iteration           ....    50
   Auto Start num. interpolation iter.  ....    10
   Max. Number of Micro iterations      ....    24
   Max. Number of Macro iterations      .... Maxiter - #DIIS iter
   Number of Davidson start vectors     ....     2
   Converg. threshold    (grad. norm)   ....   1.000e-05
   Grad. Scal. Fac. for Micro threshold ....   0.100
   Minimum threshold for Micro iter.    ....   1.000e-02
   NR start threshold (gradient norm)   ....   1.000e-04
   Initial trust radius                 ....   0.400
   Minimum AH scaling param. (alpha)    ....   1.000
   Maximum AH scaling param. (alpha)    .... 1000.000
   Quad. conv. algorithm                .... NR
   White noise on init. David. guess    .... on
   Maximum white noise                  ....   0.010
   Pseudo random numbers                .... off
   Inactive MOs                         .... canonical
   Orbital update algorithm             .... Taylor
   Preconditioner                       .... Diag
   Full preconditioner red. dimension   ....   250
 SOSCF                 CNVSOSCF           .... on
   Start iteration     SOSCFMaxIt         ....   150
   Startup grad/error  SOSCFStart         ....  0.003300
   Hessian update      SOSCFHessUp        .... L-BFGS
   Autom. constraints  SOSCFAutoConstrain .... off
 Level Shifting         CNVShift        .... on
   Level shift para.    LevelShift      ....    0.2500
   Turn off err/grad.   ShiftErr        ....    0.0010
 Zerner damping         CNVZerner       .... off
 Static damping         CNVDamp         .... on
   Fraction old density DampFac         ....    0.7000
   Max. Damping (<1)    DampMax         ....    0.9800
   Min. Damping (>=0)   DampMin         ....    0.0000
   Turn off err/grad.   DampErr         ....    0.1000

SCF Procedure:
 Maximum # iterations   MaxIter         ....   125
 SCF integral mode      SCFMode         .... Direct
   Integral package                     .... SHARK and LIBINT hybrid scheme
 Reset frequency        DirectResetFreq ....    20
 Integral Threshold     Thresh          ....  2.500e-11 Eh
 Primitive CutOff       TCut            ....  2.500e-12 Eh

Convergence Tolerance:
 Convergence Check Mode ConvCheckMode   .... Total+1el-Energy
 Convergence forced     ConvForced      .... 1
 Energy Change          TolE            ....  1.000e-08 Eh
 1-El. energy change                    ....  1.000e-05 Eh
 Orbital Gradient       TolG            ....  1.000e-05
 Orbital Rotation angle TolX            ....  1.000e-05
 DIIS Error             TolErr          ....  5.000e-07

------------------------------
INITIAL GUESS: MODEL POTENTIAL
------------------------------
Loading Hartree-Fock densities                     ... done
Calculating cut-offs                               ... done
Initializing the effective Hamiltonian             ... done
Setting up the integral package (SHARK)            ... done
Starting the Coulomb interaction                   ... done (   1.7 sec)
Making the grid                                    ... done (   0.6 sec)
Mapping shells                                     ... done
Starting the XC term evaluation                    ... done (   0.9 sec)
  promolecular density results
     # of electrons  =    173.997675708
     EX              =   -148.716356810
     EC              =     -5.920044363
     EX+EC           =   -154.636401173
Transforming the Hamiltonian                       ... done (   0.1 sec)
Diagonalizing the Hamiltonian                      ... done (   0.2 sec)
Back transforming the eigenvectors                 ... done (   0.1 sec)
Now organizing SCF variables                       ... done
                      ------------------
                      INITIAL GUESS DONE (   3.6 sec)
                      ------------------
             **** ENERGY FILE WAS UPDATED (tddft.en.tmp) ****
Finished Guess after   4.0 sec
Maximum memory used throughout the entire GUESS-calculation: 86.1 MB


           ************************************************************
           *        Program running with 4 parallel MPI-processes     *
           *              working on a common directory               *
           ************************************************************

-------------------------------------------------------------------------------------------
                                      ORCA LEAN-SCF
                              memory conserving SCF solver
-------------------------------------------------------------------------------------------

----------------------------------------D-I-I-S--------------------------------------------
Iteration    Energy (Eh)           Delta-E    RMSDP     MaxDP     DIISErr   Damp  Time(sec)
-------------------------------------------------------------------------------------------
               ***  Starting incremental Fock matrix formation  ***
    1    -1189.8317355672274971     0.00e+00  1.94e-03  4.51e-02  2.15e-01  0.700  17.5
Warning: op=0 Small HOMO/LUMO gap (   0.071) - skipping pre-diagonalization
         Will do a full diagonalization
    2    -1190.0826831600761579    -2.51e-01  1.71e-03  3.70e-02  8.67e-02  0.700  16.5
                               ***Turning on AO-DIIS***
    3    -1190.1765967946603269    -9.39e-02  9.55e-04  1.81e-02  3.01e-02  0.700  17.3
    4    -1190.2318033431811273    -5.52e-02  1.82e-03  3.95e-02  1.41e-02  0.000  16.4
    5    -1190.3539620678766369    -1.22e-01  4.73e-04  1.99e-02  5.99e-03  0.000  16.9
                              *** Initializing SOSCF ***
---------------------------------------S-O-S-C-F--------------------------------------
Iteration    Energy (Eh)           Delta-E    RMSDP     MaxDP     MaxGrad    Time(sec)
--------------------------------------------------------------------------------------
    6    -1190.3550663048454226    -1.10e-03  2.40e-04  8.89e-03  1.20e-03    16.4
               *** Restarting incremental Fock matrix formation ***
    7    -1190.3551432359990940    -7.69e-05  1.66e-04  8.22e-03  5.39e-04    21.1
    8    -1190.3551222314663391     2.10e-05  5.46e-05  1.29e-03  1.33e-03    14.4
    9    -1190.3551677714558537    -4.55e-05  5.10e-05  1.88e-03  4.32e-04    14.3
   10    -1190.3551639934462401     3.78e-06  1.16e-05  4.65e-04  4.13e-04    13.6
   11    -1190.3551708621789658    -6.87e-06  1.98e-05  6.53e-04  1.05e-04    13.2
   12    -1190.3551701303367736     7.32e-07  7.77e-06  2.38e-04  1.35e-04    13.1
   13    -1190.3551714088371227    -1.28e-06  6.72e-06  2.18e-04  2.18e-05    13.2
   14    -1190.3551713832193855     2.56e-08  3.73e-06  9.79e-05  2.55e-05    12.3
   15    -1190.3551714061336497    -2.29e-08  6.27e-06  1.86e-04  5.37e-06    11.6
   16    -1190.3551714283657930    -2.22e-08  2.52e-06  7.19e-05  8.61e-06    11.3
   17    -1190.3551714374284529    -9.06e-09  6.30e-06  2.08e-04  1.88e-06    11.3
                 **** Energy Check signals convergence ****

               *****************************************************
               *                     SUCCESS                       *
               *           SCF CONVERGED AFTER  17 CYCLES          *
               *****************************************************

             **** ENERGY FILE WAS UPDATED (tddft.en.tmp) ****

----------------
TOTAL SCF ENERGY
----------------

Total Energy       :      -1190.35517142427898 Eh          -32391.21095 eV

Components:
Nuclear Repulsion  :       2155.85769295584805 Eh           58663.87024 eV
Electronic Energy  :      -3346.21286438012703 Eh          -91055.08119 eV
One Electron Energy:      -5908.87164080354705 Eh         -160788.57168 eV
Two Electron Energy:       2562.65877642342002 Eh           69733.49049 eV

Virial components:
Potential Energy   :      -2375.96046095941938 Eh          -64653.17105 eV
Kinetic Energy     :       1185.60528953514040 Eh           32261.96009 eV
Virial Ratio       :          2.00400629276123

DFT components:
N(Alpha)           :       86.999987443283 electrons
N(Beta)            :       86.999987443283 electrons
N(Total)           :      173.999974886567 electrons
E(X)               :     -152.773595583966 Eh       
E(C)               :       -5.936158687060 Eh       
E(XC)              :     -158.709754271025 Eh       

---------------
SCF CONVERGENCE
---------------

  Last Energy change         ...    9.0627e-09  Tolerance :   1.0000e-08
  Last MAX-Density change    ...    2.0808e-04  Tolerance :   1.0000e-07
  Last RMS-Density change    ...    6.3020e-06  Tolerance :   5.0000e-09
  Last DIIS Error            ...    1.1984e-03  Tolerance :   5.0000e-07
  Last Orbital Gradient      ...    1.8845e-06  Tolerance :   1.0000e-05
  Last Orbital Rotation      ...    9.2294e-06  Tolerance :   1.0000e-05


----------------
ORBITAL ENERGIES
----------------

  NO   OCC          E(Eh)            E(eV) 
   0   2.0000     -46.385602     -1262.2164 
   1   2.0000     -14.108815      -383.9204 
   2   2.0000     -14.083556      -383.2330 
   3   2.0000     -14.083552      -383.2329 
   4   2.0000     -14.082424      -383.2022 
   5   2.0000     -10.025673      -272.8124 
   6   2.0000     -10.025659      -272.8121 
   7   2.0000     -10.014950      -272.5206 
   8   2.0000     -10.014938      -272.5203 
   9   2.0000     -10.009603      -272.3752 
  10   2.0000     -10.009592      -272.3748 
  11   2.0000     -10.008582      -272.3474 
  12   2.0000     -10.008566      -272.3469 
  13   2.0000      -9.998823      -272.0818 
  14   2.0000      -9.998712      -272.0788 
  15   2.0000      -9.990957      -271.8678 
  16   2.0000      -9.990951      -271.8676 
  17   2.0000      -9.981943      -271.6225 
  18   2.0000      -9.981935      -271.6223 
  19   2.0000      -9.981634      -271.6141 
  20   2.0000      -9.981630      -271.6140 
  21   2.0000      -9.979198      -271.5478 
  22   2.0000      -9.979196      -271.5477 
  23   2.0000      -9.977809      -271.5100 
  24   2.0000      -9.977311      -271.4964 
  25   2.0000      -2.918954       -79.4288 
  26   2.0000      -1.684448       -45.8362 
  27   2.0000      -1.677344       -45.6428 
  28   2.0000      -1.676746       -45.6266 
  29   2.0000      -0.895708       -24.3735 
  30   2.0000      -0.885764       -24.1029 
  31   2.0000      -0.883122       -24.0310 
  32   2.0000      -0.874889       -23.8069 
  33   2.0000      -0.752920       -20.4880 
  34   2.0000      -0.728877       -19.8338 
  35   2.0000      -0.724962       -19.7272 
  36   2.0000      -0.720948       -19.6180 
  37   2.0000      -0.704354       -19.1665 
  38   2.0000      -0.702199       -19.1078 
  39   2.0000      -0.697396       -18.9771 
  40   2.0000      -0.678807       -18.4713 
  41   2.0000      -0.658933       -17.9305 
  42   2.0000      -0.605027       -16.4636 
  43   2.0000      -0.597807       -16.2672 
  44   2.0000      -0.562710       -15.3121 
  45   2.0000      -0.530793       -14.4436 
  46   2.0000      -0.520968       -14.1763 
  47   2.0000      -0.519215       -14.1286 
  48   2.0000      -0.518533       -14.1100 
  49   2.0000      -0.501760       -13.6536 
  50   2.0000      -0.486594       -13.2409 
  51   2.0000      -0.472608       -12.8603 
  52   2.0000      -0.468701       -12.7540 
  53   2.0000      -0.456985       -12.4352 
  54   2.0000      -0.452772       -12.3206 
  55   2.0000      -0.444516       -12.0959 
  56   2.0000      -0.440640       -11.9904 
  57   2.0000      -0.400424       -10.8961 
  58   2.0000      -0.391590       -10.6557 
  59   2.0000      -0.379705       -10.3323 
  60   2.0000      -0.377150       -10.2628 
  61   2.0000      -0.373111       -10.1529 
  62   2.0000      -0.371566       -10.1108 
  63   2.0000      -0.365132        -9.9357 
  64   2.0000      -0.365005        -9.9323 
  65   2.0000      -0.358667        -9.7598 
  66   2.0000      -0.348161        -9.4739 
  67   2.0000      -0.347400        -9.4532 
  68   2.0000      -0.343928        -9.3588 
  69   2.0000      -0.331927        -9.0322 
  70   2.0000      -0.331482        -9.0201 
  71   2.0000      -0.328713        -8.9447 
  72   2.0000      -0.325655        -8.8615 
  73   2.0000      -0.323318        -8.7979 
  74   2.0000      -0.319132        -8.6840 
  75   2.0000      -0.317811        -8.6481 
  76   2.0000      -0.283424        -7.7124 
  77   2.0000      -0.272350        -7.4110 
  78   2.0000      -0.271759        -7.3949 
  79   2.0000      -0.248764        -6.7692 
  80   2.0000      -0.245262        -6.6739 
  81   2.0000      -0.241018        -6.5584 
  82   2.0000      -0.224594        -6.1115 
  83   2.0000      -0.216428        -5.8893 
  84   2.0000      -0.213262        -5.8032 
  85   2.0000      -0.177476        -4.8294 
  86   2.0000      -0.168835        -4.5942 
  87   0.0000      -0.102109        -2.7785 
  88   0.0000      -0.083036        -2.2595 
  89   0.0000      -0.024907        -0.6777 
  90   0.0000      -0.004390        -0.1195 
  91   0.0000      -0.000487        -0.0133 
  92   0.0000       0.019740         0.5371 
  93   0.0000       0.027183         0.7397 
  94   0.0000       0.028905         0.7866 
  95   0.0000       0.039963         1.0874 
  96   0.0000       0.043075         1.1721 
  97   0.0000       0.048050         1.3075 
*Only the first 10 virtual orbitals were printed.

                    ********************************
                    * MULLIKEN POPULATION ANALYSIS *
                    ********************************

-----------------------
MULLIKEN ATOMIC CHARGES
-----------------------
   0 N :   -0.353194
   1 N :   -0.381228
   2 N :   -0.381184
   3 N :   -0.374995
   4 C :   -0.114074
   5 C :   -0.113650
   6 C :    0.228606
   7 C :    0.228417
   8 C :   -0.469125
   9 C :   -0.469064
  10 C :    0.393574
  11 C :    0.393467
  12 C :    0.384196
  13 C :    0.384154
  14 C :   -0.197838
  15 C :   -0.197823
  16 C :   -0.201096
  17 C :   -0.201020
  18 C :   -0.468811
  19 C :   -0.468775
  20 C :    0.386596
  21 C :    0.386615
  22 C :   -0.200402
  23 C :   -0.200498
  24 H :    0.091349
  25 H :    0.102007
  26 H :    0.091316
  27 H :    0.101989
  28 H :    0.088860
  29 H :    0.088882
  30 H :    0.092430
  31 H :    0.092408
  32 H :    0.093995
  33 H :    0.093973
  34 H :    0.091605
  35 H :    0.091616
  36 H :    0.092712
  37 H :    0.092728
  38 Mg:    0.701283
Sum of atomic charges:    0.0000000

--------------------------------
MULLIKEN REDUCED ORBITAL CHARGES
--------------------------------
  0 N s       :     3.676970  s :     3.676970
      pz      :     1.280112  p :     3.613407
      px      :     1.192942
      py      :     1.140353
      dz2     :     0.003967  d :     0.059123
      dxz     :     0.009248
      dyz     :     0.011246
      dx2y2   :     0.017374
      dxy     :     0.017288
      f0      :     0.000654  f :     0.003694
      f+1     :     0.000299
      f-1     :     0.000327
      f+2     :     0.000551
      f-2     :     0.000116
      f+3     :     0.000980
      f-3     :     0.000767

  1 N s       :     3.662797  s :     3.662797
      pz      :     1.361481  p :     3.657426
      px      :     1.129542
      py      :     1.166403
      dz2     :     0.004143  d :     0.057275
      dxz     :     0.010306
      dyz     :     0.009106
      dx2y2   :     0.017073
      dxy     :     0.016647
      f0      :     0.000671  f :     0.003730
      f+1     :     0.000377
      f-1     :     0.000340
      f+2     :     0.000605
      f-2     :     0.000095
      f+3     :     0.000755
      f-3     :     0.000889

  2 N s       :     3.662811  s :     3.662811
      pz      :     1.361489  p :     3.657369
      px      :     1.121669
      py      :     1.174211
      dz2     :     0.004145  d :     0.057273
      dxz     :     0.010804
      dyz     :     0.008607
      dx2y2   :     0.016775
      dxy     :     0.016943
      f0      :     0.000671  f :     0.003730
      f+1     :     0.000362
      f-1     :     0.000355
      f+2     :     0.000599
      f-2     :     0.000101
      f+3     :     0.000709
      f-3     :     0.000935

  3 N s       :     3.663718  s :     3.663718
      pz      :     1.345860  p :     3.649239
      px      :     1.174044
      py      :     1.129335
      dz2     :     0.004173  d :     0.058287
      dxz     :     0.009171
      dyz     :     0.010952
      dx2y2   :     0.017145
      dxy     :     0.016846
      f0      :     0.000666  f :     0.003750
      f+1     :     0.000344
      f-1     :     0.000365
      f+2     :     0.000630
      f-2     :     0.000097
      f+3     :     0.000914
      f-3     :     0.000735

  4 C s       :     3.072205  s :     3.072205
      pz      :     1.029891  p :     2.947068
      px      :     0.907664
      py      :     1.009512
      dz2     :     0.005462  d :     0.088003
      dxz     :     0.018220
      dyz     :     0.020577
      dx2y2   :     0.025826
      dxy     :     0.017917
      f0      :     0.000706  f :     0.006799
      f+1     :     0.000346
      f-1     :     0.001310
      f+2     :     0.000691
      f-2     :     0.000886
      f+3     :     0.001433
      f-3     :     0.001428

  5 C s       :     3.071917  s :     3.071917
      pz      :     1.029846  p :     2.946966
      px      :     1.007120
      py      :     0.910000
      dz2     :     0.005491  d :     0.087969
      dxz     :     0.020334
      dyz     :     0.018406
      dx2y2   :     0.025912
      dxy     :     0.017826
      f0      :     0.000709  f :     0.006798
      f+1     :     0.001333
      f-1     :     0.000319
      f+2     :     0.000659
      f-2     :     0.000917
      f+3     :     0.001178
      f-3     :     0.001682

  6 C s       :     3.127914  s :     3.127914
      pz      :     0.900670  p :     2.464882
      px      :     0.855010
      py      :     0.709203
      dz2     :     0.003661  d :     0.164277
      dxz     :     0.027799
      dyz     :     0.035989
      dx2y2   :     0.043469
      dxy     :     0.053359
      f0      :     0.001902  f :     0.014320
      f+1     :     0.000718
      f-1     :     0.001071
      f+2     :     0.001728
      f-2     :     0.001198
      f+3     :     0.005300
      f-3     :     0.002403

  7 C s       :     3.127959  s :     3.127959
      pz      :     0.900635  p :     2.465038
      px      :     0.729100
      py      :     0.835303
      dz2     :     0.003682  d :     0.164267
      dxz     :     0.031863
      dyz     :     0.031905
      dx2y2   :     0.045134
      dxy     :     0.051683
      f0      :     0.001901  f :     0.014319
      f+1     :     0.001072
      f-1     :     0.000719
      f+2     :     0.001500
      f-2     :     0.001426
      f+3     :     0.003625
      f-3     :     0.004077

  8 C s       :     3.417211  s :     3.417211
      pz      :     1.076536  p :     2.967048
      px      :     0.942580
      py      :     0.947932
      dz2     :     0.002441  d :     0.077067
      dxz     :     0.025459
      dyz     :     0.003570
      dx2y2   :     0.035811
      dxy     :     0.009786
      f0      :     0.001417  f :     0.007798
      f+1     :     0.000630
      f-1     :     0.000783
      f+2     :     0.000503
      f-2     :     0.000870
      f+3     :     0.002250
      f-3     :     0.001345

  9 C s       :     3.417188  s :     3.417188
      pz      :     1.076473  p :     2.966996
      px      :     0.944288
      py      :     0.946235
      dz2     :     0.002444  d :     0.077083
      dxz     :     0.003612
      dyz     :     0.025418
      dx2y2   :     0.036274
      dxy     :     0.009335
      f0      :     0.001417  f :     0.007798
      f+1     :     0.000788
      f-1     :     0.000625
      f+2     :     0.000532
      f-2     :     0.000842
      f+3     :     0.001451
      f-3     :     0.002143

 10 C s       :     3.075598  s :     3.075598
      pz      :     0.893333  p :     2.346945
      px      :     0.752063
      py      :     0.701548
      dz2     :     0.004424  d :     0.168986
      dxz     :     0.034074
      dyz     :     0.035570
      dx2y2   :     0.043444
      dxy     :     0.051474
      f0      :     0.002101  f :     0.014898
      f+1     :     0.000828
      f-1     :     0.001070
      f+2     :     0.001964
      f-2     :     0.001201
      f+3     :     0.004385
      f-3     :     0.003349

 11 C s       :     3.075711  s :     3.075711
      pz      :     0.893335  p :     2.346961
      px      :     0.697238
      py      :     0.756387
      dz2     :     0.004428  d :     0.168965
      dxz     :     0.037534
      dyz     :     0.032095
      dx2y2   :     0.040728
      dxy     :     0.054179
      f0      :     0.002101  f :     0.014896
      f+1     :     0.001112
      f-1     :     0.000787
      f+2     :     0.002429
      f-2     :     0.000736
      f+3     :     0.002391
      f-3     :     0.005340

 12 C s       :     3.060929  s :     3.060929
      pz      :     0.930651  p :     2.375468
      px      :     0.690127
      py      :     0.754690
      dz2     :     0.005156  d :     0.164749
      dxz     :     0.035810
      dyz     :     0.030155
      dx2y2   :     0.040941
      dxy     :     0.052687
      f0      :     0.002119  f :     0.014658
      f+1     :     0.001108
      f-1     :     0.000771
      f+2     :     0.002354
      f-2     :     0.000667
      f+3     :     0.002371
      f-3     :     0.005267

 13 C s       :     3.060985  s :     3.060985
      pz      :     0.930630  p :     2.375446
      px      :     0.745949
      py      :     0.698867
      dz2     :     0.005162  d :     0.164756
      dxz     :     0.031777
      dyz     :     0.034187
      dx2y2   :     0.043130
      dxy     :     0.050500
      f0      :     0.002119  f :     0.014659
      f+1     :     0.000805
      f-1     :     0.001075
      f+2     :     0.001857
      f-2     :     0.001165
      f+3     :     0.004352
      f-3     :     0.003287

 14 C s       :     3.285742  s :     3.285742
      pz      :     1.015563  p :     2.818084
      px      :     0.928075
      py      :     0.874446
      dz2     :     0.005127  d :     0.085875
      dxz     :     0.021030
      dyz     :     0.007455
      dx2y2   :     0.034741
      dxy     :     0.017523
      f0      :     0.001431  f :     0.008136
      f+1     :     0.000462
      f-1     :     0.000938
      f+2     :     0.000101
      f-2     :     0.001375
      f+3     :     0.002330
      f-3     :     0.001498

 15 C s       :     3.285804  s :     3.285804
      pz      :     1.015562  p :     2.818011
      px      :     0.883037
      py      :     0.919411
      dz2     :     0.005127  d :     0.085872
      dxz     :     0.008744
      dyz     :     0.019742
      dx2y2   :     0.033479
      dxy     :     0.018779
      f0      :     0.001431  f :     0.008137
      f+1     :     0.000890
      f-1     :     0.000511
      f+2     :     0.000430
      f-2     :     0.001047
      f+3     :     0.002038
      f-3     :     0.001790

 16 C s       :     3.295934  s :     3.295934
      pz      :     0.994025  p :     2.810193
      px      :     0.891245
      py      :     0.924924
      dz2     :     0.004957  d :     0.086813
      dxz     :     0.008976
      dyz     :     0.021735
      dx2y2   :     0.032384
      dxy     :     0.018762
      f0      :     0.001410  f :     0.008157
      f+1     :     0.000875
      f-1     :     0.000503
      f+2     :     0.000498
      f-2     :     0.001041
      f+3     :     0.002055
      f-3     :     0.001774

 17 C s       :     3.295937  s :     3.295937
      pz      :     0.994038  p :     2.810113
      px      :     0.932300
      py      :     0.883774
      dz2     :     0.004961  d :     0.086813
      dxz     :     0.023341
      dyz     :     0.007368
      dx2y2   :     0.033722
      dxy     :     0.017421
      f0      :     0.001410  f :     0.008157
      f+1     :     0.000455
      f-1     :     0.000924
      f+2     :     0.000123
      f-2     :     0.001417
      f+3     :     0.002326
      f-3     :     0.001503

 18 C s       :     3.459834  s :     3.459834
      pz      :     0.999415  p :     2.916172
      px      :     0.954254
      py      :     0.962503
      dz2     :     0.002689  d :     0.085168
      dxz     :     0.003369
      dyz     :     0.030303
      dx2y2   :     0.038253
      dxy     :     0.010553
      f0      :     0.001319  f :     0.007637
      f+1     :     0.000735
      f-1     :     0.000582
      f+2     :     0.000505
      f-2     :     0.000861
      f+3     :     0.001409
      f-3     :     0.002226

 19 C s       :     3.459771  s :     3.459771
      pz      :     0.999402  p :     2.916197
      px      :     0.962427
      py      :     0.954368
      dz2     :     0.002688  d :     0.085169
      dxz     :     0.030278
      dyz     :     0.003396
      dx2y2   :     0.037953
      dxy     :     0.010853
      f0      :     0.001319  f :     0.007637
      f+1     :     0.000577
      f-1     :     0.000740
      f+2     :     0.000519
      f-2     :     0.000847
      f+3     :     0.002225
      f-3     :     0.001410

 20 C s       :     3.061975  s :     3.061975
      pz      :     0.926524  p :     2.371639
      px      :     0.704103
      py      :     0.741013
      dz2     :     0.004895  d :     0.164987
      dxz     :     0.034387
      dyz     :     0.031505
      dx2y2   :     0.043074
      dxy     :     0.051126
      f0      :     0.002129  f :     0.014803
      f+1     :     0.001070
      f-1     :     0.000831
      f+2     :     0.001869
      f-2     :     0.001184
      f+3     :     0.003346
      f-3     :     0.004374

 21 C s       :     3.061847  s :     3.061847
      pz      :     0.926556  p :     2.371749
      px      :     0.749142
      py      :     0.696051
      dz2     :     0.004893  d :     0.164986
      dxz     :     0.030376
      dyz     :     0.035514
      dx2y2   :     0.040241
      dxy     :     0.053962
      f0      :     0.002129  f :     0.014802
      f+1     :     0.000789
      f-1     :     0.001112
      f+2     :     0.002383
      f-2     :     0.000669
      f+3     :     0.005341
      f-3     :     0.002378

 22 C s       :     3.288985  s :     3.288985
      pz      :     1.008615  p :     2.816907
      px      :     0.878016
      py      :     0.930276
      dz2     :     0.005044  d :     0.086318
      dxz     :     0.007376
      dyz     :     0.022535
      dx2y2   :     0.034082
      dxy     :     0.017281
      f0      :     0.001425  f :     0.008192
      f+1     :     0.000941
      f-1     :     0.000461
      f+2     :     0.000109
      f-2     :     0.001432
      f+3     :     0.001492
      f-3     :     0.002331

 23 C s       :     3.289015  s :     3.289015
      pz      :     1.008597  p :     2.816972
      px      :     0.922257
      py      :     0.886118
      dz2     :     0.005041  d :     0.086320
      dxz     :     0.021105
      dyz     :     0.008809
      dx2y2   :     0.032584
      dxy     :     0.018780
      f0      :     0.001425  f :     0.008192
      f+1     :     0.000507
      f-1     :     0.000895
      f+2     :     0.000470
      f-2     :     0.001071
      f+3     :     0.001805
      f-3     :     0.002018

 24 H s       :     0.888204  s :     0.888204
      pz      :     0.009291  p :     0.020447
      px      :     0.004638
      py      :     0.006518

 25 H s       :     0.877714  s :     0.877714
      pz      :     0.007600  p :     0.020279
      px      :     0.004618
      py      :     0.008060

 26 H s       :     0.888236  s :     0.888236
      pz      :     0.009307  p :     0.020448
      px      :     0.006645
      py      :     0.004496

 27 H s       :     0.877731  s :     0.877731
      pz      :     0.007587  p :     0.020280
      px      :     0.008174
      py      :     0.004520

 28 H s       :     0.890486  s :     0.890486
      pz      :     0.005651  p :     0.020655
      px      :     0.003610
      py      :     0.011395

 29 H s       :     0.890464  s :     0.890464
      pz      :     0.005651  p :     0.020655
      px      :     0.011351
      py      :     0.003653

 30 H s       :     0.887422  s :     0.887422
      pz      :     0.004993  p :     0.020148
      px      :     0.003699
      py      :     0.011456

 31 H s       :     0.887443  s :     0.887443
      pz      :     0.004993  p :     0.020149
      px      :     0.011039
      py      :     0.004117

 32 H s       :     0.885914  s :     0.885914
      pz      :     0.004856  p :     0.020091
      px      :     0.011077
      py      :     0.004158

 33 H s       :     0.885937  s :     0.885937
      pz      :     0.004856  p :     0.020090
      px      :     0.003725
      py      :     0.011510

 34 H s       :     0.887963  s :     0.887963
      pz      :     0.005175  p :     0.020432
      px      :     0.011596
      py      :     0.003662

 35 H s       :     0.887952  s :     0.887952
      pz      :     0.005175  p :     0.020432
      px      :     0.003648
      py      :     0.011609

 36 H s       :     0.887162  s :     0.887162
      pz      :     0.004957  p :     0.020126
      px      :     0.011456
      py      :     0.003713

 37 H s       :     0.887145  s :     0.887145
      pz      :     0.004957  p :     0.020126
      px      :     0.004138
      py      :     0.011032

 38 Mgs       :     4.548361  s :     4.548361
      pz      :     2.089856  p :     6.468181
      px      :     2.187922
      py      :     2.190403
      dz2     :     0.030233  d :     0.282175
      dxz     :     0.028363
      dyz     :     0.030023
      dx2y2   :     0.032597
      dxy     :     0.160959



                     *******************************
                     * LOEWDIN POPULATION ANALYSIS *
                     *******************************

----------------------
LOEWDIN ATOMIC CHARGES
----------------------
   0 N :    0.198393
   1 N :    0.174237
   2 N :    0.174221
   3 N :    0.181210
   4 C :   -0.191439
   5 C :   -0.191388
   6 C :   -0.195978
   7 C :   -0.195982
   8 C :   -0.120948
   9 C :   -0.120948
  10 C :   -0.198834
  11 C :   -0.198751
  12 C :   -0.200164
  13 C :   -0.200235
  14 C :   -0.117486
  15 C :   -0.117493
  16 C :   -0.109409
  17 C :   -0.109414
  18 C :   -0.074391
  19 C :   -0.074378
  20 C :   -0.203839
  21 C :   -0.203784
  22 C :   -0.116386
  23 C :   -0.116385
  24 H :    0.143684
  25 H :    0.141181
  26 H :    0.143674
  27 H :    0.141178
  28 H :    0.154551
  29 H :    0.154549
  30 H :    0.134991
  31 H :    0.134992
  32 H :    0.136470
  33 H :    0.136469
  34 H :    0.156693
  35 H :    0.156693
  36 H :    0.135274
  37 H :    0.135275
  38 Mg:    0.323898

-------------------------------
LOEWDIN REDUCED ORBITAL CHARGES
-------------------------------
  0 N s       :     2.984863  s :     2.984863
      pz      :     1.128247  p :     3.587628
      px      :     1.252188
      py      :     1.207193
      dz2     :     0.016296  d :     0.210544
      dxz     :     0.024590
      dyz     :     0.031855
      dx2y2   :     0.073364
      dxy     :     0.064439
      f0      :     0.001193  f :     0.018572
      f+1     :     0.001185
      f-1     :     0.001393
      f+2     :     0.003291
      f-2     :     0.000440
      f+3     :     0.006487
      f-3     :     0.004584

  1 N s       :     2.982420  s :     2.982420
      pz      :     1.198010  p :     3.623169
      px      :     1.183493
      py      :     1.241666
      dz2     :     0.016194  d :     0.201631
      dxz     :     0.030234
      dyz     :     0.024379
      dx2y2   :     0.069355
      dxy     :     0.061469
      f0      :     0.001181  f :     0.018543
      f+1     :     0.001359
      f-1     :     0.001245
      f+2     :     0.003570
      f-2     :     0.000311
      f+3     :     0.004758
      f-3     :     0.006118

  2 N s       :     2.982424  s :     2.982424
      pz      :     1.198031  p :     3.623188
      px      :     1.197864
      py      :     1.227293
      dz2     :     0.016197  d :     0.201626
      dxz     :     0.030588
      dyz     :     0.024027
      dx2y2   :     0.068448
      dxy     :     0.062366
      f0      :     0.001181  f :     0.018541
      f+1     :     0.001428
      f-1     :     0.001177
      f+2     :     0.003530
      f-2     :     0.000351
      f+3     :     0.004504
      f-3     :     0.006371

  3 N s       :     2.983437  s :     2.983437
      pz      :     1.185679  p :     3.613159
      px      :     1.235644
      py      :     1.191836
      dz2     :     0.016241  d :     0.203479
      dxz     :     0.024960
      dyz     :     0.031545
      dx2y2   :     0.068929
      dxy     :     0.061804
      f0      :     0.001169  f :     0.018716
      f+1     :     0.001205
      f-1     :     0.001387
      f+2     :     0.003704
      f-2     :     0.000322
      f+3     :     0.006274
      f-3     :     0.004654

  4 C s       :     2.768768  s :     2.768768
      pz      :     1.027496  p :     3.011664
      px      :     0.986261
      py      :     0.997907
      dz2     :     0.042676  d :     0.369678
      dxz     :     0.050692
      dyz     :     0.097378
      dx2y2   :     0.092988
      dxy     :     0.085944
      f0      :     0.004104  f :     0.041329
      f+1     :     0.003424
      f-1     :     0.004523
      f+2     :     0.004845
      f-2     :     0.005321
      f+3     :     0.009297
      f-3     :     0.009814

  5 C s       :     2.768776  s :     2.768776
      pz      :     1.027489  p :     3.011674
      px      :     0.997044
      py      :     0.987141
      dz2     :     0.042828  d :     0.369613
      dxz     :     0.097755
      dyz     :     0.050106
      dx2y2   :     0.088487
      dxy     :     0.090437
      f0      :     0.004118  f :     0.041325
      f+1     :     0.004548
      f-1     :     0.003380
      f+2     :     0.004761
      f-2     :     0.005414
      f+3     :     0.007643
      f-3     :     0.011461

  6 C s       :     2.715660  s :     2.715660
      pz      :     0.829552  p :     2.772917
      px      :     1.006919
      py      :     0.936446
      dz2     :     0.042576  d :     0.630467
      dxz     :     0.083021
      dyz     :     0.108852
      dx2y2   :     0.194656
      dxy     :     0.201362
      f0      :     0.005071  f :     0.076934
      f+1     :     0.004190
      f-1     :     0.006412
      f+2     :     0.011026
      f-2     :     0.006554
      f+3     :     0.030118
      f-3     :     0.013563

  7 C s       :     2.715674  s :     2.715674
      pz      :     0.829597  p :     2.772922
      px      :     0.929849
      py      :     1.013477
      dz2     :     0.042611  d :     0.630451
      dxz     :     0.097523
      dyz     :     0.094321
      dx2y2   :     0.192178
      dxy     :     0.203818
      f0      :     0.005071  f :     0.076934
      f+1     :     0.006097
      f-1     :     0.004511
      f+2     :     0.010110
      f-2     :     0.007470
      f+3     :     0.020588
      f-3     :     0.023088

  8 C s       :     2.749630  s :     2.749630
      pz      :     0.951486  p :     2.959783
      px      :     1.026296
      py      :     0.982001
      dz2     :     0.025308  d :     0.370753
      dxz     :     0.077993
      dyz     :     0.011638
      dx2y2   :     0.157945
      dxy     :     0.097869
      f0      :     0.003271  f :     0.040782
      f+1     :     0.004753
      f-1     :     0.003212
      f+2     :     0.002164
      f-2     :     0.005983
      f+3     :     0.012294
      f-3     :     0.009105

  9 C s       :     2.749645  s :     2.749645
      pz      :     0.951476  p :     2.959778
      px      :     0.979763
      py      :     1.028539
      dz2     :     0.025310  d :     0.370746
      dxz     :     0.011780
      dyz     :     0.077869
      dx2y2   :     0.155469
      dxy     :     0.100318
      f0      :     0.003271  f :     0.040780
      f+1     :     0.003191
      f-1     :     0.004773
      f+2     :     0.002299
      f-2     :     0.005850
      f+3     :     0.009206
      f-3     :     0.012190

 10 C s       :     2.700783  s :     2.700783
      pz      :     0.827640  p :     2.768862
      px      :     1.002407
      py      :     0.938816
      dz2     :     0.043748  d :     0.648456
      dxz     :     0.091086
      dyz     :     0.114697
      dx2y2   :     0.197427
      dxy     :     0.201498
      f0      :     0.004873  f :     0.080732
      f+1     :     0.004688
      f-1     :     0.006158
      f+2     :     0.012421
      f-2     :     0.007813
      f+3     :     0.025952
      f-3     :     0.018826

 11 C s       :     2.700802  s :     2.700802
      pz      :     0.827686  p :     2.768860
      px      :     0.937898
      py      :     1.003275
      dz2     :     0.043756  d :     0.648372
      dxz     :     0.119228
      dyz     :     0.086527
      dx2y2   :     0.193013
      dxy     :     0.205848
      f0      :     0.004872  f :     0.080717
      f+1     :     0.006425
      f-1     :     0.004422
      f+2     :     0.014837
      f-2     :     0.005396
      f+3     :     0.013702
      f-3     :     0.031064

 12 C s       :     2.699046  s :     2.699046
      pz      :     0.856795  p :     2.788875
      px      :     0.921763
      py      :     1.010316
      dz2     :     0.043578  d :     0.633463
      dxz     :     0.113729
      dyz     :     0.080735
      dx2y2   :     0.197077
      dxy     :     0.198344
      f0      :     0.004881  f :     0.078780
      f+1     :     0.006347
      f-1     :     0.004577
      f+2     :     0.013992
      f-2     :     0.004812
      f+3     :     0.013904
      f-3     :     0.030267

 13 C s       :     2.699032  s :     2.699032
      pz      :     0.856781  p :     2.788893
      px      :     1.010763
      py      :     0.921349
      dz2     :     0.043587  d :     0.633519
      dxz     :     0.084183
      dyz     :     0.110304
      dx2y2   :     0.197800
      dxy     :     0.197645
      f0      :     0.004881  f :     0.078791
      f+1     :     0.004863
      f-1     :     0.006062
      f+2     :     0.011332
      f-2     :     0.007476
      f+3     :     0.025635
      f-3     :     0.018541

 14 C s       :     2.765547  s :     2.765547
      pz      :     0.915678  p :     2.931333
      px      :     1.024666
      py      :     0.990988
      dz2     :     0.027501  d :     0.373480
      dxz     :     0.068735
      dyz     :     0.018481
      dx2y2   :     0.153866
      dxy     :     0.104897
      f0      :     0.003076  f :     0.047126
      f+1     :     0.003779
      f-1     :     0.004022
      f+2     :     0.000555
      f-2     :     0.009190
      f+3     :     0.016943
      f-3     :     0.009561

 15 C s       :     2.765542  s :     2.765542
      pz      :     0.915687  p :     2.931339
      px      :     1.003285
      py      :     1.012368
      dz2     :     0.027506  d :     0.373485
      dxz     :     0.022361
      dyz     :     0.064866
      dx2y2   :     0.153244
      dxy     :     0.105508
      f0      :     0.003077  f :     0.047127
      f+1     :     0.004057
      f-1     :     0.003745
      f+2     :     0.002380
      f-2     :     0.007367
      f+3     :     0.014273
      f-3     :     0.012230

 16 C s       :     2.765519  s :     2.765519
      pz      :     0.897786  p :     2.917078
      px      :     1.004075
      py      :     1.015218
      dz2     :     0.027399  d :     0.379243
      dxz     :     0.022971
      dyz     :     0.070530
      dx2y2   :     0.152371
      dxy     :     0.105971
      f0      :     0.003049  f :     0.047569
      f+1     :     0.004041
      f-1     :     0.003720
      f+2     :     0.002705
      f-2     :     0.007532
      f+3     :     0.014419
      f-3     :     0.012103

 17 C s       :     2.765519  s :     2.765519
      pz      :     0.897805  p :     2.917080
      px      :     1.027335
      py      :     0.991940
      dz2     :     0.027404  d :     0.379246
      dxz     :     0.075162
      dyz     :     0.018347
      dx2y2   :     0.153556
      dxy     :     0.104778
      f0      :     0.003049  f :     0.047568
      f+1     :     0.003754
      f-1     :     0.004007
      f+2     :     0.000623
      f-2     :     0.009615
      f+3     :     0.016934
      f-3     :     0.009586

 18 C s       :     2.753646  s :     2.753646
      pz      :     0.884068  p :     2.901706
      px      :     0.986520
      py      :     1.031119
      dz2     :     0.024969  d :     0.378512
      dxz     :     0.011166
      dyz     :     0.088996
      dx2y2   :     0.155464
      dxy     :     0.097917
      f0      :     0.003172  f :     0.040526
      f+1     :     0.003166
      f-1     :     0.004570
      f+2     :     0.002185
      f-2     :     0.006227
      f+3     :     0.009016
      f-3     :     0.012190

 19 C s       :     2.753649  s :     2.753649
      pz      :     0.884062  p :     2.901696
      px      :     1.032702
      py      :     0.984932
      dz2     :     0.024966  d :     0.378508
      dxz     :     0.088922
      dyz     :     0.011245
      dx2y2   :     0.154579
      dxy     :     0.098796
      f0      :     0.003172  f :     0.040525
      f+1     :     0.004586
      f-1     :     0.003149
      f+2     :     0.002242
      f-2     :     0.006170
      f+3     :     0.012197
      f-3     :     0.009007

 20 C s       :     2.698934  s :     2.698934
      pz      :     0.852966  p :     2.788095
      px      :     0.930823
      py      :     1.004305
      dz2     :     0.043779  d :     0.636874
      dxz     :     0.111239
      dyz     :     0.083221
      dx2y2   :     0.199214
      dxy     :     0.199421
      f0      :     0.004912  f :     0.079936
      f+1     :     0.006126
      f-1     :     0.004806
      f+2     :     0.011626
      f-2     :     0.007692
      f+3     :     0.018872
      f-3     :     0.025902

 21 C s       :     2.698944  s :     2.698944
      pz      :     0.852991  p :     2.788093
      px      :     1.006050
      py      :     0.929052
      dz2     :     0.043778  d :     0.636821
      dxz     :     0.081115
      dyz     :     0.113326
      dx2y2   :     0.195071
      dxy     :     0.203532
      f0      :     0.004912  f :     0.079925
      f+1     :     0.004538
      f-1     :     0.006394
      f+2     :     0.014433
      f-2     :     0.004882
      f+3     :     0.030949
      f-3     :     0.013818

 22 C s       :     2.765059  s :     2.765059
      pz      :     0.909773  p :     2.926740
      px      :     0.990848
      py      :     1.026118
      dz2     :     0.027438  d :     0.377105
      dxz     :     0.018427
      dyz     :     0.073285
      dx2y2   :     0.153241
      dxy     :     0.104713
[...]
  0-1A  -> 23-1A    4.963768   40035.5   249.8   0.000641691   0.00528  -0.04170   0.05104  -0.03055
  0-1A  -> 24-1A    5.162809   41640.9   240.1   0.000014108   0.00011   0.00819   0.00666  -0.00036
  0-1A  -> 25-1A    5.171471   41710.7   239.7   0.000604297   0.00477  -0.00448   0.00573  -0.06868
  0-1A  -> 26-1A    5.208693   42010.9   238.0   0.001405166   0.01101   0.06652  -0.08111   0.00271
  0-1A  -> 27-1A    5.233976   42214.9   236.9   0.007688035   0.05996   0.18969   0.15483   0.00036
  0-1A  -> 28-1A    5.318893   42899.8   233.1   0.152302935   1.16877   0.68385  -0.83732  -0.00181
  0-1A  -> 29-1A    5.374981   43352.1   230.7   0.000460287   0.00350  -0.03989  -0.04364  -0.00004
  0-1A  -> 30-1A    5.379303   43387.0   230.5   0.058155681   0.44127  -0.42156   0.51333   0.00755

----------------------------------------------------------------------------------------------------
                     ABSORPTION SPECTRUM VIA TRANSITION VELOCITY DIPOLE MOMENTS    
----------------------------------------------------------------------------------------------------
     Transition      Energy     Energy  Wavelength fosc(P2)      P2        PX        PY        PZ   
                      (eV)      (cm-1)    (nm)                 (au**2)    (au)      (au)      (au)  
----------------------------------------------------------------------------------------------------
  0-1A  ->  1-1A    2.391091   19285.5   518.5   0.114041153   0.01503  -0.07752   0.09498  -0.00116
  0-1A  ->  2-1A    2.405912   19405.0   515.3   0.001039403   0.00014  -0.00906  -0.00747  -0.00003
  0-1A  ->  3-1A    3.236115   26101.0   383.1   0.001930049   0.00034   0.01454   0.01153   0.00003
  0-1A  ->  4-1A    3.243257   26158.6   382.3   0.009595100   0.00172  -0.02607   0.03217  -0.00070
  0-1A  ->  5-1A    3.466068   27955.7   357.7   0.001345099   0.00026  -0.01244  -0.01011  -0.00003
  0-1A  ->  6-1A    3.579639   28871.7   346.4   0.044213598   0.00872   0.05901  -0.07240   0.00058
  0-1A  ->  7-1A    3.775313   30450.0   328.4   0.000934177   0.00019  -0.00878   0.01084  -0.00004
  0-1A  ->  8-1A    3.834356   30926.2   323.4   0.009685560   0.00205  -0.03505  -0.02861  -0.00009
  0-1A  ->  9-1A    3.930247   31699.6   315.5   0.000001874   0.00000   0.00023  -0.00029   0.00052
  0-1A  -> 10-1A    3.981670   32114.3   311.4   0.015795845   0.00347  -0.04559  -0.03726  -0.00012
  0-1A  -> 11-1A    4.019169   32416.8   308.5   0.007184225   0.00159   0.02523  -0.03089   0.00102
  0-1A  -> 12-1A    4.225816   34083.5   293.4   0.014795802   0.00345  -0.03713   0.04546   0.00119
  0-1A  -> 13-1A    4.245440   34241.8   292.0   0.004610041   0.00108  -0.02540  -0.02083  -0.00009
  0-1A  -> 14-1A    4.415549   35613.8   280.8   0.004035956   0.00098  -0.02428  -0.01983  -0.00007
  0-1A  -> 15-1A    4.441663   35824.4   279.1   0.001139833   0.00028  -0.01057   0.01292  -0.00051
  0-1A  -> 16-1A    4.443546   35839.6   279.0   0.000281917   0.00007  -0.00639  -0.00531  -0.00001
  0-1A  -> 17-1A    4.572322   36878.3   271.2   0.000083398   0.00002   0.00355   0.00290  -0.00001
  0-1A  -> 18-1A    4.632896   37366.8   267.6   0.000000009   0.00000  -0.00000  -0.00000  -0.00005
  0-1A  -> 19-1A    4.676259   37716.6   265.1   0.004012938   0.00103   0.00026  -0.00022  -0.03216
  0-1A  -> 20-1A    4.703814   37938.8   263.6   0.000230309   0.00006   0.00598   0.00489  -0.00001
  0-1A  -> 21-1A    4.796347   38685.2   258.5   0.000130553   0.00003  -0.00366   0.00447   0.00107
  0-1A  -> 22-1A    4.837003   39013.1   256.3   0.003074888   0.00082  -0.01812   0.02217  -0.00026
  0-1A  -> 23-1A    4.963768   40035.5   249.8   0.000193231   0.00005  -0.00459   0.00564   0.00010
  0-1A  -> 24-1A    5.162809   41640.9   240.1   0.000000125   0.00000   0.00006   0.00005  -0.00017
  0-1A  -> 25-1A    5.171471   41710.7   239.7   0.003831963   0.00109   0.00023  -0.00018  -0.03305
  0-1A  -> 26-1A    5.208693   42010.9   238.0   0.002922134   0.00084  -0.01831   0.02241  -0.00125
  0-1A  -> 27-1A    5.233976   42214.9   236.9   0.004146148   0.00120  -0.02680  -0.02186  -0.00005
  0-1A  -> 28-1A    5.318893   42899.8   233.1   0.001773229   0.00052  -0.01444   0.01764  -0.00052
  0-1A  -> 29-1A    5.374981   43352.1   230.7   0.000130434   0.00004   0.00471   0.00406  -0.00000
  0-1A  -> 30-1A    5.379303   43387.0   230.5   0.000635073   0.00019   0.00872  -0.01058   0.00053

------------------------------------------------------------------------------------------
                     CD SPECTRUM VIA TRANSITION ELECTRIC DIPOLE MOMENTS    
------------------------------------------------------------------------------------------
     Transition      Energy     Energy  Wavelength    R        MX        MY        MZ   
                      (eV)      (cm-1)    (nm)   (1e40*cgs)   (au)      (au)      (au)  
------------------------------------------------------------------------------------------
  0-1A  ->  1-1A    2.391091   19285.5   518.5   -2.34624  -0.00608   0.00523   0.75449
  0-1A  ->  2-1A    2.405912   19405.0   515.3   -0.11240  -0.00107  -0.00088  -0.00051
  0-1A  ->  3-1A    3.236115   26101.0   383.1    0.16299  -0.00100  -0.00091   0.00113
  0-1A  ->  4-1A    3.243257   26158.6   382.3   -2.70979  -0.00465   0.00629  -0.18590
  0-1A  ->  5-1A    3.466068   27955.7   357.7    0.21847  -0.00058  -0.00049   0.00024
  0-1A  ->  6-1A    3.579639   28871.7   346.4  -17.36771   0.01058  -0.01198  -0.33484
  0-1A  ->  7-1A    3.775313   30450.0   328.4   -1.36182  -0.00356   0.00289   0.50658
  0-1A  ->  8-1A    3.834356   30926.2   323.4    0.02419  -0.00001   0.00006   0.00022
  0-1A  ->  9-1A    3.930247   31699.6   315.5   10.76678  -0.16363   0.20063  -0.00526
  0-1A  -> 10-1A    3.981670   32114.3   311.4   -2.97204  -0.00272  -0.00219  -0.00002
  0-1A  -> 11-1A    4.019169   32416.8   308.5   -0.44778  -0.00492   0.00654  -0.19495
  0-1A  -> 12-1A    4.225816   34083.5   293.4   -2.98777  -0.00225   0.00251   0.08536
  0-1A  -> 13-1A    4.245440   34241.8   292.0   -4.37307  -0.00254  -0.00201  -0.00012
  0-1A  -> 14-1A    4.415549   35613.8   280.8   46.81408   0.04392   0.03583   0.00005
  0-1A  -> 15-1A    4.441663   35824.4   279.1   -3.29884  -0.00532   0.00438   0.15424
  0-1A  -> 16-1A    4.443546   35839.6   279.0  -51.60196  -0.16749  -0.13662  -0.00124
  0-1A  -> 17-1A    4.572322   36878.3   271.2    0.25727  -0.00245  -0.00190  -0.00004
  0-1A  -> 18-1A    4.632896   37366.8   267.6    0.57479   0.03041   0.02488  -0.00008
  0-1A  -> 19-1A    4.676259   37716.6   265.1   -0.40867  -0.01479   0.01808  -0.01138
  0-1A  -> 20-1A    4.703814   37938.8   263.6    0.66225   0.00354   0.00294   0.00023
  0-1A  -> 21-1A    4.796347   38685.2   258.5    9.33448  -0.01452   0.01748   0.12645
  0-1A  -> 22-1A    4.837003   39013.1   256.3   -2.79643   0.00125  -0.00306   0.51363
  0-1A  -> 23-1A    4.963768   40035.5   249.8    6.88254  -0.00696   0.00710   0.49922
  0-1A  -> 24-1A    5.162809   41640.9   240.1    0.07918  -0.01248  -0.00988  -0.00006
  0-1A  -> 25-1A    5.171471   41710.7   239.7   -0.12478  -0.02723   0.03358   0.00072
  0-1A  -> 26-1A    5.208693   42010.9   238.0    0.29914  -0.00837   0.00955   0.25683
  0-1A  -> 27-1A    5.233976   42214.9   236.9    0.39230  -0.00261  -0.00218  -0.00001
  0-1A  -> 28-1A    5.318893   42899.8   233.1    0.51179  -0.00055   0.00127  -0.19436
  0-1A  -> 29-1A    5.374981   43352.1   230.7   -0.39684  -0.01137  -0.00890  -0.00355
  0-1A  -> 30-1A    5.379303   43387.0   230.5    3.04488   0.00748  -0.01032   0.26389

------------------------------------------------------------------------------------------
                     CD SPECTRUM VIA TRANSITION VELOCITY DIPOLE MOMENTS    
------------------------------------------------------------------------------------------
     Transition      Energy     Energy  Wavelength    R        MX        MY        MZ   
                      (eV)      (cm-1)    (nm)   (1e40*cgs)   (au)      (au)      (au)  
------------------------------------------------------------------------------------------
  0-1A  ->  1-1A    2.391091   19285.5   518.5    0.49874  -0.00608   0.00523   0.75449
  0-1A  ->  2-1A    2.405912   19405.0   515.3    0.08714  -0.00107  -0.00088  -0.00051
  0-1A  ->  3-1A    3.236115   26101.0   383.1   -0.09867  -0.00100  -0.00091   0.00113
  0-1A  ->  4-1A    3.243257   26158.6   382.3    1.79540  -0.00465   0.00629  -0.18590
  0-1A  ->  5-1A    3.466068   27955.7   357.7    0.04485  -0.00058  -0.00049   0.00024
  0-1A  ->  6-1A    3.579639   28871.7   346.4    4.64464   0.01058  -0.01198  -0.33484
  0-1A  ->  7-1A    3.775313   30450.0   328.4    0.13568  -0.00356   0.00289   0.50658
  0-1A  ->  8-1A    3.834356   30926.2   323.4   -0.00422  -0.00001   0.00006   0.00022
  0-1A  ->  9-1A    3.930247   31699.6   315.5   -0.31880  -0.16363   0.20063  -0.00526
  0-1A  -> 10-1A    3.981670   32114.3   311.4    0.66284  -0.00272  -0.00219  -0.00002
  0-1A  -> 11-1A    4.019169   32416.8   308.5   -1.67280  -0.00492   0.00654  -0.19495
  0-1A  -> 12-1A    4.225816   34083.5   293.4    0.90801  -0.00225   0.00251   0.08536
  0-1A  -> 13-1A    4.245440   34241.8   292.0    0.32174  -0.00254  -0.00201  -0.00012
  0-1A  -> 14-1A    4.415549   35613.8   280.8   -5.16191   0.04392   0.03583   0.00005
  0-1A  -> 15-1A    4.441663   35824.4   279.1    0.09653  -0.00532   0.00438   0.15424
  0-1A  -> 16-1A    4.443546   35839.6   279.0    5.18534  -0.16749  -0.13662  -0.00124
  0-1A  -> 17-1A    4.572322   36878.3   271.2   -0.03985  -0.00245  -0.00190  -0.00004
  0-1A  -> 18-1A    4.632896   37366.8   267.6   -0.00061   0.03041   0.02488  -0.00008
  0-1A  -> 19-1A    4.676259   37716.6   265.1    0.98237  -0.01479   0.01808  -0.01138
  0-1A  -> 20-1A    4.703814   37938.8   263.6    0.09702   0.00354   0.00294   0.00023
  0-1A  -> 21-1A    4.796347   38685.2   258.5    0.71351  -0.01452   0.01748   0.12645
  0-1A  -> 22-1A    4.837003   39013.1   256.3   -0.59067   0.00125  -0.00306   0.51363
  0-1A  -> 23-1A    4.963768   40035.5   249.8    0.31396  -0.00696   0.00710   0.49922
  0-1A  -> 24-1A    5.162809   41640.9   240.1   -0.00312  -0.01248  -0.00988  -0.00006
  0-1A  -> 25-1A    5.171471   41710.7   239.7   -0.09016  -0.02723   0.03358   0.00072
  0-1A  -> 26-1A    5.208693   42010.9   238.0    0.11251  -0.00837   0.00955   0.25683
  0-1A  -> 27-1A    5.233976   42214.9   236.9    0.28809  -0.00261  -0.00218  -0.00001
  0-1A  -> 28-1A    5.318893   42899.8   233.1    0.31481  -0.00055   0.00127  -0.19436
  0-1A  -> 29-1A    5.374981   43352.1   230.7   -0.21390  -0.01137  -0.00890  -0.00355
  0-1A  -> 30-1A    5.379303   43387.0   230.5    0.75117   0.00748  -0.01032   0.26389

Total run time:     1046.481 sec

           *** ORCA-CIS/TD-DFT FINISHED WITHOUT ERROR ***
-----------------------
CIS/TD-DFT TOTAL ENERGY
-----------------------

    E(SCF)  =  -1190.355171424 Eh
    DE(CIS) =      0.087870998 Eh (Root  1)
    ----------------------------- ---------
    E(tot)  =  -1190.267300427 Eh


Maximum memory used throughout the entire CIS-calculation: 1134.8 MB
=> NOW LEAVING ORCA_CIS

-------------------------   --------------------
FINAL SINGLE POINT ENERGY     -1190.267300426663
-------------------------   --------------------



           ************************************************************
           *        Program running with 4 parallel MPI-processes     *
           *              working on a common directory               *
           ************************************************************

------------------------------------------------------------------------------
                              ORCA PROPERTY CALCULATIONS
------------------------------------------------------------------------------

GBWName                                 ... tddft.gbw
Number of atoms                         ...     39
Number of basis functions               ...    860
Max core memory                         ...   3000 MB

Electric properties:
Dipole moment                           ... YES
Quadrupole moment                       ...  NO
Static polarizability (Dipole/Dipole)   ...  NO
Static polarizability (Dipole/Quad.)    ...  NO
Static polarizability (Quad./Quad.)     ...  NO
Static polarizability (Velocity)        ...  NO
Static hyperpolarizability              ...  NO

Atomic electric properties:
Dipole moment                           ...  NO
Quadrupole moment                       ...  NO
Static polarizability                   ...  NO

Choice of electric origin               ... Center of mass
Position of electric origin             ...     0.020726     0.037348     0.001110

General magnetic properties:
Magnetizability                         ...  NO

EPR properties:
g-Tensor (aka g-matrix)                 ...  NO
Zero-Field splitting spin-orbit         ...  NO
Zero-field splitting spin-spin          ...  NO
Hyperfine couplings                     ...  NO (   0 nuclei)
Quadrupole couplings                    ...  NO (   0 nuclei)
Contact density                         ...  NO (   0 nuclei)

NMR properties:
Chemical shifts                         ...  NO (   0 nuclei)
Spin-rotation constants                 ...  NO (   0 nuclei)
Spin-spin couplings                     ...  NO (   0 nuclei,    0 pairs)

Choice of magnetic origin               ... GIAO
Position of magnetic origin             ...     0.000000     0.000000     0.000000

Properties with geometric perturbations:
SCF Hessian                             ...  NO
IR spectrum                             ...  NO
VCD spectrum                            ...  NO
X-ray spectroscopy properties:
SCF XES/XAS/RIXS spectra                ...  NO

SCF SOC stabilization energy            ...  NO
Diagonal Born-Oppenheimer correction    ...  NO

-------------
DIPOLE MOMENT
-------------

Method             : SCF
Type of density    : Electron Density
Multiplicity       :   1
Irrep              :   0
Energy             : -1190.3551714242789785 Eh
Basis              : AO
                                X                 Y                 Z
Electronic contribution:     -5.659466898      -4.618914144      -0.011555750
Nuclear contribution   :      6.309094870       5.149182336       0.012909410
                        -----------------------------------------
Total Dipole Moment    :      0.649627972       0.530268191       0.001353659
                        -----------------------------------------
Magnitude (a.u.)       :      0.838571815
Magnitude (Debye)      :      2.131480163



--------------------
Rotational spectrum 
--------------------
 
Rotational constants in cm-1:             0.008906             0.008560             0.004372 
Rotational constants in MHz :           266.993354           256.633129           131.080005 

Dipole components along the rotational axes: 
x,y,z [a.u.] :     0.838572    -0.000379    -0.000198 
x,y,z [Debye]:     2.131480    -0.000964    -0.000502 

 

Dipole moment calculation done in   0.0 sec 

Maximum memory used throughout the entire PROP-calculation: 88.5 MB

--------------------------------
SUGGESTED CITATIONS FOR THIS RUN
--------------------------------

Below you find a list of papers that are relevant to this ORCA run
We neither can nor want to force you to cite these papers, but we appreciate if you do
You receive ORCA, which is the product of decades of hard work by many enthusiastic individuals, for free
The only thing we kindly ask in return is that you cite our papers,
We deeply appreciate it, if you show your appreciation for ORCA by not just citing the generic ORCA reference.

Please note that relegating all ORCA citations to the supporting information does *not* help us.
SI sections are not indexed - citations you put there will not count into any citation statistics
But we need these citations in order to attract the funding resources that allow us to do what we are doing

Therefore, if you are a happy ORCA user, please consider citing a few of the papers listed below in the main body of your paper

In addition to the list printed below, the program has created the file tddft.bibtex that contains the list in bibtex format
You can import this file easily into all common literature databanks and citation aid programs

It goes without saying that in many instances, there are alternative algorithms to achieve similar
results as the ones you have gotten from ORCA. It is, of course, also the case that in some instances
ORCA just re-implements algorithms worked out by others. We are fully aware of that and we are also
fully appreciative of our colleagues work. Hence this citation list should not be read as indicating
that the listed papers, which are focused on our own work, are the only ones worth citing. It simply
meant to make it easier for users to cite ORCA specific papers. It is not a substitute for doing your
own literature research and citing the relevant literature in a scientifically appropriate manner.

List of essential papers. We consider these as the minimum necessary citations

  1. Neese, F.
     Software update: the ORCA program system, version 6.0
     WIRES Comput. Molec. Sci. 2025 15(1), e70019
     doi.org/10.1002/wcms.70019

List of papers to cite with high priority. The work reported in these papers was absolutely
necessary for this run to complete.
Our perspective: the developers of density functionals and basis sets usually get cited in chemistry papers
Good! But without the algorithms to do something with them, the functionals or basis sets would not do anything.
Hence, in our opinion, the algorithm design and method developments papers are equally worthy of getting cited

  1. Neese, F.; Olbrich, G.
     Efficient use of the resolution of the identity approximation in time-dependent density functional calculations with hybrid density functionals
     Chem. Phys. Lett. 2002 362 , 170-178
     doi.org/10.1016/s0009-2614(02)01053-9
  2. Neese, F.
     An improvement of the resolution of the identity approximation for the formation of the Coulomb matrix
     J. Comp. Chem. 2003 24(14), 1740-1747
     doi.org/10.1002/jcc.10318
  3. Neese, F.
     The SHARK Integral Generation and Digestion System
     J. Comp. Chem. 2022 44(3), 381
     doi.org/10.1002/jcc.26942

List of suggested additional citations. These are papers that are important in the 'surrounding' of 
of this run, or papers that preceded the highly important papers. If you like your results we are grateful for a citation.

  1. Neese, F.
     The ORCA program system
     WIRES Comput. Molec. Sci. 2012 2(1), 73-78
     doi.org/10.1002/wcms.81
  2. Neese, F.
     Software update: the ORCA program system, version 4.0
     WIRES Comput. Molec. Sci. 2018 8(1), 1-6
     doi.org/10.1002/wcms.1327
  3. Neese, F.; Wennmohs, F.; Becker, U.; Riplinger, C.
     The ORCA quantum chemistry program package
     J. Chem. Phys. 2020 152(22), 224108
     doi.org/10.1063/5.0004608
  4. Neese, F.
     Software update: The ORCA program system—Version 5.0
     WIRES Comput. Molec. Sci. 2022 12(1), e1606
     doi.org/10.1002/wcms.1606

List of optional additional citations

  1. Neese, F.
     Approximate second-order SCF convergence for spin unrestricted wavefunctions
     Chem. Phys. Lett. 2000 325(1-3), 93-98
     doi.org/10.1016/s0009-2614(00)00662-x

Timings for individual modules:

Sum of individual times          ...     1325.625 sec (=  22.094 min)
Startup calculation              ...       10.487 sec (=   0.175 min)   0.8 %
SCF iterations                   ...      266.712 sec (=   4.445 min)  20.1 %
Property integrals               ...        0.974 sec (=   0.016 min)   0.1 %
Property calculations            ...        0.595 sec (=   0.010 min)   0.0 %
CIS module                       ...     1046.857 sec (=  17.448 min)  79.0 %
                             ****ORCA TERMINATED NORMALLY****
TOTAL RUN TIME: 0 days 0 hours 22 minutes 5 seconds 998 msec
