
                                 *****************
                                 * O   R   C   A *
                                 *****************

                                            #,                                       
                                            ###                                      
                                            ####                                     
                                            #####                                    
                                            ######                                   
                                           ########,                                 
                                     ,,################,,,,,                         
                               ,,#################################,,                 
                          ,,##########################################,,             
                       ,#########################################, ''#####,          
                    ,#############################################,,   '####,        
                  ,##################################################,,,,####,       
                ,###########''''           ''''###############################       
              ,#####''   ,,,,##########,,,,          '''####'''          '####       
            ,##' ,,,,###########################,,,                        '##       
           ' ,,###''''                  '''############,,,                           
         ,,##''                                '''############,,,,        ,,,,,,###''
      ,#''                                            '''#######################'''  
     '                                                          ''''####''''         
             ,#######,   #######,   ,#######,      ##                                
            ,#'     '#,  ##    ##  ,#'     '#,    #''#        ,####,    ,#,          
            ##       ##  ##   ,#'  ##            #'  '#       #'       ,# #          
            ##       ##  #######   ##           ,######,      #####,      #          
            '#,     ,#'  ##    ##  '#,     ,#' ,#      #,     #,   #      #          
             '#######'   ##     ##  '#######'  #'      '#     '####' #    #          



                #########################################################
                #                        -***-                          #
                #          Department of theory and spectroscopy        #
                #                                                       #
                #                      Frank Neese                      #
                #                                                       #
                #     Directorship, Architecture, Infrastructure        #
                #                    SHARK, DRIVERS                     #
                #        Core code/Algorithms in most modules           #
                #                                                       #
                #        Max Planck Institute fuer Kohlenforschung      #
                #                Kaiser Wilhelm Platz 1                 #
                #                 D-45470 Muelheim/Ruhr                 #
                #                      Germany                          #
                #                                                       #
                #                  All rights reserved                  #
                #                        -***-                          #
                #########################################################


                         Program Version 6.1.1  -  RELEASE   -
                                (GIT: $487d211c$)
                          ($2025-11-21 10:33:24 +0100$)


 With contributions from (in alphabetic order):
[Max-Planck-Institut fuer Kohlenforschung]                               
  Daniel Aravena         : Magnetic Suceptibility                        
  Michael Atanasov       : Ab Initio Ligand Field Theory (pilot matlab implementation)
  Alexander A. Auer      : GIAO ZORA, VPT2 properties, NMR spectrum      
  Ute Becker             : All parallelization in ORCA, NUMFREQ, NUMCALC 
  Giovanni Bistoni       : ED, misc. LED, open-shell LED, HFLD           
  Dmytro Bykov           : pre 5.0 version of the SCF Hessian            
  Marcos Casanova-Páez   : Triplet and SCS-CIS(D). UHF-(DLPNO)-IP/EA/STEOM-CCSD. UHF-CVS-IP/STEOM-CCSD   
  Vijay G. Chilkuri      : MRCI spin determinant printing, contributions to CSF-ICE 
  Pauline Colinet        : FMM embedding                                 
  Dipayan Datta          : RHF DLPNO-CCSD density                        
  Achintya Kumar Dutta   : EOM-CC, STEOM-CC                              
  Nicolas Foglia         : Exact transition moments, OPA infrastructure, MCD improvements    
  Dmitry Ganyushin       : Spin-Orbit,Spin-Spin,Magnetic field MRCI      
  Miquel Garcia-Rates    : C-PCM and meta-GGA Hessian, CCSD/C-PCM, Gaussian charge scheme 
  Tiago L. C. Gouveia    : GS-ROHF, GS-ROCIS                             
  Yang Guo               : DLPNO-NEVPT2, F12-NEVPT2, CIM, IAO-localization        
  Andreas Hansen         : Spin unrestricted coupled pair/coupled cluster methods 
  Ingolf Harden          : AUTO-CI MPn and infrastructure                
  Benjamin Helmich-Paris : MC-RPA, TRAH-(SCF,CASSCF), AVAS, COSX integrals, SCF dyn. polar., MC-PDFT, srDFT 
  Lee Huntington         : MR-EOM, pCC                                   
  Robert Izsak           : Overlap fitted RIJCOSX, COSX-SCS-MP3, EOM     
  Riya Kayal             : Wick's Theorem for AUTO-CI, AUTO-CI UHF-CCSDT 
  Emily Kempfer          : AUTO-CI RHF CISDT and CCSDT, approximate NEVPT4
  Christian Kollmar      : KDIIS, OOCD, Brueckner-CCSD(T), CCSD density, CASPT2, CASPT2-K, improved NEVPT2 
  Axel Koslowski         : Symmetry handling                             
  Simone Kossmann        : meta-GGA functionals, TD-DFT gradient, OOMP2, (MP2 Hessian; deprecated post 5.0) 
  Lucas Lang             : DCDCAS, Hyperfine gauge corrections, ICE-SOC+SSC
  Marvin Lechner         : AUTO-CI (C++ implementation), FIC-MRCC        
  Spencer Leger          : CASSCF response                               
  Dagmar Lenk            : GEPOL surface, SMD, ORCA-2-JSON               
  Dimitrios Liakos       : Extrapolation schemes; Compound Job, Property file
  Dimitrios Manganas     : Further ROCIS development; embedding schemes. LFT, Crystal Embedding 
  Dimitrios Pantazis     : SARC Basis sets                               
  Anastasios Papadopoulos: AUTO-CI, single reference methods and gradients 
  Taras Petrenko         : pre 6.0 DFT Hessian and TD-DFT gradient,  ECA, NRVS 
  Petra Pikulova         : Analytic Raman intensities                    
  Peter Pinski           : DLPNO-MP2, DLPNO-MP2 Gradient                 
  Shashank Vittal Rao    : ES-AILFT, MagRelax                            
  Christoph Reimann      : Effective Core Potentials                     
  Marius Retegan         : Local ZFS, SOC                                
  Christoph Riplinger    : Optimizer, TS searches, QM/MM, DLPNO-CCSD(T), (RO)-DLPNO pert. Triples 
  Michael Roemelt        : Original ROCIS implementation, recursive CI coupling coefficients
  Masaaki Saitow         : Open-shell DLPNO-CCSD energy and density      
  Barbara Sandhoefer     : DKH picture change effects                    
  Yorick L. A. Schmerwitz: GMF and freeze-and-release deltaSCF, NEB S-IDPP initial path                    
  Kantharuban Sivalingam : CASSCF convergence/infrastructure, NEVPT2, NEVPT3, NEVPT4(SD), FIC-MRCI and CEPA variants
  Bernardo de Souza      : ESD, SOC TD-DFT                               
  Georgi L. Stoychev     : AutoAux, RI-MP2 NMR, DLPNO-MP2 response, X2C  
  Van Anh Tran           : RI-MP2 g-tensors                              
  Willem Van den Heuvel  : Paramagnetic NMR                              
  Zikuan Wang            : NOTCH, Electric field optimization            
  Frank Wennmohs         : Technical directorship and infrastructure     
  Hang Xu                : AUTO-CI-Response properties                   
                                                                         
[FACCTs GmbH]                                                            
  Markus Bursch, Nicolas Foglia, Miquel Garcia-Rates, Ingolf Harden, Hagen Neugebauer, Anastasios Papadopoulos, 
  Christoph Riplinger, Bernardo de Souza, Georgi L. Stoychev                                                    
                                                                 
  APM, various basis sets, CI-OPT, improved COSX, DLPNO-Multilevel,           
  DOCKER, DRACO, updates on ESD, Fragmentator, GOAT, IRC, LR-CPCM, L-BFGS, MBIS, meta-GGA TD-DFT gradient, ML-optimized integration grids, 
  MM, NACMEs, nearIR, NEB, NEB-TS, NL-DFT gradient (VV10), 2- and 3-layer-ONIOM, interface openCOSMO-RS, QMMM,   
  Crystal-QMMM, RESP, rigid body optimization, SF, symmetry and pop. for TD-DFT, various functionals, SOLVATOR                                   
                                                                         
[Other institutions]                                                     
  V. Asgeirsson          : NEB                                           
  Christoph Bannwarth    : sTDA-DFT, sTD-DFT, PBEh-3c, B97-3c, D3        
  Giovanni Bistoni       : ETS/NOCV, ADLD/ADEX, COVALED                  
  Martin Brehm           : Molecular dynamics                            
  Ronald Cardenas        : ETS/NOCV                                      
  Martina Colucci        : COVALED                                       
  Sebastian Ehlert       : rSCAN, r2SCAN, r2SCAN-3c, D4, dhf basis sets  
  Marvin Friede          : D4 for Fr, Ra, Ac-Lr                          
  Lars Goerigk           : TD-DFT with DH, B97 family of functionals     
  Stefan Grimme          : VdW corrections, initial TS optimization, DFT functionals, gCP, sTDA/sTD-DF 
  Waldemar Hujo          : DFT-NL                                        
  H. Jonsson             : NEB                                           
  Holger Kruse           : gCP                                           
  Marcel Mueller         : wB97X-3c, vDZP basis set                      
  Hagen Neugebauer       : wr2SCAN, Native XTB                           
  Gianluca Regni         : ADLD/ADEX                                     
  Tobias Risthaus        : pre 6.0 range-separated hybrid DFT and stability analysis
  Lukas Wittmann         : regularized MP2, r2SCAN double-hybrids, wr2SCAN        
                                                                         
We gratefully acknowledge several colleagues who have allowed us to      
interface, adapt or use parts of their codes:                            
  Ed Valeev, F. Pavosevic, A. Kumar             : LibInt (2-el integral package), F12 methods 
  Garnet Chan, S. Sharma, J. Yang, R. Olivares  : DMRG                   
  Ulf Ekstrom                                   : XCFun DFT Library      
  Mihaly Kallay                                 : mrcc  (arbitrary order and MRCC methods)
  Frank Weinhold                                : gennbo (NPA and NBO analysis)           
  Simon Mueller                                 : openCOSMO-RS                            
  Christopher J. Cramer and Donald G. Truhlar   : smd solvation model                     
  S Lehtola, MJT Oliveira, MAL Marques          : LibXC Library                           
  Liviu Ungur et al                             : ANISO software                          


 Your calculation uses the libint2 library for the computation of 2-el integrals
 For citations please refer to: http://libint.valeyev.net

 Your ORCA version has been built with support for libXC version: 7.0.0
 For citations please refer to: https://libxc.gitlab.io

 This ORCA versions uses:
   CBLAS   interface :  Fast vector & matrix operations
   LAPACKE interface :  Fast linear algebra routines
   SCALAPACK package :  Parallel linear algebra routines
   Shared memory     :  Shared parallel matrices
   BLAS/LAPACK       :  OpenBLAS 0.3.29  USE64BITINT DYNAMIC_ARCH NO_AFFINITY Haswell SINGLE_THREADED
        Core in use  :  Haswell
   Copyright (c) 2011-2014, The OpenBLAS Project


  ***********************************
  * Starting time: Sun Jul  5 17:25:26 2026
  * Host name:     steezy
  * Process ID:    1277839
  * Working dir.:  /home/jannes/chlorophyll-ladder/007-mg-core-ladder/mgchlorin/02_tddft/wb97xd
  ***********************************

NOTE: MaxCore=3000 MB was set to SCF,MP2,MDCI,CIPSI,MRCI,RASCI and CIS
      => If you want to overwrite this, your respective input block should be placed after the MaxCore statement


***************************************
The coordinates will be read from file: /home/jannes/chlorophyll-ladder/007-mg-core-ladder/mgchlorin/01_opt/mgchlorin_opt_b3lypd4_tzvp.xyz
***************************************


Your calculation utilizes the atom-pairwise dispersion correction
with the zero-damping scheme (D30)


XCFun DFT library Copyright 2009-2010 Ulf Ekstrom and contributors.
See http://admol.org/xcfun for more information.
This is free software; see the source code for copying conditions.
There is ABSOLUTELY NO WARRANTY; not even for MERCHANTABILITY or FITNESS FOR A PARTICULAR PURPOSE.
For details see the documentation.
Scientific users of this library should cite U. Ekstrom, L. Visscher, R. Bast, A. J. Thorvaldsen and K. Ruud;
J.Chem.Theor.Comp. 2010, DOI: 10.1021/ct100117s
XCFun Version 0.99 

================================================================================

----- Orbital basis set information -----
Your calculation utilizes the basis: def2-TZVP
   F. Weigend and R. Ahlrichs, Phys. Chem. Chem. Phys. 7, 3297 (2005).

----- AuxJ basis set information -----
Your calculation utilizes the auxiliary basis: def2/J
   H-Rn: F. Weigend, Phys. Chem. Chem. Phys. 8, 1057 (2006).
   Fr-Lr: K. Eichkorn, F. Weigend, O. Treutler, R. Ahlrichs; Theor. Chem. Acc. 97, 119 (1997).

================================================================================
                                        WARNINGS
                       Please study these warnings very carefully!
================================================================================


WARNING: CIS/ROCIS methods need fully converged wavefunctions
  ===> : Setting SCFConvForced true
         You can overwrite this default with %scf ConvForced false 


================================================================================
                                       INPUT FILE
================================================================================
NAME = tddft.inp
|  1> %pal nprocs 4 end
|  2> %maxcore 3000
|  3> ! wB97X-D3 def2-TZVP def2/J RIJCOSX DefGrid3 TightSCF
|  4> %tddft
|  5>   nroots 30
|  6>   triplets false
|  7> end
|  8> * xyzfile 0 1 /home/jannes/chlorophyll-ladder/007-mg-core-ladder/mgchlorin/01_opt/mgchlorin_opt_b3lypd4_tzvp.xyz
|  9> 
| 10>                          ****END OF INPUT****
================================================================================

                       ****************************
                       * Single Point Calculation *
                       ****************************

---------------------------------
CARTESIAN COORDINATES (ANGSTROEM)
---------------------------------
  N      1.617376    1.330383    0.004551
  N     -1.306529    1.580997    0.003644
  N      1.276091   -1.584198   -0.002271
  N     -1.612608   -1.304895   -0.003475
  C      2.875203    3.342362   -0.063685
  C      3.840630    2.159068    0.079915
  C      1.509656    2.684377   -0.016153
  C      2.922172    0.953296    0.027878
  C      0.336508    3.400638   -0.015219
  C      3.388460   -0.339731    0.025539
  C     -0.976132    2.896056   -0.002122
  C      2.630796   -1.524412    0.007627
  C     -2.686758    1.511059    0.009704
  C      0.930668   -2.922223   -0.012658
  C     -2.169427    3.701790    0.002039
  C      3.180636   -2.855093    0.001851
  C     -3.225855    2.843438    0.009928
  C      2.127735   -3.717737   -0.011279
  C     -3.426856    0.343504    0.009772
  C     -0.361658   -3.413010   -0.017853
  C     -2.938073   -0.969119    0.002267
  C     -1.549551   -2.670848   -0.012186
  C     -3.737889   -2.157029   -0.002719
  C     -2.873771   -3.216052   -0.012243
  H      3.004410    3.866805   -1.013495
  H      2.986016    4.085160    0.727134
  H      4.377829    2.179169    1.031116
  H      4.592202    2.120440   -0.709370
  H      0.429527    4.479453   -0.029677
  H      4.463992   -0.464803    0.042863
  H     -2.189602    4.780461   -0.001150
  H      4.233282   -3.091377    0.007587
  H     -4.277438    3.085144    0.014504
  H      2.153498   -4.796427   -0.018419
  H     -4.504247    0.454657    0.013550
  H     -0.468513   -4.490823   -0.024516
  H     -4.816548   -2.181344    0.000207
  H     -3.114006   -4.267872   -0.018337
  Mg    -0.018551   -0.004412    0.000625

----------------------------
CARTESIAN COORDINATES (A.U.)
----------------------------
  NO LB      ZA    FRAG     MASS         X           Y           Z
   0 N     7.0000    0    14.007    3.056398    2.514059    0.008600
   1 N     7.0000    0    14.007   -2.468981    2.987652    0.006887
   2 N     7.0000    0    14.007    2.411463   -2.993700   -0.004293
   3 N     7.0000    0    14.007   -3.047387   -2.465895   -0.006567
   4 C     6.0000    0    12.011    5.433346    6.316149   -0.120347
   5 C     6.0000    0    12.011    7.257738    4.080048    0.151018
   6 C     6.0000    0    12.011    2.852836    5.072737   -0.030524
   7 C     6.0000    0    12.011    5.522104    1.801468    0.052683
   8 C     6.0000    0    12.011    0.635908    6.426274   -0.028760
   9 C     6.0000    0    12.011    6.403262   -0.641999    0.048262
  10 C     6.0000    0    12.011   -1.844622    5.472752   -0.004009
  11 C     6.0000    0    12.011    4.971483   -2.880721    0.014414
  12 C     6.0000    0    12.011   -5.077236    2.855488    0.018338
  13 C     6.0000    0    12.011    1.758707   -5.522200   -0.023920
  14 C     6.0000    0    12.011   -4.099623    6.995369    0.003853
  15 C     6.0000    0    12.011    6.010530   -5.395343    0.003498
  16 C     6.0000    0    12.011   -6.095983    5.373319    0.018761
  17 C     6.0000    0    12.011    4.020836   -7.025504   -0.021315
  18 C     6.0000    0    12.011   -6.475819    0.649128    0.018466
  19 C     6.0000    0    12.011   -0.683435   -6.449655   -0.033738
  20 C     6.0000    0    12.011   -5.552153   -1.831369    0.004284
  21 C     6.0000    0    12.011   -2.928227   -5.047171   -0.023027
  22 C     6.0000    0    12.011   -7.063586   -4.076195   -0.005137
  23 C     6.0000    0    12.011   -5.430639   -6.077458   -0.023136
  24 H     1.0000    0     1.008    5.677511    7.307202   -1.915228
  25 H     1.0000    0     1.008    5.642753    7.719833    1.374085
  26 H     1.0000    0     1.008    8.272899    4.118034    1.948527
  27 H     1.0000    0     1.008    8.678005    4.007051   -1.340516
  28 H     1.0000    0     1.008    0.811688    8.464939   -0.056081
  29 H     1.0000    0     1.008    8.435723   -0.878351    0.081000
  30 H     1.0000    0     1.008   -4.137748    9.033761   -0.002174
  31 H     1.0000    0     1.008    7.999744   -5.841856    0.014337
  32 H     1.0000    0     1.008   -8.083187    5.830076    0.027408
  33 H     1.0000    0     1.008    4.069522   -9.063934   -0.034807
  34 H     1.0000    0     1.008   -8.511794    0.859178    0.025605
  35 H     1.0000    0     1.008   -0.885361   -8.486426   -0.046329
  36 H     1.0000    0     1.008   -9.101956   -4.122142    0.000392
  37 H     1.0000    0     1.008   -5.884618   -8.065109   -0.034653
  38 Mg   12.0000    0    24.305   -0.035057   -0.008338    0.001182

--------------------------------
INTERNAL COORDINATES (ANGSTROEM)
--------------------------------
 N      0   0   0     0.000000000000     0.00000000     0.00000000
 N      1   0   0     2.934625567277     0.00000000     0.00000000
 N      1   2   0     2.934502219461    88.22026361     0.00000000
 N      2   1   3     2.902087324163    91.15525092     0.00000000
 C      1   2   3     2.373783144973   117.10066924   178.00775617
 C      5   1   2     1.533901517256    71.15336793   175.74864028
 C      1   2   3     1.358430124362    80.55312792   178.98494255
 C      1   2   3     1.358392392334   168.73866091   354.91154939
 C      7   1   2     1.374520448020   125.94914713     0.55405638
 C      8   1   7     1.374536203187   125.94130379   181.39600351
 C      2   1   3     1.355940334932    80.79598169   180.38241652
 C      3   1   2     1.356059119169    80.79364978   180.38854817
 C      2   1   3     1.382013227933   172.19563123     2.11228019
 C      3   1   2     1.381931604181   172.19772945     2.18695519
 C     11   2   1     1.439853693466   109.92374504   180.32182958
 C     12   3   1     1.439815791155   109.92104971   180.32893451
 C     15  11   2     1.361202173100   106.87870823     0.00000000
 C     16  12   3     1.361222836597   106.87868208     0.00000000
 C     13   2  11     1.382364012124   125.27049495   179.64780351
 C     14   3  12     1.382391454942   125.27124228   179.65348396
 C      4   2   1     1.367346283750    81.83816516   179.76221527
 C      4   2   1     1.367434918034   171.29992091   358.49070100
 C     21   4   2     1.432083165488   109.73552966   179.80925939
 C     23  21   4     1.366865067502   106.83566180   359.97041685
 H      5   1   2     1.092645014934   119.63454595   281.07952700
 H      5   1   2     1.090606617469   127.60927975    70.55922818
 H      6   5   1     1.092598204440   112.13340192   244.83271966
 H      6   5   1     1.090562030620   113.16139441   123.71896896
 H      9   7   1     1.082914591440   116.47481442   179.76700295
 H     10   8   1     1.082918427081   116.45780824   179.78631778
 H     15  11   2     1.078863876263   125.09848097   180.00420488
 H     16  12   3     1.078854659017   125.09944828   180.00572083
 H     17  15  11     1.079013379288   127.96205293   180.02317060
 H     18  16  12     1.079022169130   127.96119491   180.02286464
 H     19  13   2     1.083116608289   116.47961750   180.08384249
 H     20  14   3     1.083117372845   116.45786284   180.08863448
 H     23  21   4     1.078936570721   125.24249032   179.99600471
 H     24  23  21     1.078923308856   127.92239530   180.01162826
 Mg     3   1   2     2.042506205857    46.01341093     0.00000000

---------------------------
INTERNAL COORDINATES (A.U.)
---------------------------
 N      0   0   0     0.000000000000     0.00000000     0.00000000
 N      1   0   0     5.545638627757     0.00000000     0.00000000
 N      1   2   0     5.545405534166    88.22026361     0.00000000
 N      2   1   3     5.484150259393    91.15525092     0.00000000
 C      1   2   3     4.485800045317   117.10066924   178.00775617
 C      5   1   2     2.898653784021    71.15336793   175.74864028
 C      1   2   3     2.567060907114    80.55312792   178.98494255
 C      1   2   3     2.566989603913   168.73866091   354.91154939
 C      7   1   2     2.597467212233   125.94914713     0.55405638
 C      8   1   7     2.597496985183   125.94130379   181.39600351
 C      2   1   3     2.562355886959    80.79598169   180.38241652
 C      3   1   2     2.562580356635    80.79364978   180.38854817
 C      2   1   3     2.611626514250   172.19563123     2.11228019
 C      3   1   2     2.611472267713   172.19772945     2.18695519
 C     11   2   1     2.720929153566   109.92374504   180.32182958
 C     12   3   1     2.720857528579   109.92104971   180.32893451
 C     15  11   2     2.572299320058   106.87870823     0.00000000
 C     16  12   3     2.572338368408   106.87868208     0.00000000
 C     13   2  11     2.612289400304   125.27049495   179.64780351
 C     14   3  12     2.612341259714   125.27124228   179.65348396
 C      4   2   1     2.583910006522    81.83816516   179.76221527
 C      4   2   1     2.584077501046   171.29992091   358.49070100
 C     21   4   2     2.706244983771   109.73552966   179.80925939
 C     23  21   4     2.583000639603   106.83566180   359.97041685
 H      5   1   2     2.064799839820   119.63454595   281.07952700
 H      5   1   2     2.060947826859   127.60927975    70.55922818
 H      6   5   1     2.064711380806   112.13340192   244.83271966
 H      6   5   1     2.060863569926   113.16139441   123.71896896
 H      9   7   1     2.046412004250   116.47481442   179.76700295
 H     10   8   1     2.046419252561   116.45780824   179.78631778
 H     15  11   2     2.038757261919   125.09848097   180.00420488
 H     16  12   3     2.038739843848   125.09944828   180.00572083
 H     17  15  11     2.039039781691   127.96205293   180.02317060
 H     18  16  12     2.039056392086   127.96119491   180.02286464
 H     19  13   2     2.046793760768   116.47961750   180.08384249
 H     20  14   3     2.046795205569   116.45786284   180.08863448
 H     23  21   4     2.038894634535   125.24249032   179.99600471
 H     24  23  21     2.038869573241   127.92239530   180.01162826
 Mg     3   1   2     3.859777355904    46.01341093     0.00000000

---------------------
BASIS SET INFORMATION
---------------------
There are 4 groups of distinct atoms

 Group   1 Type N   : 11s6p2d1f contracted to 5s3p2d1f pattern {62111/411/11/1}
 Group   2 Type C   : 11s6p2d1f contracted to 5s3p2d1f pattern {62111/411/11/1}
 Group   3 Type H   : 5s1p contracted to 3s1p pattern {311/1}
 Group   4 Type Mg  : 14s8p3d contracted to 5s4p3d pattern {73211/5111/111}

Atom   0N    basis set group =>   1
Atom   1N    basis set group =>   1
Atom   2N    basis set group =>   1
Atom   3N    basis set group =>   1
Atom   4C    basis set group =>   2
Atom   5C    basis set group =>   2
Atom   6C    basis set group =>   2
Atom   7C    basis set group =>   2
Atom   8C    basis set group =>   2
Atom   9C    basis set group =>   2
Atom  10C    basis set group =>   2
Atom  11C    basis set group =>   2
Atom  12C    basis set group =>   2
Atom  13C    basis set group =>   2
Atom  14C    basis set group =>   2
Atom  15C    basis set group =>   2
Atom  16C    basis set group =>   2
Atom  17C    basis set group =>   2
Atom  18C    basis set group =>   2
Atom  19C    basis set group =>   2
Atom  20C    basis set group =>   2
Atom  21C    basis set group =>   2
Atom  22C    basis set group =>   2
Atom  23C    basis set group =>   2
Atom  24H    basis set group =>   3
Atom  25H    basis set group =>   3
Atom  26H    basis set group =>   3
Atom  27H    basis set group =>   3
Atom  28H    basis set group =>   3
Atom  29H    basis set group =>   3
Atom  30H    basis set group =>   3
Atom  31H    basis set group =>   3
Atom  32H    basis set group =>   3
Atom  33H    basis set group =>   3
Atom  34H    basis set group =>   3
Atom  35H    basis set group =>   3
Atom  36H    basis set group =>   3
Atom  37H    basis set group =>   3
Atom  38Mg   basis set group =>   4
---------------------------------
AUXILIARY/J BASIS SET INFORMATION
---------------------------------
There are 4 groups of distinct atoms

 Group   1 Type N   : 12s5p4d2f1g contracted to 6s4p3d1f1g pattern {711111/2111/211/2/1}
 Group   2 Type C   : 12s5p4d2f1g contracted to 6s4p3d1f1g pattern {711111/2111/211/2/1}
 Group   3 Type H   : 5s2p1d contracted to 3s1p1d pattern {311/2/1}
 Group   4 Type Mg  : 14s5p5d2f1g contracted to 8s4p4d1f1g pattern {71111111/2111/2111/2/1}

Atom   0N    basis set group =>   1
Atom   1N    basis set group =>   1
Atom   2N    basis set group =>   1
Atom   3N    basis set group =>   1
Atom   4C    basis set group =>   2
Atom   5C    basis set group =>   2
Atom   6C    basis set group =>   2
Atom   7C    basis set group =>   2
Atom   8C    basis set group =>   2
Atom   9C    basis set group =>   2
Atom  10C    basis set group =>   2
Atom  11C    basis set group =>   2
Atom  12C    basis set group =>   2
Atom  13C    basis set group =>   2
Atom  14C    basis set group =>   2
Atom  15C    basis set group =>   2
Atom  16C    basis set group =>   2
Atom  17C    basis set group =>   2
Atom  18C    basis set group =>   2
Atom  19C    basis set group =>   2
Atom  20C    basis set group =>   2
Atom  21C    basis set group =>   2
Atom  22C    basis set group =>   2
Atom  23C    basis set group =>   2
Atom  24H    basis set group =>   3
Atom  25H    basis set group =>   3
Atom  26H    basis set group =>   3
Atom  27H    basis set group =>   3
Atom  28H    basis set group =>   3
Atom  29H    basis set group =>   3
Atom  30H    basis set group =>   3
Atom  31H    basis set group =>   3
Atom  32H    basis set group =>   3
Atom  33H    basis set group =>   3
Atom  34H    basis set group =>   3
Atom  35H    basis set group =>   3
Atom  36H    basis set group =>   3
Atom  37H    basis set group =>   3
Atom  38Mg   basis set group =>   4


           ************************************************************
           *        Program running with 4 parallel MPI-processes     *
           *              working on a common directory               *
           ************************************************************
------------------------------------------------------------------------------
                             ORCA STARTUP CALCULATIONS
                           -- RI-GTO INTEGRALS CHOSEN --
------------------------------------------------------------------------------
------------------------------------------------------------------------------
                   ___                                                        
                  /   \      - P O W E R E D   B Y -                         
                 /     \                                                     
                 |  |  |   _    _      __       _____    __    __             
                 |  |  |  | |  | |    /  \     |  _  \  |  |  /  |          
                  \  \/   | |  | |   /    \    | | | |  |  | /  /          
                 / \  \   | |__| |  /  /\  \   | |_| |  |  |/  /          
                |  |  |   |  __  | /  /__\  \  |    /   |      \           
                |  |  |   | |  | | |   __   |  |    \   |  |\   \          
                \     /   | |  | | |  |  |  |  | |\  \  |  | \   \       
                 \___/    |_|  |_| |__|  |__|  |_| \__\ |__|  \__/        
                                                                              
                      - O R C A' S   B I G   F R I E N D -                    
                                      &                                       
                       - I N T E G R A L  F E E D E R -                       
                                                                              
 v1 FN, 2020, v2 2021, v3 2022-2024                                           
------------------------------------------------------------------------------


----------------------
SHARK INTEGRAL PACKAGE
----------------------

Number of atoms                             ...     39
Number of basis functions                   ...    860
Number of shells                            ...    332
Maximum angular momentum                    ...      3
Integral batch strategy                     ... SHARK/LIBINT Hybrid
RI-J (if used) integral strategy            ... SPLIT-RIJ (Revised 2003 algorithm where possible)
Printlevel                                  ...      1
Contraction scheme used                     ... SEGMENTED contraction
Prescreening option                         ... SCHWARTZ
   Thresh                                   ... 2.500e-11
   Tcut                                     ... 2.500e-12
   Tpresel                                  ... 2.500e-12 
Coulomb Range Separation                    ... NOT USED
Exchange Range Separation                   ... Long Range
   Mu parameter                             ... 2.500e-01
   Scaling (regular/separated)              ... 1.957e-01 8.043e-01
Robust (split-)RI terms used:
  metric    (central integrals)             ... YES
  density   (r.h.s.  integrals)             ... YES
  potential (l.h.s.  integrals)             ... YES
Multipole approximations                    ... NOT USED
Finite Nucleus Model                        ... NOT USED
CABS basis                                  ... NOT available
Auxiliary Coulomb fitting basis             ... AVAILABLE
   # of basis functions in Aux-J            ...   1386
   # of shells in Aux-J                     ...    448
   Maximum angular momentum in Aux-J        ...      4
Auxiliary J/K fitting basis                 ... NOT available
Auxiliary Correlation fitting basis         ... NOT available
Auxiliary 'external' fitting basis          ... NOT available

Checking pre-screening integrals            ... done (  0.0 sec) Dimension = 332
   => SHARK Basis and OBASIS are compatible. Storing Pre-screening
Shell pair information
Shell pair cut-off parameter TPreSel        ...   2.5e-12
Total number of shell pairs                 ...     55278
Shell pairs after pre-screening             ...     38985
Total number of primitive shell pairs       ...    174360
Primitive shell pairs kept                  ...     80636
          la=0 lb=0:   9326 shell pairs
          la=1 lb=0:  11131 shell pairs
          la=1 lb=1:   3288 shell pairs
          la=2 lb=0:   5767 shell pairs
          la=2 lb=1:   3529 shell pairs
          la=2 lb=2:    978 shell pairs
          la=3 lb=0:   2472 shell pairs
          la=3 lb=1:   1540 shell pairs
          la=3 lb=2:    784 shell pairs
          la=3 lb=3:    170 shell pairs

Checking whether 4 symmetric matrices of dimension 860 fit in memory
:Max Core in MB      =   3000.00
 MB in use           =     50.97
 MB left             =   2949.03
 MB needed           =     11.30
 Data fit in memory  = YES
Calculating RI/J V-Matrix + Cholesky decomp.... done (  0.2 sec)
Calculating Nuclear repulsion               ... done (  0.0 sec) ENN=   2155.857692955848 Eh

Diagonalization of the overlap matrix:
Smallest eigenvalue                        ... 1.000e-05
Time for diagonalization                   ...    0.243 sec
Threshold for overlap eigenvalues          ... 1.000e-07
Number of eigenvalues below threshold      ... 0
Time for construction of square roots      ...    0.120 sec
Total time needed                          ...    0.371 sec

-------------------
DFT GRID GENERATION
-------------------

General Integration Accuracy     IntAcc      ... 4.959
Radial Grid Type                 RadialGrid  ... OptM3 with GC (2021)
Angular Grid (max. ang.)         AngularGrid ... 6 (Lebedev-590)
Angular grid pruning method      GridPruning ... 4 (adaptive)
Weight generation scheme         WeightScheme... mBecke (2022)
Basis function cutoff            BFCut       ... 1.0000e-11
Integration weight cutoff        WCut        ... 1.0000e-14
Partially contracted basis set               ... off
Rotationally invariant grid construction     ... off
Angular grids for H and He will be reduced by one unit

Total number of grid points                  ...   473102
Total number of batches                      ...     7410
Average number of points per batch           ...       63
Average number of grid points per atom       ...    12131

--------------------
COSX GRID GENERATION
--------------------

GRIDX 1
-------
General Integration Accuracy     IntAcc      ... 4.020
Radial Grid Type                 RadialGrid  ... OptM3 with GC (2021)
Angular Grid (max. ang.)         AngularGrid ... 2 (Lebedev-110)
Angular grid pruning method      GridPruning ... 4 (adaptive)
Weight generation scheme         WeightScheme... mBecke (2022)
Basis function cutoff            BFCut       ... 1.0000e-11
Integration weight cutoff        WCut        ... 1.0000e-14
Partially contracted basis set               ... on
Rotationally invariant grid construction     ... off
Angular grids for H and He will be reduced by one unit

Total number of grid points                  ...    54054
Total number of batches                      ...      445
Average number of points per batch           ...      121
Average number of grid points per atom       ...     1386
UseSFitting                                  ... on

GRIDX 2
-------
General Integration Accuracy     IntAcc      ... 4.338
Radial Grid Type                 RadialGrid  ... OptM3 with GC (2021)
Angular Grid (max. ang.)         AngularGrid ... 3 (Lebedev-194)
Angular grid pruning method      GridPruning ... 4 (adaptive)
Weight generation scheme         WeightScheme... mBecke (2022)
Basis function cutoff            BFCut       ... 1.0000e-11
Integration weight cutoff        WCut        ... 1.0000e-14
Partially contracted basis set               ... on
Rotationally invariant grid construction     ... off
Angular grids for H and He will be reduced by one unit

Total number of grid points                  ...   119051
Total number of batches                      ...      950
Average number of points per batch           ...      125
Average number of grid points per atom       ...     3053
UseSFitting                                  ... on

GRIDX 3
-------
General Integration Accuracy     IntAcc      ... 4.871
Radial Grid Type                 RadialGrid  ... OptM3 with GC (2021)
Angular Grid (max. ang.)         AngularGrid ... 4 (Lebedev-302)
Angular grid pruning method      GridPruning ... 4 (adaptive)
Weight generation scheme         WeightScheme... mBecke (2022)
Basis function cutoff            BFCut       ... 1.0000e-11
Integration weight cutoff        WCut        ... 1.0000e-14
Partially contracted basis set               ... on
Rotationally invariant grid construction     ... off
Angular grids for H and He will be reduced by one unit

Total number of grid points                  ...   219016
Total number of batches                      ...     1726
Average number of points per batch           ...      126
Average number of grid points per atom       ...     5616
UseSFitting                                  ... on
Grids setup in  18.4 sec
Initializing property integral containers    ... done (  0.0 sec)

SHARK setup successfully completed in  19.9 seconds

Maximum memory used throughout the entire STARTUP-calculation: 154.4 MB


           ************************************************************
           *        Program running with 4 parallel MPI-processes     *
           *              working on a common directory               *
           ************************************************************
-------------------------------------------------------------------------------
                                 ORCA GUESS
                   Start orbitals & Density for SCF / CASSCF
-------------------------------------------------------------------------------

------------
SCF SETTINGS
------------
Hamiltonian:
 Density Functional     Method          .... DFT(GTOs)
 Exchange Functional    Exchange        .... WB97X-D3
 Correlation Functional Correlation     .... WB97X-D3
 Gradients option       PostSCFGGA      .... off
 Hybrid DFT is turned on
   Fraction HF Exchange ScalHFX         ....  0.195728
   Scaling of DF-GGA-X  ScalDFX         ....  0.000000
   Scaling of DF-GGA-C  ScalDFC         ....  1.000000
   Scaling of DF-LDA-C  ScalLDAC        ....  1.000000
   Perturbative correction              ....  0.000000
 Long-range corrected/Screened/Range-Separated Hybrid DFT is turned on
   Amount of maximum screened exact exchange              ....  0.804272
   Range separation parameter mu (erf(mu*r12)/r12)        ....  0.250000
 RI-approximation to the Coulomb term is turned on
   Number of AuxJ basis functions       .... 1386
   RIJ-COSX (HFX calculated with COS-X)).... on


General Settings:
 Integral files         IntName         .... tddft
 Hartree-Fock type      HFTyp           .... RHF
 Total Charge           Charge          ....    0
 Multiplicity           Mult            ....    1
 Number of Electrons    NEL             ....  174
 Basis Dimension        Dim             ....  860
 Nuclear Repulsion      ENuc            ....   2155.8576929558 Eh

Convergence Acceleration:
 AO-DIIS                CNVDIIS         .... on
   Start iteration      DIISMaxIt       ....    12
   Startup error        DIISStart       ....  0.200000
   # of expansion vecs  DIISMaxEq       ....     5
   Bias factor          DIISBfac        ....   1.050
   Max. coefficient     DIISMaxC        ....  10.000
 MO-DIIS                CNVKDIIS        .... off
 Trust-Rad. Augm. Hess. CNVTRAH         .... auto
   Auto Start mean grad. ratio tolernc. ....  1.125000
   Auto Start start iteration           ....    50
   Auto Start num. interpolation iter.  ....    10
   Max. Number of Micro iterations      ....    24
   Max. Number of Macro iterations      .... Maxiter - #DIIS iter
   Number of Davidson start vectors     ....     2
   Converg. threshold    (grad. norm)   ....   1.000e-05
   Grad. Scal. Fac. for Micro threshold ....   0.100
   Minimum threshold for Micro iter.    ....   1.000e-02
   NR start threshold (gradient norm)   ....   1.000e-04
   Initial trust radius                 ....   0.400
   Minimum AH scaling param. (alpha)    ....   1.000
   Maximum AH scaling param. (alpha)    .... 1000.000
   Quad. conv. algorithm                .... NR
   White noise on init. David. guess    .... on
   Maximum white noise                  ....   0.010
   Pseudo random numbers                .... off
   Inactive MOs                         .... canonical
   Orbital update algorithm             .... Taylor
   Preconditioner                       .... Diag
   Full preconditioner red. dimension   ....   250
 SOSCF                 CNVSOSCF           .... on
   Start iteration     SOSCFMaxIt         ....   150
   Startup grad/error  SOSCFStart         ....  0.003300
   Hessian update      SOSCFHessUp        .... L-BFGS
   Autom. constraints  SOSCFAutoConstrain .... off
 Level Shifting         CNVShift        .... on
   Level shift para.    LevelShift      ....    0.2500
   Turn off err/grad.   ShiftErr        ....    0.0010
 Zerner damping         CNVZerner       .... off
 Static damping         CNVDamp         .... on
   Fraction old density DampFac         ....    0.7000
   Max. Damping (<1)    DampMax         ....    0.9800
   Min. Damping (>=0)   DampMin         ....    0.0000
   Turn off err/grad.   DampErr         ....    0.1000

SCF Procedure:
 Maximum # iterations   MaxIter         ....   125
 SCF integral mode      SCFMode         .... Direct
   Integral package                     .... SHARK and LIBINT hybrid scheme
 Reset frequency        DirectResetFreq ....    20
 Integral Threshold     Thresh          ....  2.500e-11 Eh
 Primitive CutOff       TCut            ....  2.500e-12 Eh

Convergence Tolerance:
 Convergence Check Mode ConvCheckMode   .... Total+1el-Energy
 Convergence forced     ConvForced      .... 1
 Energy Change          TolE            ....  1.000e-08 Eh
 1-El. energy change                    ....  1.000e-05 Eh
 Orbital Gradient       TolG            ....  1.000e-05
 Orbital Rotation angle TolX            ....  1.000e-05
 DIIS Error             TolErr          ....  5.000e-07

------------------------------
INITIAL GUESS: MODEL POTENTIAL
------------------------------
Loading Hartree-Fock densities                     ... done
Calculating cut-offs                               ... done
Initializing the effective Hamiltonian             ... done
Setting up the integral package (SHARK)            ... done
Starting the Coulomb interaction                   ... done (   2.0 sec)
Making the grid                                    ... done (   0.8 sec)
Mapping shells                                     ... done
Starting the XC term evaluation                    ... done (   1.2 sec)
  promolecular density results
     # of electrons  =    173.997675708
     EX              =   -148.716356810
     EC              =     -5.920044363
     EX+EC           =   -154.636401173
Transforming the Hamiltonian                       ... done (   0.1 sec)
Diagonalizing the Hamiltonian                      ... done (   0.2 sec)
Back transforming the eigenvectors                 ... done (   0.1 sec)
Now organizing SCF variables                       ... done
                      ------------------
                      INITIAL GUESS DONE (   4.4 sec)
                      ------------------
             **** ENERGY FILE WAS UPDATED (tddft.en.tmp) ****
Finished Guess after   4.9 sec
Maximum memory used throughout the entire GUESS-calculation: 86.1 MB


           ************************************************************
           *        Program running with 4 parallel MPI-processes     *
           *              working on a common directory               *
           ************************************************************

-------------------------------------------------------------------------------------------
                                      ORCA LEAN-SCF
                              memory conserving SCF solver
-------------------------------------------------------------------------------------------

----------------------------------------D-I-I-S--------------------------------------------
Iteration    Energy (Eh)           Delta-E    RMSDP     MaxDP     DIISErr   Damp  Time(sec)
-------------------------------------------------------------------------------------------
               ***  Starting incremental Fock matrix formation  ***
    1    -1189.2719270890729604     0.00e+00  1.62e-03  3.64e-02  2.19e-01  0.700 196.5
    2    -1189.4902610202834694    -2.18e-01  1.32e-03  2.96e-02  1.18e-01  0.700  79.8
                               ***Turning on AO-DIIS***
    3    -1189.6041231648705434    -1.14e-01  8.43e-04  2.13e-02  5.32e-02  0.700 101.2
    4    -1189.6728254202143944    -6.87e-02  1.89e-03  4.72e-02  3.76e-02  0.000  73.1
    5    -1189.8206609164958536    -1.48e-01  2.00e-04  5.33e-03  4.53e-03  0.000  82.3
                              *** Initializing SOSCF ***
---------------------------------------S-O-S-C-F--------------------------------------
Iteration    Energy (Eh)           Delta-E    RMSDP     MaxDP     MaxGrad    Time(sec)
--------------------------------------------------------------------------------------
    6    -1189.8212320910306516    -5.71e-04  8.66e-05  2.32e-03  2.52e-03    76.8
               *** Restarting incremental Fock matrix formation ***
    7    -1189.8214145970955542    -1.83e-04  8.48e-05  1.54e-03  2.32e-03   235.7
    8    -1189.8215775687026508    -1.63e-04  1.55e-04  2.48e-03  1.33e-03   157.7
    9    -1189.8216966752274857    -1.19e-04  4.63e-05  8.91e-04  6.03e-04   156.9
   10    -1189.8217117814670019    -1.51e-05  1.80e-05  5.73e-04  4.41e-04   147.2
   11    -1189.8217196879500079    -7.91e-06  7.51e-06  1.37e-04  8.05e-05   152.7
   12    -1189.8217203450312809    -6.57e-07  5.10e-06  1.12e-04  9.02e-05   137.1
   13    -1189.8217206602562328    -3.15e-07  5.34e-06  1.40e-04  1.45e-05   125.4
   14    -1189.8217206500430621     1.02e-08  4.93e-06  1.83e-04  1.44e-05   103.7
   15    -1189.8217206470294514     3.01e-09  6.03e-06  1.48e-04  2.47e-06    92.3
                 **** Energy Check signals convergence ****

               *****************************************************
               *                     SUCCESS                       *
               *           SCF CONVERGED AFTER  15 CYCLES          *
               *****************************************************

Recomputing exchange energy using gridx3       ... done (  355.765 sec)
Old exchange energy                            :    -48.279124407 Eh
New exchange energy                            :    -48.279126355 Eh
Exchange energy change after final integration :     -0.000001948 Eh
Total energy after final integration           :  -1189.821722592 Eh
             **** ENERGY FILE WAS UPDATED (tddft.en.tmp) ****

----------------
TOTAL SCF ENERGY
----------------

Total Energy       :      -1189.82172259225604 Eh          -32376.69507 eV

Components:
Nuclear Repulsion  :       2155.85769295584805 Eh           58663.87024 eV
Electronic Energy  :      -3345.67941360010354 Eh          -91040.56526 eV
One Electron Energy:      -5908.42321873505352 Eh         -160776.36949 eV
Two Electron Energy:       2562.74380513494998 Eh           69735.80424 eV

Virial components:
Potential Energy   :      -2374.41437515390680 Eh          -64611.09991 eV
Kinetic Energy     :       1184.59265256165077 Eh           32234.40484 eV
Virial Ratio       :          2.00441423473233

DFT components:
N(Alpha)           :       86.999987047833 electrons
N(Beta)            :       86.999987047833 electrons
N(Total)           :      173.999974095667 electrons
E(XC)              :     -109.810718921886 Eh       

---------------
SCF CONVERGENCE
---------------

  Last Energy change         ...   -3.0136e-09  Tolerance :   1.0000e-08
  Last MAX-Density change    ...    1.4792e-04  Tolerance :   1.0000e-07
  Last RMS-Density change    ...    6.0307e-06  Tolerance :   5.0000e-09
  Last DIIS Error            ...    2.5204e-03  Tolerance :   5.0000e-07
  Last Orbital Gradient      ...    2.4653e-06  Tolerance :   1.0000e-05
  Last Orbital Rotation      ...    7.7267e-06  Tolerance :   1.0000e-05


----------------
ORBITAL ENERGIES
----------------

  NO   OCC          E(Eh)            E(eV) 
   0   2.0000     -46.854811     -1274.9842 
   1   2.0000     -14.426469      -392.5642 
   2   2.0000     -14.406914      -392.0321 
   3   2.0000     -14.406488      -392.0205 
   4   2.0000     -14.406475      -392.0201 
   5   2.0000     -10.326963      -281.0109 
   6   2.0000     -10.326930      -281.0101 
   7   2.0000     -10.316934      -280.7380 
   8   2.0000     -10.316933      -280.7380 
   9   2.0000     -10.304184      -280.3911 
  10   2.0000     -10.304163      -280.3905 
  11   2.0000     -10.300773      -280.2983 
  12   2.0000     -10.300734      -280.2972 
  13   2.0000     -10.291672      -280.0506 
  14   2.0000     -10.291665      -280.0504 
  15   2.0000     -10.290004      -280.0052 
  16   2.0000     -10.289810      -280.0000 
  17   2.0000     -10.280792      -279.7546 
  18   2.0000     -10.280782      -279.7543 
  19   2.0000     -10.273298      -279.5506 
  20   2.0000     -10.273283      -279.5502 
  21   2.0000     -10.269081      -279.4359 
  22   2.0000     -10.268390      -279.4171 
  23   2.0000     -10.268042      -279.4076 
  24   2.0000     -10.268033      -279.4074 
  25   2.0000      -3.164784       -86.1182 
  26   2.0000      -1.903138       -51.7870 
  27   2.0000      -1.897167       -51.6246 
  28   2.0000      -1.896781       -51.6140 
  29   2.0000      -1.081105       -29.4184 
  30   2.0000      -1.070693       -29.1350 
  31   2.0000      -1.069984       -29.1157 
  32   2.0000      -1.059568       -28.8323 
  33   2.0000      -0.931500       -25.3474 
  34   2.0000      -0.905614       -24.6430 
  35   2.0000      -0.901997       -24.5446 
  36   2.0000      -0.894433       -24.3388 
  37   2.0000      -0.879881       -23.9428 
  38   2.0000      -0.878058       -23.8932 
  39   2.0000      -0.870025       -23.6746 
  40   2.0000      -0.850097       -23.1323 
  41   2.0000      -0.830419       -22.5969 
  42   2.0000      -0.769832       -20.9482 
  43   2.0000      -0.762985       -20.7619 
  44   2.0000      -0.722798       -19.6683 
  45   2.0000      -0.687016       -18.6947 
  46   2.0000      -0.678892       -18.4736 
  47   2.0000      -0.676305       -18.4032 
  48   2.0000      -0.673910       -18.3380 
  49   2.0000      -0.655426       -17.8351 
  50   2.0000      -0.641774       -17.4636 
  51   2.0000      -0.625859       -17.0305 
  52   2.0000      -0.619009       -16.8441 
  53   2.0000      -0.606948       -16.5159 
  54   2.0000      -0.601371       -16.3641 
  55   2.0000      -0.592222       -16.1152 
  56   2.0000      -0.586619       -15.9627 
  57   2.0000      -0.541738       -14.7414 
  58   2.0000      -0.533359       -14.5134 
  59   2.0000      -0.527788       -14.3618 
  60   2.0000      -0.518933       -14.1209 
  61   2.0000      -0.518334       -14.1046 
  62   2.0000      -0.512859       -13.9556 
  63   2.0000      -0.505889       -13.7659 
  64   2.0000      -0.504186       -13.7196 
  65   2.0000      -0.501325       -13.6417 
  66   2.0000      -0.482824       -13.1383 
  67   2.0000      -0.481840       -13.1115 
  68   2.0000      -0.479697       -13.0532 
  69   2.0000      -0.468038       -12.7360 
  70   2.0000      -0.466230       -12.6868 
  71   2.0000      -0.462056       -12.5732 
  72   2.0000      -0.460116       -12.5204 
  73   2.0000      -0.459210       -12.4957 
  74   2.0000      -0.458159       -12.4671 
  75   2.0000      -0.452529       -12.3139 
  76   2.0000      -0.412755       -11.2316 
  77   2.0000      -0.407397       -11.0858 
  78   2.0000      -0.405226       -11.0268 
  79   2.0000      -0.376195       -10.2368 
  80   2.0000      -0.365112        -9.9352 
  81   2.0000      -0.356843        -9.7102 
  82   2.0000      -0.345214        -9.3938 
  83   2.0000      -0.335303        -9.1241 
  84   2.0000      -0.330070        -8.9817 
  85   2.0000      -0.262625        -7.1464 
  86   2.0000      -0.241549        -6.5729 
  87   0.0000      -0.037114        -1.0099 
  88   0.0000      -0.009619        -0.2617 
  89   0.0000       0.072247         1.9659 
  90   0.0000       0.075898         2.0653 
  91   0.0000       0.095145         2.5890 
  92   0.0000       0.110003         2.9933 
  93   0.0000       0.115707         3.1486 
  94   0.0000       0.131406         3.5757 
  95   0.0000       0.133032         3.6200 
  96   0.0000       0.137928         3.7532 
  97   0.0000       0.143487         3.9045 
*Only the first 10 virtual orbitals were printed.

                    ********************************
                    * MULLIKEN POPULATION ANALYSIS *
                    ********************************

-----------------------
MULLIKEN ATOMIC CHARGES
-----------------------
   0 N :   -0.421622
   1 N :   -0.422466
   2 N :   -0.421539
   3 N :   -0.410018
   4 C :   -0.157344
   5 C :   -0.157169
   6 C :    0.215565
   7 C :    0.213620
   8 C :   -0.411878
   9 C :   -0.409590
  10 C :    0.335345
  11 C :    0.333301
  12 C :    0.267590
  13 C :    0.267961
  14 C :   -0.216219
  15 C :   -0.216173
  16 C :   -0.195682
  17 C :   -0.195747
  18 C :   -0.296490
  19 C :   -0.296839
  20 C :    0.271400
  21 C :    0.271902
  22 C :   -0.212841
  23 C :   -0.212751
  24 H :    0.113947
  25 H :    0.122249
  26 H :    0.113955
  27 H :    0.122272
  28 H :    0.117712
  29 H :    0.117773
  30 H :    0.124052
  31 H :    0.124010
  32 H :    0.126823
  33 H :    0.126869
  34 H :    0.126662
  35 H :    0.126656
  36 H :    0.121039
  37 H :    0.120992
  38 Mg:    0.772675
Sum of atomic charges:    0.0000000

--------------------------------
MULLIKEN REDUCED ORBITAL CHARGES
--------------------------------
  0 N s       :     3.660525  s :     3.660525
      pz      :     1.328705  p :     3.696633
      px      :     1.212265
      py      :     1.155663
      dz2     :     0.004620  d :     0.060877
      dxz     :     0.008822
      dyz     :     0.010305
      dx2y2   :     0.020004
      dxy     :     0.017126
      f0      :     0.000682  f :     0.003586
      f+1     :     0.000329
      f-1     :     0.000357
      f+2     :     0.000463
      f-2     :     0.000110
      f+3     :     0.000946
      f-3     :     0.000697

  1 N s       :     3.654276  s :     3.654276
      pz      :     1.385690  p :     3.704998
      px      :     1.139891
      py      :     1.179416
      dz2     :     0.004678  d :     0.059553
      dxz     :     0.010081
      dyz     :     0.008978
      dx2y2   :     0.019024
      dxy     :     0.016791
      f0      :     0.000693  f :     0.003640
      f+1     :     0.000397
      f-1     :     0.000359
      f+2     :     0.000580
      f-2     :     0.000087
      f+3     :     0.000681
      f-3     :     0.000842

  2 N s       :     3.653913  s :     3.653913
      pz      :     1.385702  p :     3.704435
      px      :     1.133657
      py      :     1.185075
      dz2     :     0.004680  d :     0.059552
      dxz     :     0.010639
      dyz     :     0.008420
      dx2y2   :     0.018701
      dxy     :     0.017112
      f0      :     0.000693  f :     0.003640
      f+1     :     0.000380
      f-1     :     0.000376
      f+2     :     0.000562
      f-2     :     0.000105
      f+3     :     0.000629
      f-3     :     0.000894

  3 N s       :     3.655029  s :     3.655029
      pz      :     1.352546  p :     3.689596
      px      :     1.191591
      py      :     1.145459
      dz2     :     0.004653  d :     0.061697
      dxz     :     0.009548
      dyz     :     0.011610
      dx2y2   :     0.018896
      dxy     :     0.016991
      f0      :     0.000689  f :     0.003696
      f+1     :     0.000359
      f-1     :     0.000378
      f+2     :     0.000656
      f-2     :     0.000094
      f+3     :     0.000866
      f-3     :     0.000655

  4 C s       :     3.150461  s :     3.150461
      pz      :     1.051074  p :     2.924058
      px      :     0.887744
      py      :     0.985239
      dz2     :     0.004368  d :     0.077407
      dxz     :     0.016688
      dyz     :     0.014665
      dx2y2   :     0.024423
      dxy     :     0.017263
      f0      :     0.000603  f :     0.005417
      f+1     :     0.000159
      f-1     :     0.001008
      f+2     :     0.000287
      f-2     :     0.000734
      f+3     :     0.001319
      f-3     :     0.001308

  5 C s       :     3.150439  s :     3.150439
      pz      :     1.051110  p :     2.923945
      px      :     0.978335
      py      :     0.894500
      dz2     :     0.004387  d :     0.077369
      dxz     :     0.014218
      dyz     :     0.017093
      dx2y2   :     0.024091
      dxy     :     0.017581
      f0      :     0.000605  f :     0.005415
      f+1     :     0.001029
      f-1     :     0.000135
      f+2     :     0.000218
      f-2     :     0.000802
      f+3     :     0.001049
      f-3     :     0.001576

  6 C s       :     3.124672  s :     3.124672
      pz      :     0.853754  p :     2.486098
      px      :     0.895956
      py      :     0.736388
      dz2     :     0.001373  d :     0.159548
      dxz     :     0.028487
      dyz     :     0.039777
      dx2y2   :     0.042366
      dxy     :     0.047545
      f0      :     0.002105  f :     0.014117
      f+1     :     0.000795
      f-1     :     0.001053
      f+2     :     0.001777
      f-2     :     0.001217
      f+3     :     0.005147
      f-3     :     0.002023

  7 C s       :     3.125494  s :     3.125494
      pz      :     0.853784  p :     2.487243
      px      :     0.750603
      py      :     0.882857
      dz2     :     0.001398  d :     0.159526
      dxz     :     0.034572
      dyz     :     0.033673
      dx2y2   :     0.042480
      dxy     :     0.047403
      f0      :     0.002104  f :     0.014117
      f+1     :     0.001057
      f-1     :     0.000793
      f+2     :     0.001566
      f-2     :     0.001428
      f+3     :     0.003341
      f-3     :     0.003828

  8 C s       :     3.288649  s :     3.288649
      pz      :     1.126448  p :     3.050464
      px      :     0.923980
      py      :     1.000036
      dz2     :     0.003071  d :     0.065445
      dxz     :     0.022269
      dyz     :     0.003129
      dx2y2   :     0.028216
      dxy     :     0.008759
      f0      :     0.001579  f :     0.007320
      f+1     :     0.000731
      f-1     :     0.000670
      f+2     :     0.000408
      f-2     :     0.000734
      f+3     :     0.002137
      f-3     :     0.001060

  9 C s       :     3.287363  s :     3.287363
      pz      :     1.126348  p :     3.049451
      px      :     0.993312
      py      :     0.929791
      dz2     :     0.003071  d :     0.065456
      dxz     :     0.003140
      dyz     :     0.022259
      dx2y2   :     0.028814
      dxy     :     0.008171
      f0      :     0.001579  f :     0.007319
      f+1     :     0.000675
      f-1     :     0.000727
      f+2     :     0.000432
      f-2     :     0.000711
      f+3     :     0.001159
      f-3     :     0.002037

 10 C s       :     3.103212  s :     3.103212
      pz      :     0.850414  p :     2.386231
      px      :     0.795217
      py      :     0.740600
      dz2     :     0.002491  d :     0.160484
      dxz     :     0.035958
      dyz     :     0.036677
      dx2y2   :     0.040366
      dxy     :     0.044992
      f0      :     0.002321  f :     0.014728
      f+1     :     0.000872
      f-1     :     0.001050
      f+2     :     0.001975
      f-2     :     0.001201
      f+3     :     0.004211
      f-3     :     0.003097

 11 C s       :     3.104016  s :     3.104016
      pz      :     0.850419  p :     2.387471
      px      :     0.733710
      py      :     0.803342
      dz2     :     0.002502  d :     0.160485
      dxz     :     0.039023
      dyz     :     0.033585
      dx2y2   :     0.040596
      dxy     :     0.044780
      f0      :     0.002320  f :     0.014726
      f+1     :     0.001083
      f-1     :     0.000839
      f+2     :     0.002399
      f-2     :     0.000777
      f+3     :     0.002068
      f-3     :     0.005239

 12 C s       :     3.098220  s :     3.098220
      pz      :     0.945452  p :     2.468828
      px      :     0.719588
      py      :     0.803788
      dz2     :     0.003427  d :     0.150996
      dxz     :     0.036774
      dyz     :     0.027927
      dx2y2   :     0.040124
      dxy     :     0.042744
      f0      :     0.002305  f :     0.014367
      f+1     :     0.001108
      f-1     :     0.000860
      f+2     :     0.002288
      f-2     :     0.000584
      f+3     :     0.002059
      f-3     :     0.005163

 13 C s       :     3.097626  s :     3.097626
      pz      :     0.945493  p :     2.469096
      px      :     0.794801
      py      :     0.728802
      dz2     :     0.003404  d :     0.150949
      dxz     :     0.029518
      dyz     :     0.035184
      dx2y2   :     0.039287
      dxy     :     0.043557
      f0      :     0.002305  f :     0.014368
      f+1     :     0.000890
      f-1     :     0.001081
      f+2     :     0.001776
      f-2     :     0.001096
      f+3     :     0.004181
      f-3     :     0.003040

 14 C s       :     3.242236  s :     3.242236
      pz      :     1.027689  p :     2.887947
      px      :     0.922440
      py      :     0.937819
      dz2     :     0.005008  d :     0.078257
      dxz     :     0.019842
      dyz     :     0.007245
      dx2y2   :     0.026696
      dxy     :     0.019466
      f0      :     0.001604  f :     0.007778
      f+1     :     0.000532
      f-1     :     0.000839
      f+2     :     0.000063
      f-2     :     0.001229
      f+3     :     0.002225
      f-3     :     0.001286

 15 C s       :     3.242271  s :     3.242271
      pz      :     1.027746  p :     2.887871
      px      :     0.948137
      py      :     0.911987
      dz2     :     0.005008  d :     0.078254
      dxz     :     0.008662
      dyz     :     0.018427
      dx2y2   :     0.028786
      dxy     :     0.017371
      f0      :     0.001604  f :     0.007777
      f+1     :     0.000808
      f-1     :     0.000563
      f+2     :     0.000366
      f-2     :     0.000927
      f+3     :     0.001889
      f-3     :     0.001621

 16 C s       :     3.251108  s :     3.251108
      pz      :     0.968596  p :     2.853150
      px      :     0.959048
      py      :     0.925505
      dz2     :     0.004733  d :     0.083542
      dxz     :     0.009525
      dyz     :     0.024093
      dx2y2   :     0.028045
      dxy     :     0.017146
      f0      :     0.001580  f :     0.007882
      f+1     :     0.000785
      f-1     :     0.000537
      f+2     :     0.000515
      f-2     :     0.000975
      f+3     :     0.001905
      f-3     :     0.001587

 17 C s       :     3.251074  s :     3.251074
      pz      :     0.968570  p :     2.853247
      px      :     0.934500
      py      :     0.950178
      dz2     :     0.004738  d :     0.083544
      dxz     :     0.026340
      dyz     :     0.007274
      dx2y2   :     0.026015
      dxy     :     0.019176
      f0      :     0.001579  f :     0.007883
      f+1     :     0.000505
      f-1     :     0.000817
      f+2     :     0.000108
      f-2     :     0.001382
      f+3     :     0.002205
      f-3     :     0.001286

 18 C s       :     3.278577  s :     3.278577
      pz      :     0.962548  p :     2.930057
      px      :     1.016684
      py      :     0.950825
      dz2     :     0.002737  d :     0.080631
      dxz     :     0.003026
      dyz     :     0.033844
      dx2y2   :     0.031423
      dxy     :     0.009601
      f0      :     0.001488  f :     0.007225
      f+1     :     0.000610
      f-1     :     0.000634
      f+2     :     0.000435
      f-2     :     0.000828
      f+3     :     0.001113
      f-3     :     0.002118

 19 C s       :     3.278851  s :     3.278851
      pz      :     0.962509  p :     2.930131
      px      :     0.950821
      py      :     1.016802
      dz2     :     0.002739  d :     0.080632
      dxz     :     0.033755
      dyz     :     0.003118
      dx2y2   :     0.031058
      dxy     :     0.009962
      f0      :     0.001488  f :     0.007225
      f+1     :     0.000630
      f-1     :     0.000614
      f+2     :     0.000445
      f-2     :     0.000818
      f+3     :     0.002119
      f-3     :     0.001112

 20 C s       :     3.098613  s :     3.098613
      pz      :     0.944927  p :     2.465783
      px      :     0.737284
      py      :     0.783572
      dz2     :     0.003142  d :     0.149680
      dxz     :     0.034474
      dyz     :     0.028727
      dx2y2   :     0.039581
      dxy     :     0.043756
      f0      :     0.002326  f :     0.014525
      f+1     :     0.001075
      f-1     :     0.000915
      f+2     :     0.001775
      f-2     :     0.001142
      f+3     :     0.003084
      f-3     :     0.004206

 21 C s       :     3.098900  s :     3.098900
      pz      :     0.944941  p :     2.464969
      px      :     0.793515
      py      :     0.726513
      dz2     :     0.003164  d :     0.149707
      dxz     :     0.028460
      dyz     :     0.034728
      dx2y2   :     0.039448
      dxy     :     0.043906
      f0      :     0.002326  f :     0.014523
      f+1     :     0.000875
      f-1     :     0.001113
      f+2     :     0.002292
      f-2     :     0.000625
      f+3     :     0.005237
      f-3     :     0.002055

 22 C s       :     3.244888  s :     3.244888
      pz      :     1.013361  p :     2.879054
      px      :     0.938132
      py      :     0.927562
      dz2     :     0.004902  d :     0.080951
      dxz     :     0.006920
      dyz     :     0.024311
      dx2y2   :     0.025884
      dxy     :     0.018935
      f0      :     0.001610  f :     0.007947
      f+1     :     0.000844
      f-1     :     0.000524
      f+2     :     0.000075
      f-2     :     0.001425
      f+3     :     0.001266
      f-3     :     0.002203

 23 C s       :     3.245069  s :     3.245069
      pz      :     1.013361  p :     2.878775
      px      :     0.918127
      py      :     0.947287
      dz2     :     0.004899  d :     0.080960
      dxz     :     0.022478
      dyz     :     0.008760
      dx2y2   :     0.027772
      dxy     :     0.017052
      f0      :     0.001610  f :     0.007946
      f+1     :     0.000552
      f-1     :     0.000815
      f+2     :     0.000453
      f-2     :     0.001047
      f+3     :     0.001616
      f-3     :     0.001853

 24 H s       :     0.863990  s :     0.863990
      pz      :     0.010925  p :     0.022063
      px      :     0.004309
      py      :     0.006829

 25 H s       :     0.855845  s :     0.855845
      pz      :     0.008669  p :     0.021905
      px      :     0.004287
      py      :     0.008949

 26 H s       :     0.863981  s :     0.863981
      pz      :     0.010947  p :     0.022064
      px      :     0.006974
      py      :     0.004143

 27 H s       :     0.855820  s :     0.855820
      pz      :     0.008651  p :     0.021908
      px      :     0.009082
      py      :     0.004175

 28 H s       :     0.859153  s :     0.859153
      pz      :     0.005791  p :     0.023135
      px      :     0.003465
      py      :     0.013880

 29 H s       :     0.859092  s :     0.859092
      pz      :     0.005791  p :     0.023134
      px      :     0.013824
      py      :     0.003519

 30 H s       :     0.853655  s :     0.853655
      pz      :     0.004846  p :     0.022293
      px      :     0.003522
      py      :     0.013926

 31 H s       :     0.853698  s :     0.853698
      pz      :     0.004846  p :     0.022293
      px      :     0.013367
      py      :     0.004080

 32 H s       :     0.851102  s :     0.851102
      pz      :     0.004482  p :     0.022075
      px      :     0.013416
      py      :     0.004177

 33 H s       :     0.851056  s :     0.851056
      pz      :     0.004482  p :     0.022076
      px      :     0.003598
      py      :     0.013996

 34 H s       :     0.850843  s :     0.850843
      pz      :     0.004713  p :     0.022496
      px      :     0.014182
      py      :     0.003601

 35 H s       :     0.850848  s :     0.850848
      pz      :     0.004714  p :     0.022496
      px      :     0.003581
      py      :     0.014201

 36 H s       :     0.856720  s :     0.856720
      pz      :     0.004785  p :     0.022241
      px      :     0.013889
      py      :     0.003567

 37 H s       :     0.856767  s :     0.856767
      pz      :     0.004786  p :     0.022241
      px      :     0.004131
      py      :     0.013324

 38 Mgs       :     4.510594  s :     4.510594
      pz      :     2.081520  p :     6.442647
      px      :     2.179222
      py      :     2.181904
      dz2     :     0.031980  d :     0.274084
      dxz     :     0.026005
      dyz     :     0.027566
      dx2y2   :     0.018377
      dxy     :     0.170157



                     *******************************
                     * LOEWDIN POPULATION ANALYSIS *
                     *******************************

----------------------
LOEWDIN ATOMIC CHARGES
----------------------
   0 N :    0.177899
   1 N :    0.164757
   2 N :    0.164744
   3 N :    0.176846
   4 C :   -0.192881
   5 C :   -0.192831
   6 C :   -0.185298
   7 C :   -0.185314
   8 C :   -0.142506
   9 C :   -0.142496
  10 C :   -0.185520
  11 C :   -0.185441
  12 C :   -0.208640
  13 C :   -0.208716
  14 C :   -0.121955
  15 C :   -0.121979
  16 C :   -0.101311
  17 C :   -0.101313
  18 C :   -0.062514
  19 C :   -0.062490
  20 C :   -0.211675
  21 C :   -0.211626
  22 C :   -0.124642
  23 C :   -0.124638
  24 H :    0.147089
  25 H :    0.144336
  26 H :    0.147076
  27 H :    0.144333
  28 H :    0.156177
  29 H :    0.156175
  30 H :    0.139332
  31 H :    0.139327
  32 H :    0.141567
  33 H :    0.141567
  34 H :    0.161450
  35 H :    0.161450
  36 H :    0.138551
  37 H :    0.138549
  38 Mg:    0.332557

-------------------------------
LOEWDIN REDUCED ORBITAL CHARGES
-------------------------------
  0 N s       :     2.974699  s :     2.974699
      pz      :     1.158348  p :     3.623875
      px      :     1.256063
      py      :     1.209464
      dz2     :     0.016310  d :     0.205283
      dxz     :     0.022864
      dyz     :     0.029175
      dx2y2   :     0.073548
      dxy     :     0.063386
      f0      :     0.001205  f :     0.018243
      f+1     :     0.001186
      f-1     :     0.001392
      f+2     :     0.002898
      f-2     :     0.000457
      f+3     :     0.006554
      f-3     :     0.004552

  1 N s       :     2.973423  s :     2.973423
      pz      :     1.207727  p :     3.644428
      px      :     1.189068
      py      :     1.247633
      dz2     :     0.016095  d :     0.199082
      dxz     :     0.030800
      dyz     :     0.022703
      dx2y2   :     0.069340
      dxy     :     0.060144
      f0      :     0.001128  f :     0.018309
      f+1     :     0.001335
      f-1     :     0.001233
      f+2     :     0.003509
      f-2     :     0.000283
      f+3     :     0.004693
      f-3     :     0.006128

  2 N s       :     2.973429  s :     2.973429
      pz      :     1.207744  p :     3.644433
      px      :     1.202346
      py      :     1.234343
      dz2     :     0.016098  d :     0.199086
      dxz     :     0.029077
      dyz     :     0.024430
      dx2y2   :     0.068372
      dxy     :     0.061109
      f0      :     0.001128  f :     0.018308
      f+1     :     0.001411
      f-1     :     0.001158
      f+2     :     0.003399
      f-2     :     0.000393
      f+3     :     0.004420
      f-3     :     0.006400

  3 N s       :     2.975021  s :     2.975021
      pz      :     1.181724  p :     3.625723
      px      :     1.244592
      py      :     1.199407
      dz2     :     0.015986  d :     0.203794
      dxz     :     0.025726
      dyz     :     0.033342
      dx2y2   :     0.068294
      dxy     :     0.060446
      f0      :     0.001087  f :     0.018616
      f+1     :     0.001174
      f-1     :     0.001348
      f+2     :     0.003917
      f-2     :     0.000316
      f+3     :     0.006239
      f-3     :     0.004535

  4 C s       :     2.762878  s :     2.762878
      pz      :     1.034960  p :     3.027790
      px      :     0.988961
      py      :     1.003870
      dz2     :     0.041714  d :     0.362061
      dxz     :     0.048803
      dyz     :     0.094154
      dx2y2   :     0.092273
      dxy     :     0.085117
      f0      :     0.004034  f :     0.040152
      f+1     :     0.003182
      f-1     :     0.004255
      f+2     :     0.004429
      f-2     :     0.005242
      f+3     :     0.009241
      f-3     :     0.009769

  5 C s       :     2.762889  s :     2.762889
      pz      :     1.034954  p :     3.027800
      px      :     1.002613
      py      :     0.990233
      dz2     :     0.041858  d :     0.361994
      dxz     :     0.093721
      dyz     :     0.049037
      dx2y2   :     0.087886
      dxy     :     0.089492
      f0      :     0.004047  f :     0.040148
      f+1     :     0.004277
      f-1     :     0.003142
      f+2     :     0.004411
      f-2     :     0.005270
      f+3     :     0.007470
      f-3     :     0.011531

  6 C s       :     2.712318  s :     2.712318
      pz      :     0.796785  p :     2.756460
      px      :     1.014472
      py      :     0.945203
      dz2     :     0.041083  d :     0.638707
      dxz     :     0.087257
      dyz     :     0.117323
      dx2y2   :     0.192678
      dxy     :     0.200367
      f0      :     0.005279  f :     0.077812
      f+1     :     0.004103
      f-1     :     0.006218
      f+2     :     0.011553
      f-2     :     0.006787
      f+3     :     0.030686
      f-3     :     0.013187

  7 C s       :     2.712331  s :     2.712331
      pz      :     0.796854  p :     2.756486
      px      :     0.938203
      py      :     1.021429
      dz2     :     0.041118  d :     0.638685
      dxz     :     0.104073
      dyz     :     0.100476
      dx2y2   :     0.190064
      dxy     :     0.202954
      f0      :     0.005277  f :     0.077812
      f+1     :     0.005907
      f-1     :     0.004421
      f+2     :     0.010639
      f-2     :     0.007699
      f+3     :     0.020560
      f-3     :     0.023308

  8 C s       :     2.742216  s :     2.742216
      pz      :     0.988501  p :     3.001177
      px      :     1.027193
      py      :     0.985483
      dz2     :     0.024867  d :     0.359133
      dxz     :     0.071023
      dyz     :     0.010890
      dx2y2   :     0.155517
      dxy     :     0.096835
      f0      :     0.003239  f :     0.039980
      f+1     :     0.004784
      f-1     :     0.003115
      f+2     :     0.002050
      f-2     :     0.005402
      f+3     :     0.012458
      f-3     :     0.008932

  9 C s       :     2.742227  s :     2.742227
      pz      :     0.988478  p :     3.001162
      px      :     0.982950
      py      :     1.029733
      dz2     :     0.024869  d :     0.359130
      dxz     :     0.011455
      dyz     :     0.070481
      dx2y2   :     0.152682
      dxy     :     0.099643
      f0      :     0.003240  f :     0.039978
      f+1     :     0.003094
      f-1     :     0.004804
      f+2     :     0.002131
      f-2     :     0.005324
      f+3     :     0.009062
      f-3     :     0.012324

 10 C s       :     2.697878  s :     2.697878
      pz      :     0.796267  p :     2.753957
      px      :     1.010841
      py      :     0.946849
      dz2     :     0.042367  d :     0.652091
      dxz     :     0.097573
      dyz     :     0.116133
      dx2y2   :     0.195378
      dxy     :     0.200640
      f0      :     0.005100  f :     0.081594
      f+1     :     0.004586
      f-1     :     0.005987
      f+2     :     0.012815
      f-2     :     0.007975
      f+3     :     0.026348
      f-3     :     0.018782

 11 C s       :     2.697899  s :     2.697899
      pz      :     0.796318  p :     2.753959
      px      :     0.946318
      py      :     1.011323
      dz2     :     0.042377  d :     0.652004
      dxz     :     0.121844
      dyz     :     0.091829
      dx2y2   :     0.191299
      dxy     :     0.204655
      f0      :     0.005099  f :     0.081579
      f+1     :     0.006247
      f-1     :     0.004327
      f+2     :     0.015052
      f-2     :     0.005736
      f+3     :     0.013344
      f-3     :     0.031775

 12 C s       :     2.693143  s :     2.693143
      pz      :     0.868440  p :     2.807207
      px      :     0.926223
      py      :     1.012544
      dz2     :     0.042450  d :     0.629277
      dxz     :     0.116696
      dyz     :     0.076413
      dx2y2   :     0.196003
      dxy     :     0.197714
      f0      :     0.005150  f :     0.079013
      f+1     :     0.006245
      f-1     :     0.004576
      f+2     :     0.014147
      f-2     :     0.004231
      f+3     :     0.013658
      f-3     :     0.031006

 13 C s       :     2.693124  s :     2.693124
      pz      :     0.868444  p :     2.807249
      px      :     1.013244
      py      :     0.925561
      dz2     :     0.042457  d :     0.629319
      dxz     :     0.079793
      dyz     :     0.113335
      dx2y2   :     0.196533
      dxy     :     0.197200
      f0      :     0.005151  f :     0.079025
      f+1     :     0.004861
      f-1     :     0.005962
      f+2     :     0.011211
      f-2     :     0.007171
      f+3     :     0.026103
      f-3     :     0.018567

 14 C s       :     2.760145  s :     2.760145
      pz      :     0.925587  p :     2.950669
      px      :     1.027547
      py      :     0.997535
      dz2     :     0.026795  d :     0.364592
      dxz     :     0.064445
      dyz     :     0.017493
      dx2y2   :     0.152206
      dxy     :     0.103653
      f0      :     0.003062  f :     0.046550
      f+1     :     0.003766
      f-1     :     0.003895
      f+2     :     0.000532
      f-2     :     0.008542
      f+3     :     0.017271
      f-3     :     0.009481

 15 C s       :     2.760140  s :     2.760140
      pz      :     0.925619  p :     2.950689
      px      :     1.009820
[...]
  0-1A  -> 13-1A    5.479960   44198.9   226.3   0.000017860   0.00001  -0.00182  -0.00144  -0.00010
  0-1A  -> 14-1A    5.536809   44657.4   223.9   0.003713153   0.00113  -0.02611  -0.02125  -0.00002
  0-1A  -> 15-1A    5.659237   45644.8   219.1   0.013026118   0.00406   0.04031  -0.04938  -0.00076
  0-1A  -> 16-1A    5.674797   45770.3   218.5   0.000628193   0.00020   0.01083   0.00890   0.00004
  0-1A  -> 17-1A    5.801875   46795.3   213.7   0.040510852   0.01296  -0.07210   0.08808   0.00022
  0-1A  -> 18-1A    5.835190   47064.0   212.5   0.001315320   0.00042   0.01589   0.01307   0.00003
  0-1A  -> 19-1A    5.889298   47500.4   210.5   0.000472074   0.00015   0.00956   0.00786   0.00002
  0-1A  -> 20-1A    5.977779   48214.0   207.4   0.010529105   0.00347   0.00101  -0.00103  -0.05889
  0-1A  -> 21-1A    6.013658   48503.4   206.2   0.002552808   0.00085  -0.01802   0.02216  -0.00554
  0-1A  -> 22-1A    6.170667   49769.8   200.9   0.000010930   0.00000   0.00143   0.00130   0.00001
  0-1A  -> 23-1A    6.382723   51480.1   194.2   0.003196377   0.00112   0.02604   0.02113   0.00002
  0-1A  -> 24-1A    6.389645   51536.0   194.0   0.002653141   0.00093  -0.01914   0.02356   0.00357
  0-1A  -> 25-1A    6.469695   52181.6   191.6   0.000537151   0.00019  -0.01070  -0.00878  -0.00011
  0-1A  -> 26-1A    6.507465   52486.2   190.5   0.012351549   0.00443  -0.05166  -0.04198  -0.00008
  0-1A  -> 27-1A    6.551743   52843.4   189.2   0.001036423   0.00037  -0.01500  -0.01222  -0.00000
  0-1A  -> 28-1A    6.636978   53530.8   186.8   0.005126377   0.00188  -0.00264   0.00318   0.04311
  0-1A  -> 29-1A    6.676639   53850.7   185.7   0.012780131   0.00470   0.04333  -0.05315   0.00069
  0-1A  -> 30-1A    6.785030   54725.0   182.7   0.014182667   0.00530   0.04584  -0.05655  -0.00230

------------------------------------------------------------------------------------------
                     CD SPECTRUM VIA TRANSITION ELECTRIC DIPOLE MOMENTS    
------------------------------------------------------------------------------------------
     Transition      Energy     Energy  Wavelength    R        MX        MY        MZ   
                      (eV)      (cm-1)    (nm)   (1e40*cgs)   (au)      (au)      (au)  
------------------------------------------------------------------------------------------
  0-1A  ->  1-1A    2.393650   19306.1   518.0   -0.53449  -0.00562   0.00304   1.29704
  0-1A  ->  2-1A    2.820199   22746.4   439.6   -0.07356   0.00154   0.00127   0.00032
  0-1A  ->  3-1A    4.184768   33752.4   296.3   -7.62672  -0.00328  -0.00251  -0.00076
  0-1A  ->  4-1A    4.278028   34504.6   289.8    0.79918  -0.00058   0.00192  -0.38221
  0-1A  ->  5-1A    4.360381   35168.9   284.3  -18.53469  -0.00659   0.00888  -0.26668
  0-1A  ->  6-1A    4.398634   35477.4   281.9   -3.23742   0.00362   0.00291   0.00082
  0-1A  ->  7-1A    4.882709   39381.7   253.9   -3.82537   0.00321   0.00262   0.00010
  0-1A  ->  8-1A    5.042522   40670.7   245.9  -89.45316   0.13578  -0.16531  -0.26529
  0-1A  ->  9-1A    5.047062   40707.3   245.7  103.06181  -0.17367   0.21293  -0.18002
  0-1A  -> 10-1A    5.125543   41340.3   241.9   -0.04581   0.02455   0.02013   0.00003
  0-1A  -> 11-1A    5.355347   43193.8   231.5    2.76581  -0.00066  -0.00076   0.54375
  0-1A  -> 12-1A    5.415428   43678.4   228.9    2.29865  -0.02638   0.03189   0.03422
  0-1A  -> 13-1A    5.479960   44198.9   226.3    8.77119  -0.22566  -0.18447  -0.00045
  0-1A  -> 14-1A    5.536809   44657.4   223.9   -7.41138   0.01307   0.01056  -0.00011
  0-1A  -> 15-1A    5.659237   45644.8   219.1    8.01508   0.00131   0.00089  -0.85301
  0-1A  -> 16-1A    5.674797   45770.3   218.5   -1.93709  -0.00608  -0.00501   0.00065
  0-1A  -> 17-1A    5.801875   46795.3   213.7    1.26763  -0.00299   0.00299   0.26094
  0-1A  -> 18-1A    5.835190   47064.0   212.5   -0.05617   0.00049   0.00044  -0.00028
  0-1A  -> 19-1A    5.889298   47500.4   210.5   -0.21186   0.00611   0.00503  -0.00059
  0-1A  -> 20-1A    5.977779   48214.0   207.4    0.06471   0.00244  -0.00269  -0.00274
  0-1A  -> 21-1A    6.013658   48503.4   206.2   -2.31193   0.00230  -0.00216  -0.22610
  0-1A  -> 22-1A    6.170667   49769.8   200.9   -3.34421  -0.12125  -0.09941  -0.00005
  0-1A  -> 23-1A    6.382723   51480.1   194.2    1.37658  -0.01268  -0.01018  -0.00008
  0-1A  -> 24-1A    6.389645   51536.0   194.0    3.96572  -0.01036   0.01276   0.06642
  0-1A  -> 25-1A    6.469695   52181.6   191.6    0.46795  -0.02274  -0.01842  -0.00032
  0-1A  -> 26-1A    6.507465   52486.2   190.5   -3.31019   0.02471   0.02003   0.00048
  0-1A  -> 27-1A    6.551743   52843.4   189.2    4.54855  -0.11624  -0.09505  -0.00023
  0-1A  -> 28-1A    6.636978   53530.8   186.8    3.30114  -0.14361   0.17616  -0.00979
  0-1A  -> 29-1A    6.676639   53850.7   185.7   -1.58713  -0.00922   0.01158  -0.07748
  0-1A  -> 30-1A    6.785030   54725.0   182.7    0.63511  -0.00076   0.00148  -0.20569

------------------------------------------------------------------------------------------
                     CD SPECTRUM VIA TRANSITION VELOCITY DIPOLE MOMENTS    
------------------------------------------------------------------------------------------
     Transition      Energy     Energy  Wavelength    R        MX        MY        MZ   
                      (eV)      (cm-1)    (nm)   (1e40*cgs)   (au)      (au)      (au)  
------------------------------------------------------------------------------------------
  0-1A  ->  1-1A    2.393650   19306.1   518.0   -1.17917  -0.00562   0.00304   1.29704
  0-1A  ->  2-1A    2.820199   22746.4   439.6   -0.02613   0.00154   0.00127   0.00032
  0-1A  ->  3-1A    4.184768   33752.4   296.3   -0.20964  -0.00328  -0.00251  -0.00076
  0-1A  ->  4-1A    4.278028   34504.6   289.8    0.79580  -0.00058   0.00192  -0.38221
  0-1A  ->  5-1A    4.360381   35168.9   284.3    0.31283  -0.00659   0.00888  -0.26668
  0-1A  ->  6-1A    4.398634   35477.4   281.9   -0.11248   0.00362   0.00291   0.00082
  0-1A  ->  7-1A    4.882709   39381.7   253.9    0.27778   0.00321   0.00262   0.00010
  0-1A  ->  8-1A    5.042522   40670.7   245.9   -9.02858   0.13578  -0.16531  -0.26529
  0-1A  ->  9-1A    5.047062   40707.3   245.7   11.59146  -0.17367   0.21293  -0.18002
  0-1A  -> 10-1A    5.125543   41340.3   241.9    0.13994   0.02455   0.02013   0.00003
  0-1A  -> 11-1A    5.355347   43193.8   231.5   -2.23354  -0.00066  -0.00076   0.54375
  0-1A  -> 12-1A    5.415428   43678.4   228.9    0.83942  -0.02638   0.03189   0.03422
  0-1A  -> 13-1A    5.479960   44198.9   226.3    1.58336  -0.22566  -0.18447  -0.00045
  0-1A  -> 14-1A    5.536809   44657.4   223.9   -1.31078   0.01307   0.01056  -0.00011
  0-1A  -> 15-1A    5.659237   45644.8   219.1    1.48655   0.00131   0.00089  -0.85301
  0-1A  -> 16-1A    5.674797   45770.3   218.5   -0.24963  -0.00608  -0.00501   0.00065
  0-1A  -> 17-1A    5.801875   46795.3   213.7    1.18818  -0.00299   0.00299   0.26094
  0-1A  -> 18-1A    5.835190   47064.0   212.5    0.02978   0.00049   0.00044  -0.00028
  0-1A  -> 19-1A    5.889298   47500.4   210.5    0.21334   0.00611   0.00503  -0.00059
  0-1A  -> 20-1A    5.977779   48214.0   207.4    0.35755   0.00244  -0.00269  -0.00274
  0-1A  -> 21-1A    6.013658   48503.4   206.2    2.48140   0.00230  -0.00216  -0.22610
  0-1A  -> 22-1A    6.170667   49769.8   200.9   -0.62768  -0.12125  -0.09941  -0.00005
  0-1A  -> 23-1A    6.382723   51480.1   194.2   -1.09602  -0.01268  -0.01018  -0.00008
  0-1A  -> 24-1A    6.389645   51536.0   194.0    1.47848  -0.01036   0.01276   0.06642
  0-1A  -> 25-1A    6.469695   52181.6   191.6    0.80322  -0.02274  -0.01842  -0.00032
  0-1A  -> 26-1A    6.507465   52486.2   190.5   -4.17436   0.02471   0.02003   0.00048
  0-1A  -> 27-1A    6.551743   52843.4   189.2    5.68830  -0.11624  -0.09505  -0.00023
  0-1A  -> 28-1A    6.636978   53530.8   186.8    0.99806  -0.14361   0.17616  -0.00979
  0-1A  -> 29-1A    6.676639   53850.7   185.7   -2.05238  -0.00922   0.01158  -0.07748
  0-1A  -> 30-1A    6.785030   54725.0   182.7    0.66995  -0.00076   0.00148  -0.20569

Total run time:     5745.244 sec

           *** ORCA-CIS/TD-DFT FINISHED WITHOUT ERROR ***
-----------------------
CIS/TD-DFT TOTAL ENERGY
-----------------------

    E(SCF)  =  -1189.821722592 Eh
    DE(CIS) =      0.087965015 Eh (Root  1)
    ----------------------------- ---------
    E(tot)  =  -1189.733757577 Eh


Maximum memory used throughout the entire CIS-calculation: 2684.2 MB
=> NOW LEAVING ORCA_CIS


-------------------------------------------------------------------------------
                          DFT DISPERSION CORRECTION                            
                                                                               
                              DFTD3 V3.1  Rev 1                                
                              USING zero damping                               
-------------------------------------------------------------------------------
The omegaB97X-D3 functional is recognized. Fit by Chai et al.
Active option DFTDOPT                   ...         3   

molecular C6(AA) [au] = 22114.517997 


            DFT-D V3
 parameters
 s6 scaling factor         :     1.0000 
 rs6 scaling factor        :     1.2810 
 s8 scaling factor         :     1.0000 
 rs8 scaling factor        :     1.0940 
 Damping factor alpha6     :    14.0000 
 Damping factor alpha8     :    16.0000 
 ad hoc parameters k1-k3   :    16.0000     1.3333    -4.0000 

 Edisp/kcal,au: -11.580984657182  -0.018455471830 
 E6   /kcal   :  -5.080828504 
 E8   /kcal   :  -6.500156153 
 % E8         :  56.127836672 

-------------------------   ----------------
Dispersion correction           -0.018455472
-------------------------   ----------------


-------------------------   --------------------
FINAL SINGLE POINT ENERGY     -1189.752213048986
-------------------------   --------------------



           ************************************************************
           *        Program running with 4 parallel MPI-processes     *
           *              working on a common directory               *
           ************************************************************

------------------------------------------------------------------------------
                              ORCA PROPERTY CALCULATIONS
------------------------------------------------------------------------------

GBWName                                 ... tddft.gbw
Number of atoms                         ...     39
Number of basis functions               ...    860
Max core memory                         ...   3000 MB

Electric properties:
Dipole moment                           ... YES
Quadrupole moment                       ...  NO
Static polarizability (Dipole/Dipole)   ...  NO
Static polarizability (Dipole/Quad.)    ...  NO
Static polarizability (Quad./Quad.)     ...  NO
Static polarizability (Velocity)        ...  NO
Static hyperpolarizability              ...  NO

Atomic electric properties:
Dipole moment                           ...  NO
Quadrupole moment                       ...  NO
Static polarizability                   ...  NO

Choice of electric origin               ... Center of mass
Position of electric origin             ...     0.020726     0.037348     0.001110

General magnetic properties:
Magnetizability                         ...  NO

EPR properties:
g-Tensor (aka g-matrix)                 ...  NO
Zero-Field splitting spin-orbit         ...  NO
Zero-field splitting spin-spin          ...  NO
Hyperfine couplings                     ...  NO (   0 nuclei)
Quadrupole couplings                    ...  NO (   0 nuclei)
Contact density                         ...  NO (   0 nuclei)

NMR properties:
Chemical shifts                         ...  NO (   0 nuclei)
Spin-rotation constants                 ...  NO (   0 nuclei)
Spin-spin couplings                     ...  NO (   0 nuclei,    0 pairs)

Choice of magnetic origin               ... GIAO
Position of magnetic origin             ...     0.000000     0.000000     0.000000

Properties with geometric perturbations:
SCF Hessian                             ...  NO
IR spectrum                             ...  NO
VCD spectrum                            ...  NO
X-ray spectroscopy properties:
SCF XES/XAS/RIXS spectra                ...  NO

SCF SOC stabilization energy            ...  NO
Diagonal Born-Oppenheimer correction    ...  NO

-------------
DIPOLE MOMENT
-------------

Method             : SCF
Type of density    : Electron Density
Multiplicity       :   1
Irrep              :   0
Energy             : -1189.8217225922560374 Eh
Basis              : AO
                                X                 Y                 Z
Electronic contribution:     -5.670757800      -4.627766570      -0.011593051
Nuclear contribution   :      6.309094870       5.149182336       0.012909410
                        -----------------------------------------
Total Dipole Moment    :      0.638337070       0.521415766       0.001316358
                        -----------------------------------------
Magnitude (a.u.)       :      0.824227122
Magnitude (Debye)      :      2.095018851



--------------------
Rotational spectrum 
--------------------
 
Rotational constants in cm-1:             0.008906             0.008560             0.004372 
Rotational constants in MHz :           266.993354           256.633129           131.080005 

Dipole components along the rotational axes: 
x,y,z [a.u.] :     0.824227    -0.000655    -0.000208 
x,y,z [Debye]:     2.095018    -0.001664    -0.000529 

 

Dipole moment calculation done in   0.0 sec 

Maximum memory used throughout the entire PROP-calculation: 88.5 MB

--------------------------------
SUGGESTED CITATIONS FOR THIS RUN
--------------------------------

Below you find a list of papers that are relevant to this ORCA run
We neither can nor want to force you to cite these papers, but we appreciate if you do
You receive ORCA, which is the product of decades of hard work by many enthusiastic individuals, for free
The only thing we kindly ask in return is that you cite our papers,
We deeply appreciate it, if you show your appreciation for ORCA by not just citing the generic ORCA reference.

Please note that relegating all ORCA citations to the supporting information does *not* help us.
SI sections are not indexed - citations you put there will not count into any citation statistics
But we need these citations in order to attract the funding resources that allow us to do what we are doing

Therefore, if you are a happy ORCA user, please consider citing a few of the papers listed below in the main body of your paper

In addition to the list printed below, the program has created the file tddft.bibtex that contains the list in bibtex format
You can import this file easily into all common literature databanks and citation aid programs

It goes without saying that in many instances, there are alternative algorithms to achieve similar
results as the ones you have gotten from ORCA. It is, of course, also the case that in some instances
ORCA just re-implements algorithms worked out by others. We are fully aware of that and we are also
fully appreciative of our colleagues work. Hence this citation list should not be read as indicating
that the listed papers, which are focused on our own work, are the only ones worth citing. It simply
meant to make it easier for users to cite ORCA specific papers. It is not a substitute for doing your
own literature research and citing the relevant literature in a scientifically appropriate manner.

List of essential papers. We consider these as the minimum necessary citations

  1. Neese, F.
     Software update: the ORCA program system, version 6.0
     WIRES Comput. Molec. Sci. 2025 15(1), e70019
     doi.org/10.1002/wcms.70019

List of papers to cite with high priority. The work reported in these papers was absolutely
necessary for this run to complete.
Our perspective: the developers of density functionals and basis sets usually get cited in chemistry papers
Good! But without the algorithms to do something with them, the functionals or basis sets would not do anything.
Hence, in our opinion, the algorithm design and method developments papers are equally worthy of getting cited

  1. Neese, F.; Olbrich, G.
     Efficient use of the resolution of the identity approximation in time-dependent density functional calculations with hybrid density functionals
     Chem. Phys. Lett. 2002 362 , 170-178
     doi.org/10.1016/s0009-2614(02)01053-9
  2. Neese, F.
     An improvement of the resolution of the identity approximation for the formation of the Coulomb matrix
     J. Comp. Chem. 2003 24(14), 1740-1747
     doi.org/10.1002/jcc.10318
  3. Neese, F.; Wennmohs, F.; Hansen, A.; Becker, U.
     Efficient, approximate and parallel Hartree-Fock and hybrid DFT calculations. A 'chain-of-spheres' algorithm for the Hartree-Fock exchange
     Chem. Phys. 2009 356(1-3), 98-109
     doi.org/10.1016/j.chemphys.2008.10.036
  4. Grimme, S.; Antony, J.; Ehrlich, S.; Krieg, H.
     A consistent and accurate ab initio parametrization of density functional dispersion correction (DFT-D) for the 94 elements H-Pu
     J. Chem. Phys. 2010 132 , 154104
     doi.org/10.1063/1.3382344
  5. Helmich-Paris, B.; de Souza, B.; Neese, F.; Izsák, R.
     An improved chain of spheres for exchange algorithm
     J. Chem. Phys. 2021 155(10), 104109
     doi.org/10.1063/5.0058766
  6. Neese, F.
     The SHARK Integral Generation and Digestion System
     J. Comp. Chem. 2022 44(3), 381
     doi.org/10.1002/jcc.26942

List of suggested additional citations. These are papers that are important in the 'surrounding' of 
of this run, or papers that preceded the highly important papers. If you like your results we are grateful for a citation.

  1. Izsak, R.; Neese, F.
     An overlap fitted chain of spheres exchange method
     J. Chem. Phys. 2011 135 , 144105
     doi.org/10.1063/1.3646921
  2. Izsak, R.; Hansen, A.; Neese, F.
     The resolution of identity and chain of spheres approximations for the LPNO-CCSD singles Fock term
     Molec. Phys. 2012 110 , 2413-2417
     doi.org/10.1080/00268976.2012.687466
  3. Neese, F.
     The ORCA program system
     WIRES Comput. Molec. Sci. 2012 2(1), 73-78
     doi.org/10.1002/wcms.81
  4. Izsak, R.; Neese, F.; Klopper, W.
     Robust fitting techniques in the chain of spheres approximation to the Fock exchange: The role of the complementary space
     J. Chem. Phys. 2013 139 , 
     doi.org/10.1063/1.4819264
  5. Neese, F.
     Software update: the ORCA program system, version 4.0
     WIRES Comput. Molec. Sci. 2018 8(1), 1-6
     doi.org/10.1002/wcms.1327
  6. Neese, F.; Wennmohs, F.; Becker, U.; Riplinger, C.
     The ORCA quantum chemistry program package
     J. Chem. Phys. 2020 152(22), 224108
     doi.org/10.1063/5.0004608
  7. Neese, F.
     Software update: The ORCA program system—Version 5.0
     WIRES Comput. Molec. Sci. 2022 12(1), e1606
     doi.org/10.1002/wcms.1606

List of optional additional citations

  1. Neese, F.
     Approximate second-order SCF convergence for spin unrestricted wavefunctions
     Chem. Phys. Lett. 2000 325(1-3), 93-98
     doi.org/10.1016/s0009-2614(00)00662-x

Timings for individual modules:

Sum of individual times          ...     8159.737 sec (= 135.996 min)
Startup calculation              ...       20.202 sec (=   0.337 min)   0.2 %
SCF iterations                   ...     2391.936 sec (=  39.866 min)  29.3 %
Property integrals               ...        1.423 sec (=   0.024 min)   0.0 %
Property calculations            ...        0.565 sec (=   0.009 min)   0.0 %
CIS module                       ...     5745.612 sec (=  95.760 min)  70.4 %
                             ****ORCA TERMINATED NORMALLY****
TOTAL RUN TIME: 0 days 2 hours 16 minutes 0 seconds 170 msec
