
                                 *****************
                                 * O   R   C   A *
                                 *****************

                                            #,                                       
                                            ###                                      
                                            ####                                     
                                            #####                                    
                                            ######                                   
                                           ########,                                 
                                     ,,################,,,,,                         
                               ,,#################################,,                 
                          ,,##########################################,,             
                       ,#########################################, ''#####,          
                    ,#############################################,,   '####,        
                  ,##################################################,,,,####,       
                ,###########''''           ''''###############################       
              ,#####''   ,,,,##########,,,,          '''####'''          '####       
            ,##' ,,,,###########################,,,                        '##       
           ' ,,###''''                  '''############,,,                           
         ,,##''                                '''############,,,,        ,,,,,,###''
      ,#''                                            '''#######################'''  
     '                                                          ''''####''''         
             ,#######,   #######,   ,#######,      ##                                
            ,#'     '#,  ##    ##  ,#'     '#,    #''#        ,####,    ,#,          
            ##       ##  ##   ,#'  ##            #'  '#       #'       ,# #          
            ##       ##  #######   ##           ,######,      #####,      #          
            '#,     ,#'  ##    ##  '#,     ,#' ,#      #,     #,   #      #          
             '#######'   ##     ##  '#######'  #'      '#     '####' #    #          



                #########################################################
                #                        -***-                          #
                #          Department of theory and spectroscopy        #
                #                                                       #
                #                      Frank Neese                      #
                #                                                       #
                #     Directorship, Architecture, Infrastructure        #
                #                    SHARK, DRIVERS                     #
                #        Core code/Algorithms in most modules           #
                #                                                       #
                #        Max Planck Institute fuer Kohlenforschung      #
                #                Kaiser Wilhelm Platz 1                 #
                #                 D-45470 Muelheim/Ruhr                 #
                #                      Germany                          #
                #                                                       #
                #                  All rights reserved                  #
                #                        -***-                          #
                #########################################################


                         Program Version 6.1.1  -  RELEASE   -
                                (GIT: $487d211c$)
                          ($2025-11-21 10:33:24 +0100$)


 With contributions from (in alphabetic order):
[Max-Planck-Institut fuer Kohlenforschung]                               
  Daniel Aravena         : Magnetic Suceptibility                        
  Michael Atanasov       : Ab Initio Ligand Field Theory (pilot matlab implementation)
  Alexander A. Auer      : GIAO ZORA, VPT2 properties, NMR spectrum      
  Ute Becker             : All parallelization in ORCA, NUMFREQ, NUMCALC 
  Giovanni Bistoni       : ED, misc. LED, open-shell LED, HFLD           
  Dmytro Bykov           : pre 5.0 version of the SCF Hessian            
  Marcos Casanova-Páez   : Triplet and SCS-CIS(D). UHF-(DLPNO)-IP/EA/STEOM-CCSD. UHF-CVS-IP/STEOM-CCSD   
  Vijay G. Chilkuri      : MRCI spin determinant printing, contributions to CSF-ICE 
  Pauline Colinet        : FMM embedding                                 
  Dipayan Datta          : RHF DLPNO-CCSD density                        
  Achintya Kumar Dutta   : EOM-CC, STEOM-CC                              
  Nicolas Foglia         : Exact transition moments, OPA infrastructure, MCD improvements    
  Dmitry Ganyushin       : Spin-Orbit,Spin-Spin,Magnetic field MRCI      
  Miquel Garcia-Rates    : C-PCM and meta-GGA Hessian, CCSD/C-PCM, Gaussian charge scheme 
  Tiago L. C. Gouveia    : GS-ROHF, GS-ROCIS                             
  Yang Guo               : DLPNO-NEVPT2, F12-NEVPT2, CIM, IAO-localization        
  Andreas Hansen         : Spin unrestricted coupled pair/coupled cluster methods 
  Ingolf Harden          : AUTO-CI MPn and infrastructure                
  Benjamin Helmich-Paris : MC-RPA, TRAH-(SCF,CASSCF), AVAS, COSX integrals, SCF dyn. polar., MC-PDFT, srDFT 
  Lee Huntington         : MR-EOM, pCC                                   
  Robert Izsak           : Overlap fitted RIJCOSX, COSX-SCS-MP3, EOM     
  Riya Kayal             : Wick's Theorem for AUTO-CI, AUTO-CI UHF-CCSDT 
  Emily Kempfer          : AUTO-CI RHF CISDT and CCSDT, approximate NEVPT4
  Christian Kollmar      : KDIIS, OOCD, Brueckner-CCSD(T), CCSD density, CASPT2, CASPT2-K, improved NEVPT2 
  Axel Koslowski         : Symmetry handling                             
  Simone Kossmann        : meta-GGA functionals, TD-DFT gradient, OOMP2, (MP2 Hessian; deprecated post 5.0) 
  Lucas Lang             : DCDCAS, Hyperfine gauge corrections, ICE-SOC+SSC
  Marvin Lechner         : AUTO-CI (C++ implementation), FIC-MRCC        
  Spencer Leger          : CASSCF response                               
  Dagmar Lenk            : GEPOL surface, SMD, ORCA-2-JSON               
  Dimitrios Liakos       : Extrapolation schemes; Compound Job, Property file
  Dimitrios Manganas     : Further ROCIS development; embedding schemes. LFT, Crystal Embedding 
  Dimitrios Pantazis     : SARC Basis sets                               
  Anastasios Papadopoulos: AUTO-CI, single reference methods and gradients 
  Taras Petrenko         : pre 6.0 DFT Hessian and TD-DFT gradient,  ECA, NRVS 
  Petra Pikulova         : Analytic Raman intensities                    
  Peter Pinski           : DLPNO-MP2, DLPNO-MP2 Gradient                 
  Shashank Vittal Rao    : ES-AILFT, MagRelax                            
  Christoph Reimann      : Effective Core Potentials                     
  Marius Retegan         : Local ZFS, SOC                                
  Christoph Riplinger    : Optimizer, TS searches, QM/MM, DLPNO-CCSD(T), (RO)-DLPNO pert. Triples 
  Michael Roemelt        : Original ROCIS implementation, recursive CI coupling coefficients
  Masaaki Saitow         : Open-shell DLPNO-CCSD energy and density      
  Barbara Sandhoefer     : DKH picture change effects                    
  Yorick L. A. Schmerwitz: GMF and freeze-and-release deltaSCF, NEB S-IDPP initial path                    
  Kantharuban Sivalingam : CASSCF convergence/infrastructure, NEVPT2, NEVPT3, NEVPT4(SD), FIC-MRCI and CEPA variants
  Bernardo de Souza      : ESD, SOC TD-DFT                               
  Georgi L. Stoychev     : AutoAux, RI-MP2 NMR, DLPNO-MP2 response, X2C  
  Van Anh Tran           : RI-MP2 g-tensors                              
  Willem Van den Heuvel  : Paramagnetic NMR                              
  Zikuan Wang            : NOTCH, Electric field optimization            
  Frank Wennmohs         : Technical directorship and infrastructure     
  Hang Xu                : AUTO-CI-Response properties                   
                                                                         
[FACCTs GmbH]                                                            
  Markus Bursch, Nicolas Foglia, Miquel Garcia-Rates, Ingolf Harden, Hagen Neugebauer, Anastasios Papadopoulos, 
  Christoph Riplinger, Bernardo de Souza, Georgi L. Stoychev                                                    
                                                                 
  APM, various basis sets, CI-OPT, improved COSX, DLPNO-Multilevel,           
  DOCKER, DRACO, updates on ESD, Fragmentator, GOAT, IRC, LR-CPCM, L-BFGS, MBIS, meta-GGA TD-DFT gradient, ML-optimized integration grids, 
  MM, NACMEs, nearIR, NEB, NEB-TS, NL-DFT gradient (VV10), 2- and 3-layer-ONIOM, interface openCOSMO-RS, QMMM,   
  Crystal-QMMM, RESP, rigid body optimization, SF, symmetry and pop. for TD-DFT, various functionals, SOLVATOR                                   
                                                                         
[Other institutions]                                                     
  V. Asgeirsson          : NEB                                           
  Christoph Bannwarth    : sTDA-DFT, sTD-DFT, PBEh-3c, B97-3c, D3        
  Giovanni Bistoni       : ETS/NOCV, ADLD/ADEX, COVALED                  
  Martin Brehm           : Molecular dynamics                            
  Ronald Cardenas        : ETS/NOCV                                      
  Martina Colucci        : COVALED                                       
  Sebastian Ehlert       : rSCAN, r2SCAN, r2SCAN-3c, D4, dhf basis sets  
  Marvin Friede          : D4 for Fr, Ra, Ac-Lr                          
  Lars Goerigk           : TD-DFT with DH, B97 family of functionals     
  Stefan Grimme          : VdW corrections, initial TS optimization, DFT functionals, gCP, sTDA/sTD-DF 
  Waldemar Hujo          : DFT-NL                                        
  H. Jonsson             : NEB                                           
  Holger Kruse           : gCP                                           
  Marcel Mueller         : wB97X-3c, vDZP basis set                      
  Hagen Neugebauer       : wr2SCAN, Native XTB                           
  Gianluca Regni         : ADLD/ADEX                                     
  Tobias Risthaus        : pre 6.0 range-separated hybrid DFT and stability analysis
  Lukas Wittmann         : regularized MP2, r2SCAN double-hybrids, wr2SCAN        
                                                                         
We gratefully acknowledge several colleagues who have allowed us to      
interface, adapt or use parts of their codes:                            
  Ed Valeev, F. Pavosevic, A. Kumar             : LibInt (2-el integral package), F12 methods 
  Garnet Chan, S. Sharma, J. Yang, R. Olivares  : DMRG                   
  Ulf Ekstrom                                   : XCFun DFT Library      
  Mihaly Kallay                                 : mrcc  (arbitrary order and MRCC methods)
  Frank Weinhold                                : gennbo (NPA and NBO analysis)           
  Simon Mueller                                 : openCOSMO-RS                            
  Christopher J. Cramer and Donald G. Truhlar   : smd solvation model                     
  S Lehtola, MJT Oliveira, MAL Marques          : LibXC Library                           
  Liviu Ungur et al                             : ANISO software                          


 Your calculation uses the libint2 library for the computation of 2-el integrals
 For citations please refer to: http://libint.valeyev.net

 Your ORCA version has been built with support for libXC version: 7.0.0
 For citations please refer to: https://libxc.gitlab.io

 This ORCA versions uses:
   CBLAS   interface :  Fast vector & matrix operations
   LAPACKE interface :  Fast linear algebra routines
   SCALAPACK package :  Parallel linear algebra routines
   Shared memory     :  Shared parallel matrices
   BLAS/LAPACK       :  OpenBLAS 0.3.29  USE64BITINT DYNAMIC_ARCH NO_AFFINITY Haswell SINGLE_THREADED
        Core in use  :  Haswell
   Copyright (c) 2011-2014, The OpenBLAS Project


  ***********************************
  * Starting time: Sun Jul  5 21:31:48 2026
  * Host name:     steezy
  * Process ID:    1300421
  * Working dir.:  /home/jannes/chlorophyll-ladder/007-mg-core-ladder/mgchlorin/03_tddft_ch2cl2/m062x
  ***********************************

NOTE: MaxCore=3000 MB was set to SCF,MP2,MDCI,CIPSI,MRCI,RASCI and CIS
      => If you want to overwrite this, your respective input block should be placed after the MaxCore statement


***************************************
The coordinates will be read from file: /home/jannes/chlorophyll-ladder/007-mg-core-ladder/mgchlorin/01_opt/mgchlorin_opt_b3lypd4_tzvp.xyz
***************************************


XCFun DFT library Copyright 2009-2010 Ulf Ekstrom and contributors.
See http://admol.org/xcfun for more information.
This is free software; see the source code for copying conditions.
There is ABSOLUTELY NO WARRANTY; not even for MERCHANTABILITY or FITNESS FOR A PARTICULAR PURPOSE.
For details see the documentation.
Scientific users of this library should cite U. Ekstrom, L. Visscher, R. Bast, A. J. Thorvaldsen and K. Ruud;
J.Chem.Theor.Comp. 2010, DOI: 10.1021/ct100117s
XCFun Version 0.99 

================================================================================

----- Orbital basis set information -----
Your calculation utilizes the basis: def2-TZVP
   F. Weigend and R. Ahlrichs, Phys. Chem. Chem. Phys. 7, 3297 (2005).

----- AuxJ basis set information -----
Your calculation utilizes the auxiliary basis: def2/J
   H-Rn: F. Weigend, Phys. Chem. Chem. Phys. 8, 1057 (2006).
   Fr-Lr: K. Eichkorn, F. Weigend, O. Treutler, R. Ahlrichs; Theor. Chem. Acc. 97, 119 (1997).

================================================================================
                                        WARNINGS
                       Please study these warnings very carefully!
================================================================================

WARNING: Functional chosen is sensitive to the integration grid.
         DEFGRID3 seems to be a minimum grid for robust results!

WARNING: CIS/ROCIS methods need fully converged wavefunctions
  ===> : Setting SCFConvForced true
         You can overwrite this default with %scf ConvForced false 


================================================================================
                                       INPUT FILE
================================================================================
NAME = tddft.inp
|  1> %pal nprocs 4 end
|  2> %maxcore 3000
|  3> ! M062X def2-TZVP def2/J RIJCOSX DefGrid3 TightSCF CPCM(CH2Cl2)
|  4> %tddft
|  5>   nroots 30
|  6>   tda false
|  7>   triplets false
|  8> end
|  9> * xyzfile 0 1 /home/jannes/chlorophyll-ladder/007-mg-core-ladder/mgchlorin/01_opt/mgchlorin_opt_b3lypd4_tzvp.xyz
| 10> 
| 11>                          ****END OF INPUT****
================================================================================

                       ****************************
                       * Single Point Calculation *
                       ****************************

---------------------------------
CARTESIAN COORDINATES (ANGSTROEM)
---------------------------------
  N      1.617376    1.330383    0.004551
  N     -1.306529    1.580997    0.003644
  N      1.276091   -1.584198   -0.002271
  N     -1.612608   -1.304895   -0.003475
  C      2.875203    3.342362   -0.063685
  C      3.840630    2.159068    0.079915
  C      1.509656    2.684377   -0.016153
  C      2.922172    0.953296    0.027878
  C      0.336508    3.400638   -0.015219
  C      3.388460   -0.339731    0.025539
  C     -0.976132    2.896056   -0.002122
  C      2.630796   -1.524412    0.007627
  C     -2.686758    1.511059    0.009704
  C      0.930668   -2.922223   -0.012658
  C     -2.169427    3.701790    0.002039
  C      3.180636   -2.855093    0.001851
  C     -3.225855    2.843438    0.009928
  C      2.127735   -3.717737   -0.011279
  C     -3.426856    0.343504    0.009772
  C     -0.361658   -3.413010   -0.017853
  C     -2.938073   -0.969119    0.002267
  C     -1.549551   -2.670848   -0.012186
  C     -3.737889   -2.157029   -0.002719
  C     -2.873771   -3.216052   -0.012243
  H      3.004410    3.866805   -1.013495
  H      2.986016    4.085160    0.727134
  H      4.377829    2.179169    1.031116
  H      4.592202    2.120440   -0.709370
  H      0.429527    4.479453   -0.029677
  H      4.463992   -0.464803    0.042863
  H     -2.189602    4.780461   -0.001150
  H      4.233282   -3.091377    0.007587
  H     -4.277438    3.085144    0.014504
  H      2.153498   -4.796427   -0.018419
  H     -4.504247    0.454657    0.013550
  H     -0.468513   -4.490823   -0.024516
  H     -4.816548   -2.181344    0.000207
  H     -3.114006   -4.267872   -0.018337
  Mg    -0.018551   -0.004412    0.000625

----------------------------
CARTESIAN COORDINATES (A.U.)
----------------------------
  NO LB      ZA    FRAG     MASS         X           Y           Z
   0 N     7.0000    0    14.007    3.056398    2.514059    0.008600
   1 N     7.0000    0    14.007   -2.468981    2.987652    0.006887
   2 N     7.0000    0    14.007    2.411463   -2.993700   -0.004293
   3 N     7.0000    0    14.007   -3.047387   -2.465895   -0.006567
   4 C     6.0000    0    12.011    5.433346    6.316149   -0.120347
   5 C     6.0000    0    12.011    7.257738    4.080048    0.151018
   6 C     6.0000    0    12.011    2.852836    5.072737   -0.030524
   7 C     6.0000    0    12.011    5.522104    1.801468    0.052683
   8 C     6.0000    0    12.011    0.635908    6.426274   -0.028760
   9 C     6.0000    0    12.011    6.403262   -0.641999    0.048262
  10 C     6.0000    0    12.011   -1.844622    5.472752   -0.004009
  11 C     6.0000    0    12.011    4.971483   -2.880721    0.014414
  12 C     6.0000    0    12.011   -5.077236    2.855488    0.018338
  13 C     6.0000    0    12.011    1.758707   -5.522200   -0.023920
  14 C     6.0000    0    12.011   -4.099623    6.995369    0.003853
  15 C     6.0000    0    12.011    6.010530   -5.395343    0.003498
  16 C     6.0000    0    12.011   -6.095983    5.373319    0.018761
  17 C     6.0000    0    12.011    4.020836   -7.025504   -0.021315
  18 C     6.0000    0    12.011   -6.475819    0.649128    0.018466
  19 C     6.0000    0    12.011   -0.683435   -6.449655   -0.033738
  20 C     6.0000    0    12.011   -5.552153   -1.831369    0.004284
  21 C     6.0000    0    12.011   -2.928227   -5.047171   -0.023027
  22 C     6.0000    0    12.011   -7.063586   -4.076195   -0.005137
  23 C     6.0000    0    12.011   -5.430639   -6.077458   -0.023136
  24 H     1.0000    0     1.008    5.677511    7.307202   -1.915228
  25 H     1.0000    0     1.008    5.642753    7.719833    1.374085
  26 H     1.0000    0     1.008    8.272899    4.118034    1.948527
  27 H     1.0000    0     1.008    8.678005    4.007051   -1.340516
  28 H     1.0000    0     1.008    0.811688    8.464939   -0.056081
  29 H     1.0000    0     1.008    8.435723   -0.878351    0.081000
  30 H     1.0000    0     1.008   -4.137748    9.033761   -0.002174
  31 H     1.0000    0     1.008    7.999744   -5.841856    0.014337
  32 H     1.0000    0     1.008   -8.083187    5.830076    0.027408
  33 H     1.0000    0     1.008    4.069522   -9.063934   -0.034807
  34 H     1.0000    0     1.008   -8.511794    0.859178    0.025605
  35 H     1.0000    0     1.008   -0.885361   -8.486426   -0.046329
  36 H     1.0000    0     1.008   -9.101956   -4.122142    0.000392
  37 H     1.0000    0     1.008   -5.884618   -8.065109   -0.034653
  38 Mg   12.0000    0    24.305   -0.035057   -0.008338    0.001182

--------------------------------
INTERNAL COORDINATES (ANGSTROEM)
--------------------------------
 N      0   0   0     0.000000000000     0.00000000     0.00000000
 N      1   0   0     2.934625567277     0.00000000     0.00000000
 N      1   2   0     2.934502219461    88.22026361     0.00000000
 N      2   1   3     2.902087324163    91.15525092     0.00000000
 C      1   2   3     2.373783144973   117.10066924   178.00775617
 C      5   1   2     1.533901517256    71.15336793   175.74864028
 C      1   2   3     1.358430124362    80.55312792   178.98494255
 C      1   2   3     1.358392392334   168.73866091   354.91154939
 C      7   1   2     1.374520448020   125.94914713     0.55405638
 C      8   1   7     1.374536203187   125.94130379   181.39600351
 C      2   1   3     1.355940334932    80.79598169   180.38241652
 C      3   1   2     1.356059119169    80.79364978   180.38854817
 C      2   1   3     1.382013227933   172.19563123     2.11228019
 C      3   1   2     1.381931604181   172.19772945     2.18695519
 C     11   2   1     1.439853693466   109.92374504   180.32182958
 C     12   3   1     1.439815791155   109.92104971   180.32893451
 C     15  11   2     1.361202173100   106.87870823     0.00000000
 C     16  12   3     1.361222836597   106.87868208     0.00000000
 C     13   2  11     1.382364012124   125.27049495   179.64780351
 C     14   3  12     1.382391454942   125.27124228   179.65348396
 C      4   2   1     1.367346283750    81.83816516   179.76221527
 C      4   2   1     1.367434918034   171.29992091   358.49070100
 C     21   4   2     1.432083165488   109.73552966   179.80925939
 C     23  21   4     1.366865067502   106.83566180   359.97041685
 H      5   1   2     1.092645014934   119.63454595   281.07952700
 H      5   1   2     1.090606617469   127.60927975    70.55922818
 H      6   5   1     1.092598204440   112.13340192   244.83271966
 H      6   5   1     1.090562030620   113.16139441   123.71896896
 H      9   7   1     1.082914591440   116.47481442   179.76700295
 H     10   8   1     1.082918427081   116.45780824   179.78631778
 H     15  11   2     1.078863876263   125.09848097   180.00420488
 H     16  12   3     1.078854659017   125.09944828   180.00572083
 H     17  15  11     1.079013379288   127.96205293   180.02317060
 H     18  16  12     1.079022169130   127.96119491   180.02286464
 H     19  13   2     1.083116608289   116.47961750   180.08384249
 H     20  14   3     1.083117372845   116.45786284   180.08863448
 H     23  21   4     1.078936570721   125.24249032   179.99600471
 H     24  23  21     1.078923308856   127.92239530   180.01162826
 Mg     3   1   2     2.042506205857    46.01341093     0.00000000

---------------------------
INTERNAL COORDINATES (A.U.)
---------------------------
 N      0   0   0     0.000000000000     0.00000000     0.00000000
 N      1   0   0     5.545638627757     0.00000000     0.00000000
 N      1   2   0     5.545405534166    88.22026361     0.00000000
 N      2   1   3     5.484150259393    91.15525092     0.00000000
 C      1   2   3     4.485800045317   117.10066924   178.00775617
 C      5   1   2     2.898653784021    71.15336793   175.74864028
 C      1   2   3     2.567060907114    80.55312792   178.98494255
 C      1   2   3     2.566989603913   168.73866091   354.91154939
 C      7   1   2     2.597467212233   125.94914713     0.55405638
 C      8   1   7     2.597496985183   125.94130379   181.39600351
 C      2   1   3     2.562355886959    80.79598169   180.38241652
 C      3   1   2     2.562580356635    80.79364978   180.38854817
 C      2   1   3     2.611626514250   172.19563123     2.11228019
 C      3   1   2     2.611472267713   172.19772945     2.18695519
 C     11   2   1     2.720929153566   109.92374504   180.32182958
 C     12   3   1     2.720857528579   109.92104971   180.32893451
 C     15  11   2     2.572299320058   106.87870823     0.00000000
 C     16  12   3     2.572338368408   106.87868208     0.00000000
 C     13   2  11     2.612289400304   125.27049495   179.64780351
 C     14   3  12     2.612341259714   125.27124228   179.65348396
 C      4   2   1     2.583910006522    81.83816516   179.76221527
 C      4   2   1     2.584077501046   171.29992091   358.49070100
 C     21   4   2     2.706244983771   109.73552966   179.80925939
 C     23  21   4     2.583000639603   106.83566180   359.97041685
 H      5   1   2     2.064799839820   119.63454595   281.07952700
 H      5   1   2     2.060947826859   127.60927975    70.55922818
 H      6   5   1     2.064711380806   112.13340192   244.83271966
 H      6   5   1     2.060863569926   113.16139441   123.71896896
 H      9   7   1     2.046412004250   116.47481442   179.76700295
 H     10   8   1     2.046419252561   116.45780824   179.78631778
 H     15  11   2     2.038757261919   125.09848097   180.00420488
 H     16  12   3     2.038739843848   125.09944828   180.00572083
 H     17  15  11     2.039039781691   127.96205293   180.02317060
 H     18  16  12     2.039056392086   127.96119491   180.02286464
 H     19  13   2     2.046793760768   116.47961750   180.08384249
 H     20  14   3     2.046795205569   116.45786284   180.08863448
 H     23  21   4     2.038894634535   125.24249032   179.99600471
 H     24  23  21     2.038869573241   127.92239530   180.01162826
 Mg     3   1   2     3.859777355904    46.01341093     0.00000000

---------------------
BASIS SET INFORMATION
---------------------
There are 4 groups of distinct atoms

 Group   1 Type N   : 11s6p2d1f contracted to 5s3p2d1f pattern {62111/411/11/1}
 Group   2 Type C   : 11s6p2d1f contracted to 5s3p2d1f pattern {62111/411/11/1}
 Group   3 Type H   : 5s1p contracted to 3s1p pattern {311/1}
 Group   4 Type Mg  : 14s8p3d contracted to 5s4p3d pattern {73211/5111/111}

Atom   0N    basis set group =>   1
Atom   1N    basis set group =>   1
Atom   2N    basis set group =>   1
Atom   3N    basis set group =>   1
Atom   4C    basis set group =>   2
Atom   5C    basis set group =>   2
Atom   6C    basis set group =>   2
Atom   7C    basis set group =>   2
Atom   8C    basis set group =>   2
Atom   9C    basis set group =>   2
Atom  10C    basis set group =>   2
Atom  11C    basis set group =>   2
Atom  12C    basis set group =>   2
Atom  13C    basis set group =>   2
Atom  14C    basis set group =>   2
Atom  15C    basis set group =>   2
Atom  16C    basis set group =>   2
Atom  17C    basis set group =>   2
Atom  18C    basis set group =>   2
Atom  19C    basis set group =>   2
Atom  20C    basis set group =>   2
Atom  21C    basis set group =>   2
Atom  22C    basis set group =>   2
Atom  23C    basis set group =>   2
Atom  24H    basis set group =>   3
Atom  25H    basis set group =>   3
Atom  26H    basis set group =>   3
Atom  27H    basis set group =>   3
Atom  28H    basis set group =>   3
Atom  29H    basis set group =>   3
Atom  30H    basis set group =>   3
Atom  31H    basis set group =>   3
Atom  32H    basis set group =>   3
Atom  33H    basis set group =>   3
Atom  34H    basis set group =>   3
Atom  35H    basis set group =>   3
Atom  36H    basis set group =>   3
Atom  37H    basis set group =>   3
Atom  38Mg   basis set group =>   4
---------------------------------
AUXILIARY/J BASIS SET INFORMATION
---------------------------------
There are 4 groups of distinct atoms

 Group   1 Type N   : 12s5p4d2f1g contracted to 6s4p3d1f1g pattern {711111/2111/211/2/1}
 Group   2 Type C   : 12s5p4d2f1g contracted to 6s4p3d1f1g pattern {711111/2111/211/2/1}
 Group   3 Type H   : 5s2p1d contracted to 3s1p1d pattern {311/2/1}
 Group   4 Type Mg  : 14s5p5d2f1g contracted to 8s4p4d1f1g pattern {71111111/2111/2111/2/1}

Atom   0N    basis set group =>   1
Atom   1N    basis set group =>   1
Atom   2N    basis set group =>   1
Atom   3N    basis set group =>   1
Atom   4C    basis set group =>   2
Atom   5C    basis set group =>   2
Atom   6C    basis set group =>   2
Atom   7C    basis set group =>   2
Atom   8C    basis set group =>   2
Atom   9C    basis set group =>   2
Atom  10C    basis set group =>   2
Atom  11C    basis set group =>   2
Atom  12C    basis set group =>   2
Atom  13C    basis set group =>   2
Atom  14C    basis set group =>   2
Atom  15C    basis set group =>   2
Atom  16C    basis set group =>   2
Atom  17C    basis set group =>   2
Atom  18C    basis set group =>   2
Atom  19C    basis set group =>   2
Atom  20C    basis set group =>   2
Atom  21C    basis set group =>   2
Atom  22C    basis set group =>   2
Atom  23C    basis set group =>   2
Atom  24H    basis set group =>   3
Atom  25H    basis set group =>   3
Atom  26H    basis set group =>   3
Atom  27H    basis set group =>   3
Atom  28H    basis set group =>   3
Atom  29H    basis set group =>   3
Atom  30H    basis set group =>   3
Atom  31H    basis set group =>   3
Atom  32H    basis set group =>   3
Atom  33H    basis set group =>   3
Atom  34H    basis set group =>   3
Atom  35H    basis set group =>   3
Atom  36H    basis set group =>   3
Atom  37H    basis set group =>   3
Atom  38Mg   basis set group =>   4


           ************************************************************
           *        Program running with 4 parallel MPI-processes     *
           *              working on a common directory               *
           ************************************************************
------------------------------------------------------------------------------
                             ORCA STARTUP CALCULATIONS
                           -- RI-GTO INTEGRALS CHOSEN --
------------------------------------------------------------------------------
------------------------------------------------------------------------------
                   ___                                                        
                  /   \      - P O W E R E D   B Y -                         
                 /     \                                                     
                 |  |  |   _    _      __       _____    __    __             
                 |  |  |  | |  | |    /  \     |  _  \  |  |  /  |          
                  \  \/   | |  | |   /    \    | | | |  |  | /  /          
                 / \  \   | |__| |  /  /\  \   | |_| |  |  |/  /          
                |  |  |   |  __  | /  /__\  \  |    /   |      \           
                |  |  |   | |  | | |   __   |  |    \   |  |\   \          
                \     /   | |  | | |  |  |  |  | |\  \  |  | \   \       
                 \___/    |_|  |_| |__|  |__|  |_| \__\ |__|  \__/        
                                                                              
                      - O R C A' S   B I G   F R I E N D -                    
                                      &                                       
                       - I N T E G R A L  F E E D E R -                       
                                                                              
 v1 FN, 2020, v2 2021, v3 2022-2024                                           
------------------------------------------------------------------------------


----------------------
SHARK INTEGRAL PACKAGE
----------------------

Number of atoms                             ...     39
Number of basis functions                   ...    860
Number of shells                            ...    332
Maximum angular momentum                    ...      3
Integral batch strategy                     ... SHARK/LIBINT Hybrid
RI-J (if used) integral strategy            ... SPLIT-RIJ (Revised 2003 algorithm where possible)
Printlevel                                  ...      1
Contraction scheme used                     ... SEGMENTED contraction
Prescreening option                         ... SCHWARTZ
   Thresh                                   ... 2.500e-11
   Tcut                                     ... 2.500e-12
   Tpresel                                  ... 2.500e-12 
Coulomb Range Separation                    ... NOT USED
Exchange Range Separation                   ... NOT USED
Multipole approximations                    ... NOT USED
Finite Nucleus Model                        ... NOT USED
CABS basis                                  ... NOT available
Auxiliary Coulomb fitting basis             ... AVAILABLE
   # of basis functions in Aux-J            ...   1386
   # of shells in Aux-J                     ...    448
   Maximum angular momentum in Aux-J        ...      4
Auxiliary J/K fitting basis                 ... NOT available
Auxiliary Correlation fitting basis         ... NOT available
Auxiliary 'external' fitting basis          ... NOT available

Checking pre-screening integrals            ... done (  0.0 sec) Dimension = 332
   => SHARK Basis and OBASIS are compatible. Storing Pre-screening
Shell pair information
Shell pair cut-off parameter TPreSel        ...   2.5e-12
Total number of shell pairs                 ...     55278
Shell pairs after pre-screening             ...     38985
Total number of primitive shell pairs       ...    174360
Primitive shell pairs kept                  ...     80636
          la=0 lb=0:   9326 shell pairs
          la=1 lb=0:  11131 shell pairs
          la=1 lb=1:   3288 shell pairs
          la=2 lb=0:   5767 shell pairs
          la=2 lb=1:   3529 shell pairs
          la=2 lb=2:    978 shell pairs
          la=3 lb=0:   2472 shell pairs
          la=3 lb=1:   1540 shell pairs
          la=3 lb=2:    784 shell pairs
          la=3 lb=3:    170 shell pairs

Checking whether 4 symmetric matrices of dimension 860 fit in memory
:Max Core in MB      =   3000.00
 MB in use           =     50.97
 MB left             =   2949.03
 MB needed           =     11.30
 Data fit in memory  = YES
Calculating RI/J V-Matrix + Cholesky decomp.... done (  0.2 sec)
Calculating Nuclear repulsion               ... done (  0.0 sec) ENN=   2155.857692955848 Eh

Diagonalization of the overlap matrix:
Smallest eigenvalue                        ... 1.000e-05
Time for diagonalization                   ...    0.371 sec
Threshold for overlap eigenvalues          ... 1.000e-07
Number of eigenvalues below threshold      ... 0
Time for construction of square roots      ...    0.677 sec
Total time needed                          ...    1.066 sec

-------------------
DFT GRID GENERATION
-------------------

General Integration Accuracy     IntAcc      ... 4.959
Radial Grid Type                 RadialGrid  ... OptM3 with GC (2021)
Angular Grid (max. ang.)         AngularGrid ... 6 (Lebedev-590)
Angular grid pruning method      GridPruning ... 4 (adaptive)
Weight generation scheme         WeightScheme... mBecke (2022)
Basis function cutoff            BFCut       ... 1.0000e-11
Integration weight cutoff        WCut        ... 1.0000e-14
Partially contracted basis set               ... off
Rotationally invariant grid construction     ... off
Angular grids for H and He will be reduced by one unit

Total number of grid points                  ...   473102
Total number of batches                      ...     7410
Average number of points per batch           ...       63
Average number of grid points per atom       ...    12131

--------------------
COSX GRID GENERATION
--------------------

GRIDX 1
-------
General Integration Accuracy     IntAcc      ... 4.020
Radial Grid Type                 RadialGrid  ... OptM3 with GC (2021)
Angular Grid (max. ang.)         AngularGrid ... 2 (Lebedev-110)
Angular grid pruning method      GridPruning ... 4 (adaptive)
Weight generation scheme         WeightScheme... mBecke (2022)
Basis function cutoff            BFCut       ... 1.0000e-11
Integration weight cutoff        WCut        ... 1.0000e-14
Partially contracted basis set               ... on
Rotationally invariant grid construction     ... off
Angular grids for H and He will be reduced by one unit

Total number of grid points                  ...    54054
Total number of batches                      ...      445
Average number of points per batch           ...      121
Average number of grid points per atom       ...     1386
UseSFitting                                  ... on

GRIDX 2
-------
General Integration Accuracy     IntAcc      ... 4.338
Radial Grid Type                 RadialGrid  ... OptM3 with GC (2021)
Angular Grid (max. ang.)         AngularGrid ... 3 (Lebedev-194)
Angular grid pruning method      GridPruning ... 4 (adaptive)
Weight generation scheme         WeightScheme... mBecke (2022)
Basis function cutoff            BFCut       ... 1.0000e-11
Integration weight cutoff        WCut        ... 1.0000e-14
Partially contracted basis set               ... on
Rotationally invariant grid construction     ... off
Angular grids for H and He will be reduced by one unit

Total number of grid points                  ...   119051
Total number of batches                      ...      950
Average number of points per batch           ...      125
Average number of grid points per atom       ...     3053
UseSFitting                                  ... on

GRIDX 3
-------
General Integration Accuracy     IntAcc      ... 4.871
Radial Grid Type                 RadialGrid  ... OptM3 with GC (2021)
Angular Grid (max. ang.)         AngularGrid ... 4 (Lebedev-302)
Angular grid pruning method      GridPruning ... 4 (adaptive)
Weight generation scheme         WeightScheme... mBecke (2022)
Basis function cutoff            BFCut       ... 1.0000e-11
Integration weight cutoff        WCut        ... 1.0000e-14
Partially contracted basis set               ... on
Rotationally invariant grid construction     ... off
Angular grids for H and He will be reduced by one unit

Total number of grid points                  ...   219016
Total number of batches                      ...     1726
Average number of points per batch           ...      126
Average number of grid points per atom       ...     5616
UseSFitting                                  ... on
Grids setup in  27.2 sec
Initializing property integral containers    ... done (  0.0 sec)

SHARK setup successfully completed in  29.5 seconds

Maximum memory used throughout the entire STARTUP-calculation: 154.4 MB


           ************************************************************
           *        Program running with 4 parallel MPI-processes     *
           *              working on a common directory               *
           ************************************************************
-------------------------------------------------------------------------------
                                 ORCA GUESS
                   Start orbitals & Density for SCF / CASSCF
-------------------------------------------------------------------------------

------------
SCF SETTINGS
------------
Hamiltonian:
 Density Functional     Method          .... DFT(GTOs)
 Exchange Functional    Exchange        .... M062X
 Correlation Functional Correlation     .... M062X
 Gradients option       PostSCFGGA      .... off
 Hybrid DFT is turned on
   Fraction HF Exchange ScalHFX         ....  0.540000
   Scaling of DF-GGA-X  ScalDFX         ....  0.460000
   Scaling of DF-GGA-C  ScalDFC         ....  1.000000
   Scaling of DF-LDA-C  ScalLDAC        ....  1.000000
   Perturbative correction              ....  0.000000
 RI-approximation to the Coulomb term is turned on
   Number of AuxJ basis functions       .... 1386
   RIJ-COSX (HFX calculated with COS-X)).... on


General Settings:
 Integral files         IntName         .... tddft
 Hartree-Fock type      HFTyp           .... RHF
 Total Charge           Charge          ....    0
 Multiplicity           Mult            ....    1
 Number of Electrons    NEL             ....  174
 Basis Dimension        Dim             ....  860
 Nuclear Repulsion      ENuc            ....   2155.8576929558 Eh

Convergence Acceleration:
 AO-DIIS                CNVDIIS         .... on
   Start iteration      DIISMaxIt       ....    12
   Startup error        DIISStart       ....  0.200000
   # of expansion vecs  DIISMaxEq       ....     5
   Bias factor          DIISBfac        ....   1.050
   Max. coefficient     DIISMaxC        ....  10.000
 MO-DIIS                CNVKDIIS        .... off
 Trust-Rad. Augm. Hess. CNVTRAH         .... auto
   Auto Start mean grad. ratio tolernc. ....  1.125000
   Auto Start start iteration           ....    50
   Auto Start num. interpolation iter.  ....    10
   Max. Number of Micro iterations      ....    24
   Max. Number of Macro iterations      .... Maxiter - #DIIS iter
   Number of Davidson start vectors     ....     2
   Converg. threshold    (grad. norm)   ....   1.000e-05
   Grad. Scal. Fac. for Micro threshold ....   0.100
   Minimum threshold for Micro iter.    ....   1.000e-02
   NR start threshold (gradient norm)   ....   1.000e-04
   Initial trust radius                 ....   0.400
   Minimum AH scaling param. (alpha)    ....   1.000
   Maximum AH scaling param. (alpha)    .... 1000.000
   Quad. conv. algorithm                .... NR
   White noise on init. David. guess    .... on
   Maximum white noise                  ....   0.010
   Pseudo random numbers                .... off
   Inactive MOs                         .... canonical
   Orbital update algorithm             .... Taylor
   Preconditioner                       .... Diag
   Full preconditioner red. dimension   ....   250
 SOSCF                 CNVSOSCF           .... on
   Start iteration     SOSCFMaxIt         ....   150
   Startup grad/error  SOSCFStart         ....  0.003300
   Hessian update      SOSCFHessUp        .... L-BFGS
   Autom. constraints  SOSCFAutoConstrain .... off
 Level Shifting         CNVShift        .... on
   Level shift para.    LevelShift      ....    0.2500
   Turn off err/grad.   ShiftErr        ....    0.0010
 Zerner damping         CNVZerner       .... off
 Static damping         CNVDamp         .... on
   Fraction old density DampFac         ....    0.7000
   Max. Damping (<1)    DampMax         ....    0.9800
   Min. Damping (>=0)   DampMin         ....    0.0000
   Turn off err/grad.   DampErr         ....    0.1000

SCF Procedure:
 Maximum # iterations   MaxIter         ....   125
 SCF integral mode      SCFMode         .... Direct
   Integral package                     .... SHARK and LIBINT hybrid scheme
 Reset frequency        DirectResetFreq ....    20
 Integral Threshold     Thresh          ....  2.500e-11 Eh
 Primitive CutOff       TCut            ....  2.500e-12 Eh

Convergence Tolerance:
 Convergence Check Mode ConvCheckMode   .... Total+1el-Energy
 Convergence forced     ConvForced      .... 1
 Energy Change          TolE            ....  1.000e-08 Eh
 1-El. energy change                    ....  1.000e-05 Eh
 Orbital Gradient       TolG            ....  1.000e-05
 Orbital Rotation angle TolX            ....  1.000e-05
 DIIS Error             TolErr          ....  5.000e-07

------------------------------
INITIAL GUESS: MODEL POTENTIAL
------------------------------
Loading Hartree-Fock densities                     ... done
Calculating cut-offs                               ... done
Initializing the effective Hamiltonian             ... done
Setting up the integral package (SHARK)            ... done
Starting the Coulomb interaction                   ... done (   3.0 sec)
Making the grid                                    ... done (   1.3 sec)
Mapping shells                                     ... done
Starting the XC term evaluation                    ... done (   3.7 sec)
  promolecular density results
     # of electrons  =    173.997675708
     EX              =   -148.716356810
     EC              =     -5.920044363
     EX+EC           =   -154.636401173
Transforming the Hamiltonian                       ... done (   0.3 sec)
Diagonalizing the Hamiltonian                      ... done (   0.3 sec)
Back transforming the eigenvectors                 ... done (   0.1 sec)
Now organizing SCF variables                       ... done
                      ------------------
                      INITIAL GUESS DONE (   8.8 sec)
                      ------------------
             **** ENERGY FILE WAS UPDATED (tddft.en.tmp) ****
Finished Guess after   9.4 sec
Maximum memory used throughout the entire GUESS-calculation: 86.1 MB


           ************************************************************
           *        Program running with 4 parallel MPI-processes     *
           *              working on a common directory               *
           ************************************************************

-------------------------------------------------------------------------------------------
                                      ORCA LEAN-SCF
                              memory conserving SCF solver
-------------------------------------------------------------------------------------------

--------------------
CPCM SOLVATION MODEL
--------------------
CPCM parameters:
  Epsilon                                         ...       8.9990
  Refrac                                          ...       1.4242
  Rsolv                                           ...       1.3000
  Surface type                                    ... GAUSSIAN VDW
  Discretization scheme                           ... Constant charge density
    Threshold for H atoms                         ...       5.0000 (charges/Ang^2)
    Threshold for non-H atoms                     ...       5.0000 (charges/Ang^2)
  Epsilon function type                           ...         CPCM
Solvent:                                          ... DICHLOROMETHANE
Radii:
  Scheme                                          ... Element-dependent radii
  Radius for N  used is    3.5149 Bohr (=   1.8600 Ang.)
  Radius for C  used is    3.8550 Bohr (=   2.0400 Ang.)
  Radius for H  used is    2.4944 Bohr (=   1.3200 Ang.)
  Radius for Mg used is    3.9231 Bohr (=   2.0760 Ang.)
Calculating surface                               ...        done! (  0.0s)
Cavity surface points                             ...         3503
Cavity Volume                                     ...    2512.0151
Cavity Surface-area                               ...    1198.2147
Calculating surface distance matrix               ...        done! (  0.4s)
Performing Cholesky decomposition & store         ...        done! (  0.9s)
Overall time for CPCM initialization              ...                 1.2s

----------------------------------------D-I-I-S--------------------------------------------
Iteration    Energy (Eh)           Delta-E    RMSDP     MaxDP     DIISErr   Damp  Time(sec)
-------------------------------------------------------------------------------------------
               ***  Starting incremental Fock matrix formation  ***
    1    -1189.1623179106654788     0.00e+00  2.35e-03  5.38e-02  2.37e-01  0.700 188.0
    2    -1189.4054484933590174    -2.43e-01  1.92e-03  4.15e-02  1.27e-01  0.700  92.6
                               ***Turning on AO-DIIS***
    3    -1189.5278970218232644    -1.22e-01  1.30e-03  3.04e-02  5.52e-02  0.700  97.2
    4    -1189.6002474625233845    -7.24e-02  2.96e-03  6.72e-02  3.84e-02  0.000  90.8
    5    -1189.7540939930204331    -1.54e-01  2.22e-04  4.14e-03  5.07e-03  0.000  92.7
                              *** Initializing SOSCF ***
---------------------------------------S-O-S-C-F--------------------------------------
Iteration    Energy (Eh)           Delta-E    RMSDP     MaxDP     MaxGrad    Time(sec)
--------------------------------------------------------------------------------------
    6    -1189.7545344112313614    -4.40e-04  8.75e-05  1.54e-03  2.48e-03    77.8
               *** Restarting incremental Fock matrix formation ***
    7    -1189.7546351357277672    -1.01e-04  6.72e-05  1.13e-03  1.04e-03   181.5
    8    -1189.7546784919195488    -4.34e-05  6.38e-05  1.25e-03  4.24e-04   124.2
    9    -1189.7546915770935811    -1.31e-05  2.25e-05  3.42e-04  2.96e-04   121.4
   10    -1189.7546954600898061    -3.88e-06  8.90e-06  2.32e-04  1.27e-04   115.4
   11    -1189.7546961153934717    -6.55e-07  2.65e-06  5.74e-05  3.55e-05   105.1
   12    -1189.7546962269511823    -1.12e-07  1.77e-06  3.87e-05  2.79e-05    93.3
   13    -1189.7546962621299826    -3.52e-08  1.09e-06  1.90e-05  5.65e-06    94.9
   14    -1189.7546962654982963    -3.37e-09  9.06e-07  1.99e-05  4.20e-06    78.4
                 **** Energy Check signals convergence ****

               *****************************************************
               *                     SUCCESS                       *
               *           SCF CONVERGED AFTER  14 CYCLES          *
               *****************************************************

Recomputing exchange energy using gridx3       ... done (  220.915 sec)
Old exchange energy                            :    -81.787525692 Eh
New exchange energy                            :    -81.787529375 Eh
Exchange energy change after final integration :     -0.000003684 Eh
Total energy after final integration           :  -1189.754699934 Eh
             **** ENERGY FILE WAS UPDATED (tddft.en.tmp) ****

----------------
TOTAL SCF ENERGY
----------------

Total Energy       :      -1189.75469993386901 Eh          -32374.87129 eV

Components:
Nuclear Repulsion  :       2155.85769295584805 Eh           58663.87024 eV
Electronic Energy  :      -3345.59607067978504 Eh          -91038.29738 eV
One Electron Energy:      -5908.34367247322552 Eh         -160774.20493 eV
Two Electron Energy:       2562.74760179344048 Eh           69735.90755 eV
CPCM Dielectric    :         -0.01631852609016 Eh              -0.44405 eV

Virial components:
Potential Energy   :      -2373.82591068915735 Eh          -64595.08698 eV
Kinetic Energy     :       1184.07121075528812 Eh           32220.21569 eV
Virial Ratio       :          2.00479995554909

DFT components:
N(Alpha)           :       86.999986408333 electrons
N(Beta)            :       86.999986408333 electrons
N(Total)           :      173.999972816667 electrons
E(XC)              :      -76.139711378578 Eh       

CPCM Solvation Model Properties:
Surface-charge          :         -0.03769353955968
Corrected charge        :         -0.00000000000000
Outlying charge corr.   :          0.00006748340398 Eh               0.00184 eV
Free-energy (cav+disp)  :  This term is not implemented in the current solvation scheme

---------------
SCF CONVERGENCE
---------------

  Last Energy change         ...    3.3683e-09  Tolerance :   1.0000e-08
  Last MAX-Density change    ...    1.9907e-05  Tolerance :   1.0000e-07
  Last RMS-Density change    ...    9.0605e-07  Tolerance :   5.0000e-09
  Last DIIS Error            ...    2.4845e-03  Tolerance :   5.0000e-07
  Last Orbital Gradient      ...    4.1970e-06  Tolerance :   1.0000e-05
  Last Orbital Rotation      ...    1.9498e-05  Tolerance :   1.0000e-05


----------------
ORBITAL ENERGIES
----------------

  NO   OCC          E(Eh)            E(eV) 
   0   2.0000     -47.516835     -1292.9988 
   1   2.0000     -14.759278      -401.6204 
   2   2.0000     -14.740182      -401.1007 
   3   2.0000     -14.738804      -401.0632 
   4   2.0000     -14.738788      -401.0628 
   5   2.0000     -10.587928      -288.1122 
   6   2.0000     -10.587895      -288.1113 
   7   2.0000     -10.580077      -287.8985 
   8   2.0000     -10.580075      -287.8985 
   9   2.0000     -10.570542      -287.6391 
  10   2.0000     -10.570528      -287.6387 
  11   2.0000     -10.568868      -287.5935 
  12   2.0000     -10.568831      -287.5925 
  13   2.0000     -10.552707      -287.1538 
  14   2.0000     -10.552702      -287.1536 
  15   2.0000     -10.542111      -286.8654 
  16   2.0000     -10.542110      -286.8654 
  17   2.0000     -10.541210      -286.8409 
  18   2.0000     -10.540847      -286.8310 
  19   2.0000     -10.536674      -286.7175 
  20   2.0000     -10.536668      -286.7173 
  21   2.0000     -10.534966      -286.6710 
  22   2.0000     -10.534043      -286.6459 
  23   2.0000     -10.532838      -286.6131 
  24   2.0000     -10.532834      -286.6130 
  25   2.0000      -3.271439       -89.0204 
  26   2.0000      -1.966451       -53.5099 
  27   2.0000      -1.962975       -53.4153 
  28   2.0000      -1.962801       -53.4105 
  29   2.0000      -1.075050       -29.2536 
  30   2.0000      -1.065459       -28.9926 
  31   2.0000      -1.064941       -28.9785 
  32   2.0000      -1.054605       -28.6972 
  33   2.0000      -0.917006       -24.9530 
  34   2.0000      -0.889366       -24.2009 
  35   2.0000      -0.886244       -24.1159 
  36   2.0000      -0.870119       -23.6772 
  37   2.0000      -0.863882       -23.5074 
  38   2.0000      -0.862317       -23.4648 
  39   2.0000      -0.856363       -23.3028 
  40   2.0000      -0.830522       -22.5997 
  41   2.0000      -0.810984       -22.0680 
  42   2.0000      -0.745420       -20.2839 
  43   2.0000      -0.740222       -20.1425 
  44   2.0000      -0.694333       -18.8938 
  45   2.0000      -0.661400       -17.9976 
  46   2.0000      -0.652214       -17.7477 
  47   2.0000      -0.649573       -17.6758 
  48   2.0000      -0.647689       -17.6245 
  49   2.0000      -0.629708       -17.1352 
  50   2.0000      -0.615291       -16.7429 
  51   2.0000      -0.599307       -16.3080 
  52   2.0000      -0.591656       -16.0998 
  53   2.0000      -0.577269       -15.7083 
  54   2.0000      -0.571403       -15.5487 
  55   2.0000      -0.562279       -15.3004 
  56   2.0000      -0.548536       -14.9264 
  57   2.0000      -0.510139       -13.8816 
  58   2.0000      -0.502958       -13.6862 
  59   2.0000      -0.501968       -13.6592 
  60   2.0000      -0.491650       -13.3785 
  61   2.0000      -0.486081       -13.2269 
  62   2.0000      -0.482192       -13.1211 
  63   2.0000      -0.475445       -12.9375 
  64   2.0000      -0.471545       -12.8314 
  65   2.0000      -0.471450       -12.8288 
  66   2.0000      -0.451834       -12.2950 
  67   2.0000      -0.448616       -12.2075 
  68   2.0000      -0.441693       -12.0191 
  69   2.0000      -0.436635       -11.8814 
  70   2.0000      -0.435348       -11.8464 
  71   2.0000      -0.431101       -11.7309 
  72   2.0000      -0.430830       -11.7235 
  73   2.0000      -0.428053       -11.6479 
  74   2.0000      -0.420844       -11.4517 
  75   2.0000      -0.417043       -11.3483 
  76   2.0000      -0.381572       -10.3831 
  77   2.0000      -0.380564       -10.3557 
  78   2.0000      -0.377247       -10.2654 
  79   2.0000      -0.350218        -9.5299 
  80   2.0000      -0.336764        -9.1638 
  81   2.0000      -0.327012        -8.8985 
  82   2.0000      -0.317143        -8.6299 
  83   2.0000      -0.306546        -8.3415 
  84   2.0000      -0.303950        -8.2709 
  85   2.0000      -0.239579        -6.5193 
  86   2.0000      -0.222626        -6.0579 
  87   0.0000      -0.074037        -2.0147 
  88   0.0000      -0.049053        -1.3348 
  89   0.0000       0.018176         0.4946 
  90   0.0000       0.031554         0.8586 
  91   0.0000       0.046940         1.2773 
  92   0.0000       0.065005         1.7689 
  93   0.0000       0.072556         1.9744 
  94   0.0000       0.085243         2.3196 
  95   0.0000       0.087076         2.3694 
  96   0.0000       0.095585         2.6010 
  97   0.0000       0.100270         2.7285 
*Only the first 10 virtual orbitals were printed.

                    ********************************
                    * MULLIKEN POPULATION ANALYSIS *
                    ********************************

-----------------------
MULLIKEN ATOMIC CHARGES
-----------------------
   0 N :   -0.397830
   1 N :   -0.434096
   2 N :   -0.433577
   3 N :   -0.424634
   4 C :   -0.305002
   5 C :   -0.305088
   6 C :    0.199199
   7 C :    0.198272
   8 C :   -0.335735
   9 C :   -0.333669
  10 C :    0.240304
  11 C :    0.238498
  12 C :    0.206437
  13 C :    0.206734
  14 C :   -0.240456
  15 C :   -0.240125
  16 C :   -0.231171
  17 C :   -0.231619
  18 C :   -0.278895
  19 C :   -0.279188
  20 C :    0.208174
  21 C :    0.208594
  22 C :   -0.242776
  23 C :   -0.242436
  24 H :    0.169346
  25 H :    0.172716
  26 H :    0.169399
  27 H :    0.172771
  28 H :    0.179290
  29 H :    0.179385
  30 H :    0.176340
  31 H :    0.176282
  32 H :    0.177742
  33 H :    0.177810
  34 H :    0.184380
  35 H :    0.184368
  36 H :    0.174598
  37 H :    0.174526
  38 Mg:    0.781131
Sum of atomic charges:    0.0000000

--------------------------------
MULLIKEN REDUCED ORBITAL CHARGES
--------------------------------
  0 N s       :     3.675556  s :     3.675556
      pz      :     1.309089  p :     3.667787
      px      :     1.210381
      py      :     1.148318
      dz2     :     0.003825  d :     0.051038
      dxz     :     0.008919
      dyz     :     0.010324
      dx2y2   :     0.014597
      dxy     :     0.013373
      f0      :     0.000675  f :     0.003448
      f+1     :     0.000358
      f-1     :     0.000393
      f+2     :     0.000412
      f-2     :     0.000111
      f+3     :     0.000819
      f-3     :     0.000680

  1 N s       :     3.689618  s :     3.689618
      pz      :     1.386559  p :     3.690739
      px      :     1.130554
      py      :     1.173626
      dz2     :     0.004170  d :     0.050236
      dxz     :     0.009751
      dyz     :     0.009003
      dx2y2   :     0.014148
      dxy     :     0.013164
      f0      :     0.000707  f :     0.003503
      f+1     :     0.000436
      f-1     :     0.000398
      f+2     :     0.000507
      f-2     :     0.000089
      f+3     :     0.000652
      f-3     :     0.000713

  2 N s       :     3.689431  s :     3.689431
      pz      :     1.386555  p :     3.690417
      px      :     1.122482
      py      :     1.181380
      dz2     :     0.004170  d :     0.050227
      dxz     :     0.010514
      dyz     :     0.008240
      dx2y2   :     0.013851
      dxy     :     0.013451
      f0      :     0.000707  f :     0.003503
      f+1     :     0.000426
      f-1     :     0.000407
      f+2     :     0.000498
      f-2     :     0.000098
      f+3     :     0.000610
      f-3     :     0.000756

  3 N s       :     3.688305  s :     3.688305
      pz      :     1.359253  p :     3.680764
      px      :     1.186720
      py      :     1.134791
      dz2     :     0.004177  d :     0.052034
      dxz     :     0.009307
      dyz     :     0.011104
      dx2y2   :     0.014074
      dxy     :     0.013372
      f0      :     0.000694  f :     0.003531
      f+1     :     0.000393
      f-1     :     0.000420
      f+2     :     0.000561
      f-2     :     0.000095
      f+3     :     0.000735
      f-3     :     0.000633

  4 C s       :     3.287802  s :     3.287802
      pz      :     1.093937  p :     2.938121
      px      :     0.885589
      py      :     0.958594
      dz2     :     0.004652  d :     0.073991
      dxz     :     0.015212
      dyz     :     0.016187
      dx2y2   :     0.021920
      dxy     :     0.016020
      f0      :     0.000524  f :     0.005088
      f+1     :     0.000333
      f-1     :     0.000923
      f+2     :     0.000471
      f-2     :     0.000688
      f+3     :     0.001015
      f-3     :     0.001134

  5 C s       :     3.288222  s :     3.288222
      pz      :     1.094044  p :     2.937837
      px      :     0.955352
      py      :     0.888441
      dz2     :     0.004673  d :     0.073944
      dxz     :     0.015633
      dyz     :     0.015715
      dx2y2   :     0.020368
      dxy     :     0.017555
      f0      :     0.000526  f :     0.005086
      f+1     :     0.000939
      f-1     :     0.000314
      f+2     :     0.000472
      f-2     :     0.000686
      f+3     :     0.000838
      f-3     :     0.001311

  6 C s       :     3.150393  s :     3.150393
      pz      :     0.860180  p :     2.507310
      px      :     0.895788
      py      :     0.751342
      dz2     :     0.001501  d :     0.130572
      dxz     :     0.026777
      dyz     :     0.038639
      dx2y2   :     0.032583
      dxy     :     0.031072
      f0      :     0.001781  f :     0.012526
      f+1     :     0.000890
      f-1     :     0.001164
      f+2     :     0.001547
      f-2     :     0.000998
      f+3     :     0.004538
      f-3     :     0.001607

  7 C s       :     3.150805  s :     3.150805
      pz      :     0.860161  p :     2.507892
      px      :     0.748283
      py      :     0.899448
      dz2     :     0.001521  d :     0.130506
      dxz     :     0.033918
      dyz     :     0.031484
      dx2y2   :     0.035909
      dxy     :     0.027674
      f0      :     0.001781  f :     0.012525
      f+1     :     0.001139
      f-1     :     0.000916
      f+2     :     0.001300
      f-2     :     0.001245
      f+3     :     0.002908
      f-3     :     0.003235

  8 C s       :     3.178892  s :     3.178892
      pz      :     1.104350  p :     3.099281
      px      :     0.894837
      py      :     1.100094
      dz2     :     0.003755  d :     0.050843
      dxz     :     0.021814
      dyz     :     0.003325
      dx2y2   :     0.012219
      dxy     :     0.009730
      f0      :     0.001338  f :     0.006719
      f+1     :     0.000875
      f-1     :     0.000762
      f+2     :     0.000407
      f-2     :     0.000612
      f+3     :     0.001724
      f-3     :     0.001000

  9 C s       :     3.177478  s :     3.177478
      pz      :     1.104272  p :     3.098614
      px      :     1.096151
      py      :     0.898190
      dz2     :     0.003757  d :     0.050857
      dxz     :     0.003234
      dyz     :     0.021906
      dx2y2   :     0.012089
      dxy     :     0.009873
      f0      :     0.001338  f :     0.006720
      f+1     :     0.000776
      f-1     :     0.000862
      f+2     :     0.000441
      f-2     :     0.000578
      f+3     :     0.001104
      f-3     :     0.001620

 10 C s       :     3.136980  s :     3.136980
      pz      :     0.878283  p :     2.482410
      px      :     0.853301
      py      :     0.750826
      dz2     :     0.002465  d :     0.127307
      dxz     :     0.034004
      dyz     :     0.036555
      dx2y2   :     0.029235
      dxy     :     0.025048
      f0      :     0.001936  f :     0.012998
      f+1     :     0.001024
      f-1     :     0.001169
      f+2     :     0.001689
      f-2     :     0.000964
      f+3     :     0.003604
      f-3     :     0.002614

 11 C s       :     3.137829  s :     3.137829
      pz      :     0.878288  p :     2.483487
      px      :     0.752584
      py      :     0.852616
      dz2     :     0.002472  d :     0.127194
      dxz     :     0.038869
      dyz     :     0.031645
      dx2y2   :     0.027006
      dxy     :     0.027201
      f0      :     0.001934  f :     0.012992
      f+1     :     0.001222
      f-1     :     0.000970
      f+2     :     0.002087
      f-2     :     0.000564
      f+3     :     0.001578
      f-3     :     0.004637

 12 C s       :     3.125144  s :     3.125144
      pz      :     0.955685  p :     2.539617
      px      :     0.740683
      py      :     0.843250
      dz2     :     0.002666  d :     0.116039
      dxz     :     0.036656
      dyz     :     0.027446
      dx2y2   :     0.025962
      dxy     :     0.023310
      f0      :     0.002052  f :     0.012762
      f+1     :     0.001217
      f-1     :     0.000979
      f+2     :     0.001998
      f-2     :     0.000479
      f+3     :     0.001480
      f-3     :     0.004558

 13 C s       :     3.124526  s :     3.124526
      pz      :     0.955716  p :     2.539931
      px      :     0.840927
      py      :     0.743288
      dz2     :     0.002646  d :     0.116044
      dxz     :     0.029189
      dyz     :     0.034930
      dx2y2   :     0.027405
      dxy     :     0.021874
      f0      :     0.002052  f :     0.012765
      f+1     :     0.001022
      f-1     :     0.001175
      f+2     :     0.001556
      f-2     :     0.000922
      f+3     :     0.003544
      f-3     :     0.002493

 14 C s       :     3.241073  s :     3.241073
      pz      :     1.019009  p :     2.928426
      px      :     0.893348
      py      :     1.016070
      dz2     :     0.005183  d :     0.064066
      dxz     :     0.019280
      dyz     :     0.007469
      dx2y2   :     0.017942
      dxy     :     0.014191
      f0      :     0.001307  f :     0.006890
      f+1     :     0.000582
      f-1     :     0.000988
      f+2     :     0.000063
      f-2     :     0.001025
      f+3     :     0.001812
      f-3     :     0.001114

 15 C s       :     3.241010  s :     3.241010
      pz      :     1.018934  p :     2.928161
      px      :     1.017594
      py      :     0.891633
      dz2     :     0.005186  d :     0.064065
      dxz     :     0.009005
      dyz     :     0.017749
      dx2y2   :     0.021247
      dxy     :     0.010879
      f0      :     0.001306  f :     0.006889
      f+1     :     0.000944
      f-1     :     0.000626
      f+2     :     0.000317
      f-2     :     0.000772
      f+3     :     0.001623
      f-3     :     0.001302

 16 C s       :     3.257552  s :     3.257552
      pz      :     0.974763  p :     2.899065
      px      :     1.025666
      py      :     0.898637
      dz2     :     0.005140  d :     0.067662
      dxz     :     0.009625
      dyz     :     0.021735
      dx2y2   :     0.020282
      dxy     :     0.010881
      f0      :     0.001239  f :     0.006891
      f+1     :     0.000917
      f-1     :     0.000604
      f+2     :     0.000417
      f-2     :     0.000776
      f+3     :     0.001652
      f-3     :     0.001286

 17 C s       :     3.257660  s :     3.257660
      pz      :     0.974869  p :     2.899392
      px      :     0.899688
      py      :     1.024835
      dz2     :     0.005143  d :     0.067674
      dxz     :     0.023901
      dyz     :     0.007455
      dx2y2   :     0.017016
      dxy     :     0.014160
      f0      :     0.001239  f :     0.006893
      f+1     :     0.000562
      f-1     :     0.000960
      f+2     :     0.000094
      f-2     :     0.001099
      f+3     :     0.001804
      f-3     :     0.001134

 18 C s       :     3.198497  s :     3.198497
      pz      :     0.972321  p :     3.009404
      px      :     1.111597
      py      :     0.925487
      dz2     :     0.003996  d :     0.064558
      dxz     :     0.003203
      dyz     :     0.030814
      dx2y2   :     0.014690
      dxy     :     0.011854
      f0      :     0.001100  f :     0.006436
      f+1     :     0.000679
      f-1     :     0.000812
      f+2     :     0.000401
      f-2     :     0.000627
      f+3     :     0.001116
      f-3     :     0.001701

 19 C s       :     3.198683  s :     3.198683
      pz      :     0.972304  p :     3.009511
      px      :     0.925037
      py      :     1.112169
      dz2     :     0.003998  d :     0.064557
      dxz     :     0.030811
      dyz     :     0.003209
      dx2y2   :     0.014131
      dxy     :     0.012408
      f0      :     0.001100  f :     0.006436
      f+1     :     0.000804
      f-1     :     0.000686
      f+2     :     0.000416
      f-2     :     0.000612
      f+3     :     0.001685
      f-3     :     0.001133

 20 C s       :     3.124910  s :     3.124910
      pz      :     0.954564  p :     2.537197
      px      :     0.750494
      py      :     0.832139
      dz2     :     0.002699  d :     0.116822
      dxz     :     0.034601
      dyz     :     0.028566
      dx2y2   :     0.028133
      dxy     :     0.022822
      f0      :     0.002038  f :     0.012896
      f+1     :     0.001194
      f-1     :     0.001059
      f+2     :     0.001554
      f-2     :     0.000942
      f+3     :     0.002541
      f-3     :     0.003569

 21 C s       :     3.125289  s :     3.125289
      pz      :     0.954581  p :     2.536432
      px      :     0.835288
      py      :     0.746563
      dz2     :     0.002717  d :     0.116792
      dxz     :     0.027859
      dyz     :     0.035284
      dx2y2   :     0.025667
      dxy     :     0.025264
      f0      :     0.002037  f :     0.012893
      f+1     :     0.001005
      f-1     :     0.001247
      f+2     :     0.002003
      f-2     :     0.000491
      f+3     :     0.004621
      f-3     :     0.001489

 22 C s       :     3.243982  s :     3.243982
      pz      :     1.011177  p :     2.925286
      px      :     1.017969
      py      :     0.896140
      dz2     :     0.005261  d :     0.066518
      dxz     :     0.007219
      dyz     :     0.022682
      dx2y2   :     0.017329
      dxy     :     0.014027
      f0      :     0.001292  f :     0.006990
      f+1     :     0.000991
      f-1     :     0.000582
      f+2     :     0.000073
      f-2     :     0.001142
      f+3     :     0.001100
      f-3     :     0.001809

 23 C s       :     3.244050  s :     3.244050
      pz      :     1.011075  p :     2.924877
      px      :     0.894795
      py      :     1.019007
      dz2     :     0.005263  d :     0.066520
      dxz     :     0.020857
      dyz     :     0.009052
      dx2y2   :     0.020356
      dxy     :     0.010993
      f0      :     0.001292  f :     0.006989
      f+1     :     0.000621
      f-1     :     0.000952
      f+2     :     0.000380
      f-2     :     0.000835
      f+3     :     0.001313
      f-3     :     0.001596

 24 H s       :     0.811038  s :     0.811038
      pz      :     0.009984  p :     0.019616
      px      :     0.003667
      py      :     0.005965

 25 H s       :     0.807751  s :     0.807751
      pz      :     0.007900  p :     0.019534
      px      :     0.003645
      py      :     0.007989

 26 H s       :     0.810984  s :     0.810984
      pz      :     0.010003  p :     0.019617
      px      :     0.006099
      py      :     0.003515

 27 H s       :     0.807690  s :     0.807690
      pz      :     0.007884  p :     0.019539
      px      :     0.008118
      py      :     0.003537

 28 H s       :     0.800055  s :     0.800055
      pz      :     0.004852  p :     0.020655
      px      :     0.002729
      py      :     0.013075

 29 H s       :     0.799961  s :     0.799961
      pz      :     0.004852  p :     0.020654
      px      :     0.013033
      py      :     0.002769

 30 H s       :     0.803372  s :     0.803372
      pz      :     0.004082  p :     0.020287
      px      :     0.002754
      py      :     0.013450

 31 H s       :     0.803433  s :     0.803433
      pz      :     0.004083  p :     0.020285
      px      :     0.012893
      py      :     0.003309

 32 H s       :     0.802058  s :     0.802058
      pz      :     0.003845  p :     0.020200
      px      :     0.012989
      py      :     0.003366

 33 H s       :     0.801988  s :     0.801988
      pz      :     0.003846  p :     0.020202
      px      :     0.002788
      py      :     0.013568

 34 H s       :     0.795121  s :     0.795121
      pz      :     0.004124  p :     0.020498
      px      :     0.013549
      py      :     0.002825

 35 H s       :     0.795133  s :     0.795133
      pz      :     0.004124  p :     0.020499
      px      :     0.002802
      py      :     0.013573

 36 H s       :     0.805183  s :     0.805183
      pz      :     0.004065  p :     0.020219
      px      :     0.013373
      py      :     0.002780

 37 H s       :     0.805257  s :     0.805257
      pz      :     0.004066  p :     0.020217
      px      :     0.003336
      py      :     0.012815

 38 Mgs       :     4.529992  s :     4.529992
      pz      :     2.080192  p :     6.435323
      px      :     2.175938
      py      :     2.179194
      dz2     :     0.032240  d :     0.253554
      dxz     :     0.022124
      dyz     :     0.023545
      dx2y2   :     0.018966
      dxy     :     0.156679



                     *******************************
                     * LOEWDIN POPULATION ANALYSIS *
                     *******************************

----------------------
LOEWDIN ATOMIC CHARGES
----------------------
   0 N :    0.189792
   1 N :    0.165743
   2 N :    0.165720
   3 N :    0.175636
   4 C :   -0.191531
   5 C :   -0.191483
   6 C :   -0.187571
   7 C :   -0.187575
   8 C :   -0.138549
   9 C :   -0.138543
  10 C :   -0.200077
  11 C :   -0.199992
  12 C :   -0.216321
  13 C :   -0.216412
  14 C :   -0.124586
  15 C :   -0.124538
  16 C :   -0.108900
  17 C :   -0.108977
  18 C :   -0.074549
  19 C :   -0.074540
  20 C :   -0.220525
  21 C :   -0.220468
  22 C :   -0.129270
  23 C :   -0.129205
  24 H :    0.154314
  25 H :    0.151597
  26 H :    0.154309
  27 H :    0.151586
  28 H :    0.165653
  29 H :    0.165647
  30 H :    0.147967
  31 H :    0.147980
  32 H :    0.149994
  33 H :    0.149976
  34 H :    0.169924
  35 H :    0.169921
  36 H :    0.147277
  37 H :    0.147289
  38 Mg:    0.313288

-------------------------------
LOEWDIN REDUCED ORBITAL CHARGES
-------------------------------
  0 N s       :     2.977643  s :     2.977643
      pz      :     1.138096  p :     3.608852
      px      :     1.258492
      py      :     1.212264
      dz2     :     0.016066  d :     0.205570
      dxz     :     0.023175
      dyz     :     0.029748
      dx2y2   :     0.072674
      dxy     :     0.063907
      f0      :     0.001138  f :     0.018142
      f+1     :     0.001187
      f-1     :     0.001397
      f+2     :     0.002889
      f-2     :     0.000436
      f+3     :     0.006597
      f-3     :     0.004498

  1 N s       :     2.975490  s :     2.975490
      pz      :     1.203544  p :     3.641496
      px      :     1.189440
      py      :     1.248512
      dz2     :     0.015932  d :     0.199006
      dxz     :     0.030788
      dyz     :     0.023555
      dx2y2   :     0.068502
      dxy     :     0.060229
      f0      :     0.001119  f :     0.018266
      f+1     :     0.001344
      f-1     :     0.001241
      f+2     :     0.003462
      f-2     :     0.000294
      f+3     :     0.004646
      f-3     :     0.006160

  2 N s       :     2.975502  s :     2.975502
      pz      :     1.203548  p :     3.641509
      px      :     1.203500
      py      :     1.234461
      dz2     :     0.015936  d :     0.199004
      dxz     :     0.029951
      dyz     :     0.024395
      dx2y2   :     0.067514
      dxy     :     0.061209
      f0      :     0.001119  f :     0.018264
      f+1     :     0.001425
      f-1     :     0.001159
      f+2     :     0.003381
      f-2     :     0.000376
      f+3     :     0.004372
      f-3     :     0.006432

  3 N s       :     2.976931  s :     2.976931
      pz      :     1.182275  p :     3.625973
      px      :     1.244324
      py      :     1.199374
      dz2     :     0.015873  d :     0.202932
      dxz     :     0.025734
      dyz     :     0.033112
      dx2y2   :     0.067640
      dxy     :     0.060572
      f0      :     0.001082  f :     0.018528
      f+1     :     0.001183
      f-1     :     0.001365
      f+2     :     0.003780
      f-2     :     0.000319
      f+3     :     0.006295
      f-3     :     0.004505

  4 C s       :     2.765911  s :     2.765911
      pz      :     1.040915  p :     3.028619
      px      :     0.983125
      py      :     1.004580
      dz2     :     0.041310  d :     0.356867
      dxz     :     0.047924
      dyz     :     0.091887
      dx2y2   :     0.091543
      dxy     :     0.084203
      f0      :     0.003960  f :     0.040133
      f+1     :     0.003380
      f-1     :     0.004101
      f+2     :     0.004467
      f-2     :     0.005272
      f+3     :     0.009162
      f-3     :     0.009791

  5 C s       :     2.765929  s :     2.765929
      pz      :     1.040909  p :     3.028628
      px      :     1.002513
      py      :     0.985206
      dz2     :     0.041445  d :     0.356797
      dxz     :     0.090950
      dyz     :     0.048671
      dx2y2   :     0.086429
      dxy     :     0.089301
      f0      :     0.003972  f :     0.040129
      f+1     :     0.004114
      f-1     :     0.003348
      f+2     :     0.004486
      f-2     :     0.005264
      f+3     :     0.007479
      f-3     :     0.011465

  6 C s       :     2.715055  s :     2.715055
      pz      :     0.799026  p :     2.759596
      px      :     1.017027
      py      :     0.943543
      dz2     :     0.041279  d :     0.635947
      dxz     :     0.087389
      dyz     :     0.114942
      dx2y2   :     0.193012
      dxy     :     0.199324
      f0      :     0.005006  f :     0.076973
      f+1     :     0.004161
      f-1     :     0.006262
      f+2     :     0.011142
      f-2     :     0.006622
      f+3     :     0.031079
      f-3     :     0.012700

  7 C s       :     2.715070  s :     2.715070
      pz      :     0.799090  p :     2.759608
      px      :     0.937913
      py      :     1.022606
      dz2     :     0.041316  d :     0.635924
      dxz     :     0.102963
      dyz     :     0.099334
      dx2y2   :     0.190600
      dxy     :     0.201711
      f0      :     0.005005  f :     0.076974
      f+1     :     0.005922
      f-1     :     0.004508
      f+2     :     0.010100
      f-2     :     0.007663
      f+3     :     0.020362
      f-3     :     0.023415

  8 C s       :     2.745447  s :     2.745447
      pz      :     0.974498  p :     2.994206
      px      :     1.027038
      py      :     0.992669
      dz2     :     0.024771  d :     0.359309
      dxz     :     0.072258
      dyz     :     0.011414
      dx2y2   :     0.154485
      dxy     :     0.096382
      f0      :     0.003025  f :     0.039586
      f+1     :     0.004896
      f-1     :     0.003107
      f+2     :     0.002040
      f-2     :     0.005350
      f+3     :     0.012539
      f-3     :     0.008630

  9 C s       :     2.745460  s :     2.745460
      pz      :     0.974480  p :     2.994194
      px      :     0.989987
      py      :     1.029726
      dz2     :     0.024773  d :     0.359305
      dxz     :     0.011831
      dyz     :     0.071862
      dx2y2   :     0.151305
      dxy     :     0.099535
      f0      :     0.003025  f :     0.039584
      f+1     :     0.003085
      f-1     :     0.004918
      f+2     :     0.002112
      f-2     :     0.005280
      f+3     :     0.008779
      f-3     :     0.012387

 10 C s       :     2.700181  s :     2.700181
      pz      :     0.810373  p :     2.766690
      px      :     1.011089
      py      :     0.945228
      dz2     :     0.042510  d :     0.652592
      dxz     :     0.096055
      dyz     :     0.118226
      dx2y2   :     0.195415
      dxy     :     0.200386
      f0      :     0.004712  f :     0.080615
      f+1     :     0.004677
      f-1     :     0.006009
      f+2     :     0.012507
      f-2     :     0.007688
      f+3     :     0.026502
      f-3     :     0.018519

 11 C s       :     2.700205  s :     2.700205
      pz      :     0.810409  p :     2.766688
      px      :     0.944574
      py      :     1.011704
      dz2     :     0.042521  d :     0.652502
      dxz     :     0.123859
      dyz     :     0.090383
      dx2y2   :     0.191733
      dxy     :     0.204007
      f0      :     0.004711  f :     0.080598
      f+1     :     0.006274
      f-1     :     0.004412
      f+2     :     0.014812
      f-2     :     0.005380
      f+3     :     0.012855
      f-3     :     0.032154

 12 C s       :     2.696226  s :     2.696226
      pz      :     0.867374  p :     2.809167
      px      :     0.926631
      py      :     1.015161
      dz2     :     0.042600  d :     0.632568
      dxz     :     0.118235
      dyz     :     0.078866
      dx2y2   :     0.195913
      dxy     :     0.196953
      f0      :     0.004816  f :     0.078361
[...]
  0-1A  ->  1-1A    2.233359   18013.3   555.1   0.245351711   0.03021  -0.10996   0.13459  -0.00066
  0-1A  ->  2-1A    2.612464   21070.9   474.6   0.007155310   0.00103   0.02481   0.02036   0.00006
  0-1A  ->  3-1A    3.388283   27328.3   365.9   1.529238070   0.28562  -0.41334  -0.33878  -0.00099
  0-1A  ->  4-1A    3.590861   28962.3   345.3   1.170164336   0.23163   0.30555  -0.37184  -0.00030
  0-1A  ->  5-1A    4.122454   33249.8   300.8   0.000443409   0.00010  -0.00630   0.00777  -0.00080
  0-1A  ->  6-1A    4.201545   33887.7   295.1   0.012522353   0.00290   0.04166   0.03413   0.00011
  0-1A  ->  7-1A    4.597427   37080.8   269.7   0.134903615   0.03419   0.14334   0.11680   0.00036
  0-1A  ->  8-1A    4.668319   37652.5   265.6   0.000086322   0.00002   0.00363   0.00297  -0.00048
  0-1A  ->  9-1A    4.787287   38612.1   259.0   0.044514426   0.01175  -0.06900   0.08359   0.00007
  0-1A  -> 10-1A    4.965324   40048.0   249.7   0.040258946   0.01102  -0.06577   0.08075   0.01313
  0-1A  -> 11-1A    4.970827   40092.4   249.4   0.034207075   0.00937  -0.06065   0.07460  -0.01140
  0-1A  -> 12-1A    4.990274   40249.3   248.5   0.024158055   0.00665   0.05136  -0.06318  -0.00391
  0-1A  -> 13-1A    5.087659   41034.7   243.7   0.009965315   0.00279  -0.04172  -0.03247  -0.00001
  0-1A  -> 14-1A    5.280569   42590.7   234.8   0.021800954   0.00635  -0.06173  -0.05036  -0.00017
  0-1A  -> 15-1A    5.346108   43119.3   231.9   0.061543590   0.01814  -0.08372   0.10542   0.00366
  0-1A  -> 16-1A    5.354539   43187.3   231.5   0.026920308   0.00795   0.07043   0.05465   0.00007
  0-1A  -> 17-1A    5.464946   44077.8   226.9   0.036837668   0.01110  -0.06731   0.08101  -0.00186
  0-1A  -> 18-1A    5.468211   44104.1   226.7   0.000060059   0.00002  -0.00274  -0.00326  -0.00000
  0-1A  -> 19-1A    5.500437   44364.0   225.4   0.233745277   0.07087   0.16792  -0.20656   0.00249
  0-1A  -> 20-1A    5.558482   44832.2   223.1   0.001085682   0.00033  -0.01398  -0.01171  -0.00008
  0-1A  -> 21-1A    5.743089   46321.1   215.9   0.001457799   0.00046  -0.00490   0.00596   0.02005
  0-1A  -> 22-1A    5.802090   46797.0   213.7   0.000156763   0.00005   0.00562   0.00430  -0.00004
  0-1A  -> 23-1A    5.969215   48145.0   207.7   0.034046722   0.01120  -0.06662   0.08188   0.00780
  0-1A  -> 24-1A    6.010303   48476.4   206.3   0.000105269   0.00003  -0.00450  -0.00382   0.00006
  0-1A  -> 25-1A    6.118838   49351.8   202.6   0.011190341   0.00377  -0.03881   0.04762   0.00076
  0-1A  -> 26-1A    6.200015   50006.5   200.0   0.002837369   0.00097   0.02409   0.01973   0.00002
  0-1A  -> 27-1A    6.210931   50094.5   199.6   0.000725548   0.00025   0.01219   0.00999  -0.00014
  0-1A  -> 28-1A    6.333082   51079.8   195.8   0.000009461   0.00000  -0.00146  -0.00108   0.00005
  0-1A  -> 29-1A    6.433175   51887.1   192.7   0.001847792   0.00066   0.00096  -0.00129   0.02555
  0-1A  -> 30-1A    6.457851   52086.1   192.0   0.049987147   0.01779  -0.08463   0.10309   0.00204

------------------------------------------------------------------------------------------
                     CD SPECTRUM VIA TRANSITION ELECTRIC DIPOLE MOMENTS    
------------------------------------------------------------------------------------------
     Transition      Energy     Energy  Wavelength    R        MX        MY        MZ   
                      (eV)      (cm-1)    (nm)   (1e40*cgs)   (au)      (au)      (au)  
------------------------------------------------------------------------------------------
  0-1A  ->  1-1A    2.233359   18013.3   555.1    2.78866   0.00177   0.00086  -1.02023
  0-1A  ->  2-1A    2.612464   21070.9   474.6   -0.26442  -0.00136  -0.00111  -0.00034
  0-1A  ->  3-1A    3.388283   27328.3   365.9  -21.84804   0.00878   0.00689   0.00063
  0-1A  ->  4-1A    3.590861   28962.3   345.3    1.37080   0.00054  -0.00056  -0.07321
  0-1A  ->  5-1A    4.122454   33249.8   300.8   -1.58524   0.00225  -0.00475   0.63713
  0-1A  ->  6-1A    4.201545   33887.7   295.1   -0.75627  -0.00371  -0.00306   0.00178
  0-1A  ->  7-1A    4.597427   37080.8   269.7   -2.22563  -0.00347  -0.00282   0.00054
  0-1A  ->  8-1A    4.668319   37652.5   265.6   -0.56800  -0.03293  -0.02691   0.00005
  0-1A  ->  9-1A    4.787287   38612.1   259.0    0.69068  -0.00100   0.00261  -0.46983
  0-1A  -> 10-1A    4.965324   40048.0   249.7   71.19504  -0.14001   0.17003   0.46604
  0-1A  -> 11-1A    4.970827   40092.4   249.4   -6.94792  -0.01110   0.01277   0.43629
  0-1A  -> 12-1A    4.990274   40249.3   248.5  -50.06446  -0.16588   0.20459  -0.39269
  0-1A  -> 13-1A    5.087659   41034.7   243.7   -0.45005   0.00299   0.00207   0.00315
  0-1A  -> 14-1A    5.280569   42590.7   234.8    1.30203  -0.00534  -0.00434   0.00047
  0-1A  -> 15-1A    5.346108   43119.3   231.9    3.92178   0.00366  -0.00635   0.70885
  0-1A  -> 16-1A    5.354539   43187.3   231.5    0.29257   0.00100   0.00105  -0.01288
  0-1A  -> 17-1A    5.464946   44077.8   226.9   -0.82414  -0.00025   0.00190   0.26311
  0-1A  -> 18-1A    5.468211   44104.1   226.7   -2.23025   0.18582   0.15172  -0.00090
  0-1A  -> 19-1A    5.500437   44364.0   225.4    2.82278   0.00137  -0.00255   0.19930
  0-1A  -> 20-1A    5.558482   44832.2   223.1   -0.44515   0.00804   0.00674  -0.00266
  0-1A  -> 21-1A    5.743089   46321.1   215.9    0.26688  -0.03113   0.03775  -0.01484
  0-1A  -> 22-1A    5.802090   46797.0   213.7   -0.12899  -0.00771  -0.00617  -0.00045
  0-1A  -> 23-1A    5.969215   48145.0   207.7    3.61395  -0.00358   0.00448   0.14599
  0-1A  -> 24-1A    6.010303   48476.4   206.3   -1.56795   0.10209   0.08335   0.00032
  0-1A  -> 25-1A    6.118838   49351.8   202.6   -0.07085   0.00124  -0.00184   0.15291
  0-1A  -> 26-1A    6.200015   50006.5   200.0   -2.64023  -0.03484  -0.02786  -0.00173
  0-1A  -> 27-1A    6.210931   50094.5   199.6    5.30806   0.13748   0.11143  -0.00020
  0-1A  -> 28-1A    6.333082   51079.8   195.8    0.36594  -0.08334  -0.06762  -0.00002
  0-1A  -> 29-1A    6.433175   51887.1   192.7    0.74072   0.07130  -0.08726   0.01001
  0-1A  -> 30-1A    6.457851   52086.1   192.0   -0.74944   0.00334  -0.00440   0.18323

------------------------------------------------------------------------------------------
                     CD SPECTRUM VIA TRANSITION VELOCITY DIPOLE MOMENTS    
------------------------------------------------------------------------------------------
     Transition      Energy     Energy  Wavelength    R        MX        MY        MZ   
                      (eV)      (cm-1)    (nm)   (1e40*cgs)   (au)      (au)      (au)  
------------------------------------------------------------------------------------------
  0-1A  ->  1-1A    2.233359   18013.3   555.1    3.39635   0.00177   0.00086  -1.02023
  0-1A  ->  2-1A    2.612464   21070.9   474.6   -0.27698  -0.00136  -0.00111  -0.00034
  0-1A  ->  3-1A    3.388283   27328.3   365.9  -22.57995   0.00878   0.00689   0.00063
  0-1A  ->  4-1A    3.590861   28962.3   345.3    1.41003   0.00054  -0.00056  -0.07321
  0-1A  ->  5-1A    4.122454   33249.8   300.8   -1.73855   0.00225  -0.00475   0.63713
  0-1A  ->  6-1A    4.201545   33887.7   295.1   -0.79033  -0.00371  -0.00306   0.00178
  0-1A  ->  7-1A    4.597427   37080.8   269.7   -2.30426  -0.00347  -0.00282   0.00054
  0-1A  ->  8-1A    4.668319   37652.5   265.6   -0.54802  -0.03293  -0.02691   0.00005
  0-1A  ->  9-1A    4.787287   38612.1   259.0    0.68633  -0.00100   0.00261  -0.46983
  0-1A  -> 10-1A    4.965324   40048.0   249.7   75.07877  -0.14001   0.17003   0.46604
  0-1A  -> 11-1A    4.970827   40092.4   249.4   -8.64046  -0.01110   0.01277   0.43629
  0-1A  -> 12-1A    4.990274   40249.3   248.5  -51.18208  -0.16588   0.20459  -0.39269
  0-1A  -> 13-1A    5.087659   41034.7   243.7   -0.48415   0.00299   0.00207   0.00315
  0-1A  -> 14-1A    5.280569   42590.7   234.8    1.33151  -0.00534  -0.00434   0.00047
  0-1A  -> 15-1A    5.346108   43119.3   231.9    3.87691   0.00366  -0.00635   0.70885
  0-1A  -> 16-1A    5.354539   43187.3   231.5    0.30457   0.00100   0.00105  -0.01288
  0-1A  -> 17-1A    5.464946   44077.8   226.9   -0.75015  -0.00025   0.00190   0.26311
  0-1A  -> 18-1A    5.468211   44104.1   226.7   -2.35262   0.18582   0.15172  -0.00090
  0-1A  -> 19-1A    5.500437   44364.0   225.4    2.92421   0.00137  -0.00255   0.19930
  0-1A  -> 20-1A    5.558482   44832.2   223.1   -0.44107   0.00804   0.00674  -0.00266
  0-1A  -> 21-1A    5.743089   46321.1   215.9    0.17882  -0.03113   0.03775  -0.01484
  0-1A  -> 22-1A    5.802090   46797.0   213.7   -0.15455  -0.00771  -0.00617  -0.00045
  0-1A  -> 23-1A    5.969215   48145.0   207.7    3.74778  -0.00358   0.00448   0.14599
  0-1A  -> 24-1A    6.010303   48476.4   206.3   -1.66086   0.10209   0.08335   0.00032
  0-1A  -> 25-1A    6.118838   49351.8   202.6   -0.04174   0.00124  -0.00184   0.15291
  0-1A  -> 26-1A    6.200015   50006.5   200.0   -2.87428  -0.03484  -0.02786  -0.00173
  0-1A  -> 27-1A    6.210931   50094.5   199.6    5.76064   0.13748   0.11143  -0.00020
  0-1A  -> 28-1A    6.333082   51079.8   195.8    0.39451  -0.08334  -0.06762  -0.00002
  0-1A  -> 29-1A    6.433175   51887.1   192.7    0.87153   0.07130  -0.08726   0.01001
  0-1A  -> 30-1A    6.457851   52086.1   192.0   -0.71804   0.00334  -0.00440   0.18323

Total run time:    10813.418 sec

           *** ORCA-CIS/TD-DFT FINISHED WITHOUT ERROR ***
-----------------------
CIS/TD-DFT TOTAL ENERGY
-----------------------

    E(SCF)  =  -1189.754699934 Eh
    DE(CIS) =      0.082074421 Eh (Root  1)
    ----------------------------- ---------
    E(tot)  =  -1189.672625513 Eh


Maximum memory used throughout the entire CIS-calculation: 2727.0 MB
=> NOW LEAVING ORCA_CIS

-------------------------   --------------------
FINAL SINGLE POINT ENERGY     -1189.672625513305
-------------------------   --------------------



           ************************************************************
           *        Program running with 4 parallel MPI-processes     *
           *              working on a common directory               *
           ************************************************************

------------------------------------------------------------------------------
                              ORCA PROPERTY CALCULATIONS
------------------------------------------------------------------------------

GBWName                                 ... tddft.gbw
Number of atoms                         ...     39
Number of basis functions               ...    860
Max core memory                         ...   3000 MB

Electric properties:
Dipole moment                           ... YES
Quadrupole moment                       ...  NO
Static polarizability (Dipole/Dipole)   ...  NO
Static polarizability (Dipole/Quad.)    ...  NO
Static polarizability (Quad./Quad.)     ...  NO
Static polarizability (Velocity)        ...  NO
Static hyperpolarizability              ...  NO

Atomic electric properties:
Dipole moment                           ...  NO
Quadrupole moment                       ...  NO
Static polarizability                   ...  NO

Choice of electric origin               ... Center of mass
Position of electric origin             ...     0.020726     0.037348     0.001110

General magnetic properties:
Magnetizability                         ...  NO

EPR properties:
g-Tensor (aka g-matrix)                 ...  NO
Zero-Field splitting spin-orbit         ...  NO
Zero-field splitting spin-spin          ...  NO
Hyperfine couplings                     ...  NO (   0 nuclei)
Quadrupole couplings                    ...  NO (   0 nuclei)
Contact density                         ...  NO (   0 nuclei)

NMR properties:
Chemical shifts                         ...  NO (   0 nuclei)
Spin-rotation constants                 ...  NO (   0 nuclei)
Spin-spin couplings                     ...  NO (   0 nuclei,    0 pairs)

Choice of magnetic origin               ... GIAO
Position of magnetic origin             ...     0.000000     0.000000     0.000000

Properties with geometric perturbations:
SCF Hessian                             ...  NO
IR spectrum                             ...  NO
VCD spectrum                            ...  NO
X-ray spectroscopy properties:
SCF XES/XAS/RIXS spectra                ...  NO

SCF SOC stabilization energy            ...  NO
Diagonal Born-Oppenheimer correction    ...  NO

-------------
DIPOLE MOMENT
-------------

Method             : SCF
Type of density    : Electron Density
Multiplicity       :   1
Irrep              :   0
Energy             : -1189.7546999338690057 Eh
Basis              : AO
                                X                 Y                 Z
Electronic contribution:     -5.269164781      -4.299972366      -0.010489911
Nuclear contribution   :      6.309094870       5.149182336       0.012909410
                        -----------------------------------------
Total Dipole Moment    :      1.039930089       0.849209970       0.002419499
                        -----------------------------------------
Magnitude (a.u.)       :      1.342616109
Magnitude (Debye)      :      3.412658942



--------------------
Rotational spectrum 
--------------------
 
Rotational constants in cm-1:             0.008906             0.008560             0.004372 
Rotational constants in MHz :           266.993354           256.633129           131.080005 

Dipole components along the rotational axes: 
x,y,z [a.u.] :     1.342616    -0.000880    -0.000064 
x,y,z [Debye]:     3.412658    -0.002236    -0.000163 

 

Dipole moment calculation done in   0.0 sec 

Maximum memory used throughout the entire PROP-calculation: 88.5 MB

--------------------------------
SUGGESTED CITATIONS FOR THIS RUN
--------------------------------

Below you find a list of papers that are relevant to this ORCA run
We neither can nor want to force you to cite these papers, but we appreciate if you do
You receive ORCA, which is the product of decades of hard work by many enthusiastic individuals, for free
The only thing we kindly ask in return is that you cite our papers,
We deeply appreciate it, if you show your appreciation for ORCA by not just citing the generic ORCA reference.

Please note that relegating all ORCA citations to the supporting information does *not* help us.
SI sections are not indexed - citations you put there will not count into any citation statistics
But we need these citations in order to attract the funding resources that allow us to do what we are doing

Therefore, if you are a happy ORCA user, please consider citing a few of the papers listed below in the main body of your paper

In addition to the list printed below, the program has created the file tddft.bibtex that contains the list in bibtex format
You can import this file easily into all common literature databanks and citation aid programs

It goes without saying that in many instances, there are alternative algorithms to achieve similar
results as the ones you have gotten from ORCA. It is, of course, also the case that in some instances
ORCA just re-implements algorithms worked out by others. We are fully aware of that and we are also
fully appreciative of our colleagues work. Hence this citation list should not be read as indicating
that the listed papers, which are focused on our own work, are the only ones worth citing. It simply
meant to make it easier for users to cite ORCA specific papers. It is not a substitute for doing your
own literature research and citing the relevant literature in a scientifically appropriate manner.

List of essential papers. We consider these as the minimum necessary citations

  1. Neese, F.
     Software update: the ORCA program system, version 6.0
     WIRES Comput. Molec. Sci. 2025 15(1), e70019
     doi.org/10.1002/wcms.70019

List of papers to cite with high priority. The work reported in these papers was absolutely
necessary for this run to complete.
Our perspective: the developers of density functionals and basis sets usually get cited in chemistry papers
Good! But without the algorithms to do something with them, the functionals or basis sets would not do anything.
Hence, in our opinion, the algorithm design and method developments papers are equally worthy of getting cited

  1. Neese, F.; Olbrich, G.
     Efficient use of the resolution of the identity approximation in time-dependent density functional calculations with hybrid density functionals
     Chem. Phys. Lett. 2002 362 , 170-178
     doi.org/10.1016/s0009-2614(02)01053-9
  2. Neese, F.
     An improvement of the resolution of the identity approximation for the formation of the Coulomb matrix
     J. Comp. Chem. 2003 24(14), 1740-1747
     doi.org/10.1002/jcc.10318
  3. Neese, F.; Wennmohs, F.; Hansen, A.; Becker, U.
     Efficient, approximate and parallel Hartree-Fock and hybrid DFT calculations. A 'chain-of-spheres' algorithm for the Hartree-Fock exchange
     Chem. Phys. 2009 356(1-3), 98-109
     doi.org/10.1016/j.chemphys.2008.10.036
  4. Garcia-Rates, M.; Neese, F.
     Effect of the Solute Cavity on the Solvation Energy and its Derivatives within the Framework of the Gaussian Charge Scheme
     J. Comput. Chem. 2020 41 , 922-939
     doi.org/10.1002/jcc.26139
  5. Helmich-Paris, B.; de Souza, B.; Neese, F.; Izsák, R.
     An improved chain of spheres for exchange algorithm
     J. Chem. Phys. 2021 155(10), 104109
     doi.org/10.1063/5.0058766
  6. Neese, F.
     The SHARK Integral Generation and Digestion System
     J. Comp. Chem. 2022 44(3), 381
     doi.org/10.1002/jcc.26942

List of suggested additional citations. These are papers that are important in the 'surrounding' of 
of this run, or papers that preceded the highly important papers. If you like your results we are grateful for a citation.

  1. Izsak, R.; Neese, F.
     An overlap fitted chain of spheres exchange method
     J. Chem. Phys. 2011 135 , 144105
     doi.org/10.1063/1.3646921
  2. Izsak, R.; Hansen, A.; Neese, F.
     The resolution of identity and chain of spheres approximations for the LPNO-CCSD singles Fock term
     Molec. Phys. 2012 110 , 2413-2417
     doi.org/10.1080/00268976.2012.687466
  3. Neese, F.
     The ORCA program system
     WIRES Comput. Molec. Sci. 2012 2(1), 73-78
     doi.org/10.1002/wcms.81
  4. Izsak, R.; Neese, F.; Klopper, W.
     Robust fitting techniques in the chain of spheres approximation to the Fock exchange: The role of the complementary space
     J. Chem. Phys. 2013 139 , 
     doi.org/10.1063/1.4819264
  5. Neese, F.
     Software update: the ORCA program system, version 4.0
     WIRES Comput. Molec. Sci. 2018 8(1), 1-6
     doi.org/10.1002/wcms.1327
  6. Neese, F.; Wennmohs, F.; Becker, U.; Riplinger, C.
     The ORCA quantum chemistry program package
     J. Chem. Phys. 2020 152(22), 224108
     doi.org/10.1063/5.0004608
  7. Neese, F.
     Software update: The ORCA program system—Version 5.0
     WIRES Comput. Molec. Sci. 2022 12(1), e1606
     doi.org/10.1002/wcms.1606

List of optional additional citations

  1. Neese, F.
     Approximate second-order SCF convergence for spin unrestricted wavefunctions
     Chem. Phys. Lett. 2000 325(1-3), 93-98
     doi.org/10.1016/s0009-2614(00)00662-x

Timings for individual modules:

Sum of individual times          ...    12711.893 sec (= 211.865 min)
Startup calculation              ...       29.811 sec (=   0.497 min)   0.2 %
SCF iterations                   ...     1863.708 sec (=  31.062 min)  14.7 %
Property integrals               ...        4.013 sec (=   0.067 min)   0.0 %
Property calculations            ...        0.553 sec (=   0.009 min)   0.0 %
CIS module                       ...    10813.808 sec (= 180.230 min)  85.1 %
                             ****ORCA TERMINATED NORMALLY****
TOTAL RUN TIME: 0 days 3 hours 31 minutes 52 seconds 280 msec
