
                                 *****************
                                 * O   R   C   A *
                                 *****************

                                            #,                                       
                                            ###                                      
                                            ####                                     
                                            #####                                    
                                            ######                                   
                                           ########,                                 
                                     ,,################,,,,,                         
                               ,,#################################,,                 
                          ,,##########################################,,             
                       ,#########################################, ''#####,          
                    ,#############################################,,   '####,        
                  ,##################################################,,,,####,       
                ,###########''''           ''''###############################       
              ,#####''   ,,,,##########,,,,          '''####'''          '####       
            ,##' ,,,,###########################,,,                        '##       
           ' ,,###''''                  '''############,,,                           
         ,,##''                                '''############,,,,        ,,,,,,###''
      ,#''                                            '''#######################'''  
     '                                                          ''''####''''         
             ,#######,   #######,   ,#######,      ##                                
            ,#'     '#,  ##    ##  ,#'     '#,    #''#        ,####,    ,#,          
            ##       ##  ##   ,#'  ##            #'  '#       #'       ,# #          
            ##       ##  #######   ##           ,######,      #####,      #          
            '#,     ,#'  ##    ##  '#,     ,#' ,#      #,     #,   #      #          
             '#######'   ##     ##  '#######'  #'      '#     '####' #    #          



                #########################################################
                #                        -***-                          #
                #          Department of theory and spectroscopy        #
                #                                                       #
                #                      Frank Neese                      #
                #                                                       #
                #     Directorship, Architecture, Infrastructure        #
                #                    SHARK, DRIVERS                     #
                #        Core code/Algorithms in most modules           #
                #                                                       #
                #        Max Planck Institute fuer Kohlenforschung      #
                #                Kaiser Wilhelm Platz 1                 #
                #                 D-45470 Muelheim/Ruhr                 #
                #                      Germany                          #
                #                                                       #
                #                  All rights reserved                  #
                #                        -***-                          #
                #########################################################


                         Program Version 6.1.1  -  RELEASE   -
                                (GIT: $487d211c$)
                          ($2025-11-21 10:33:24 +0100$)


 With contributions from (in alphabetic order):
[Max-Planck-Institut fuer Kohlenforschung]                               
  Daniel Aravena         : Magnetic Suceptibility                        
  Michael Atanasov       : Ab Initio Ligand Field Theory (pilot matlab implementation)
  Alexander A. Auer      : GIAO ZORA, VPT2 properties, NMR spectrum      
  Ute Becker             : All parallelization in ORCA, NUMFREQ, NUMCALC 
  Giovanni Bistoni       : ED, misc. LED, open-shell LED, HFLD           
  Dmytro Bykov           : pre 5.0 version of the SCF Hessian            
  Marcos Casanova-Páez   : Triplet and SCS-CIS(D). UHF-(DLPNO)-IP/EA/STEOM-CCSD. UHF-CVS-IP/STEOM-CCSD   
  Vijay G. Chilkuri      : MRCI spin determinant printing, contributions to CSF-ICE 
  Pauline Colinet        : FMM embedding                                 
  Dipayan Datta          : RHF DLPNO-CCSD density                        
  Achintya Kumar Dutta   : EOM-CC, STEOM-CC                              
  Nicolas Foglia         : Exact transition moments, OPA infrastructure, MCD improvements    
  Dmitry Ganyushin       : Spin-Orbit,Spin-Spin,Magnetic field MRCI      
  Miquel Garcia-Rates    : C-PCM and meta-GGA Hessian, CCSD/C-PCM, Gaussian charge scheme 
  Tiago L. C. Gouveia    : GS-ROHF, GS-ROCIS                             
  Yang Guo               : DLPNO-NEVPT2, F12-NEVPT2, CIM, IAO-localization        
  Andreas Hansen         : Spin unrestricted coupled pair/coupled cluster methods 
  Ingolf Harden          : AUTO-CI MPn and infrastructure                
  Benjamin Helmich-Paris : MC-RPA, TRAH-(SCF,CASSCF), AVAS, COSX integrals, SCF dyn. polar., MC-PDFT, srDFT 
  Lee Huntington         : MR-EOM, pCC                                   
  Robert Izsak           : Overlap fitted RIJCOSX, COSX-SCS-MP3, EOM     
  Riya Kayal             : Wick's Theorem for AUTO-CI, AUTO-CI UHF-CCSDT 
  Emily Kempfer          : AUTO-CI RHF CISDT and CCSDT, approximate NEVPT4
  Christian Kollmar      : KDIIS, OOCD, Brueckner-CCSD(T), CCSD density, CASPT2, CASPT2-K, improved NEVPT2 
  Axel Koslowski         : Symmetry handling                             
  Simone Kossmann        : meta-GGA functionals, TD-DFT gradient, OOMP2, (MP2 Hessian; deprecated post 5.0) 
  Lucas Lang             : DCDCAS, Hyperfine gauge corrections, ICE-SOC+SSC
  Marvin Lechner         : AUTO-CI (C++ implementation), FIC-MRCC        
  Spencer Leger          : CASSCF response                               
  Dagmar Lenk            : GEPOL surface, SMD, ORCA-2-JSON               
  Dimitrios Liakos       : Extrapolation schemes; Compound Job, Property file
  Dimitrios Manganas     : Further ROCIS development; embedding schemes. LFT, Crystal Embedding 
  Dimitrios Pantazis     : SARC Basis sets                               
  Anastasios Papadopoulos: AUTO-CI, single reference methods and gradients 
  Taras Petrenko         : pre 6.0 DFT Hessian and TD-DFT gradient,  ECA, NRVS 
  Petra Pikulova         : Analytic Raman intensities                    
  Peter Pinski           : DLPNO-MP2, DLPNO-MP2 Gradient                 
  Shashank Vittal Rao    : ES-AILFT, MagRelax                            
  Christoph Reimann      : Effective Core Potentials                     
  Marius Retegan         : Local ZFS, SOC                                
  Christoph Riplinger    : Optimizer, TS searches, QM/MM, DLPNO-CCSD(T), (RO)-DLPNO pert. Triples 
  Michael Roemelt        : Original ROCIS implementation, recursive CI coupling coefficients
  Masaaki Saitow         : Open-shell DLPNO-CCSD energy and density      
  Barbara Sandhoefer     : DKH picture change effects                    
  Yorick L. A. Schmerwitz: GMF and freeze-and-release deltaSCF, NEB S-IDPP initial path                    
  Kantharuban Sivalingam : CASSCF convergence/infrastructure, NEVPT2, NEVPT3, NEVPT4(SD), FIC-MRCI and CEPA variants
  Bernardo de Souza      : ESD, SOC TD-DFT                               
  Georgi L. Stoychev     : AutoAux, RI-MP2 NMR, DLPNO-MP2 response, X2C  
  Van Anh Tran           : RI-MP2 g-tensors                              
  Willem Van den Heuvel  : Paramagnetic NMR                              
  Zikuan Wang            : NOTCH, Electric field optimization            
  Frank Wennmohs         : Technical directorship and infrastructure     
  Hang Xu                : AUTO-CI-Response properties                   
                                                                         
[FACCTs GmbH]                                                            
  Markus Bursch, Nicolas Foglia, Miquel Garcia-Rates, Ingolf Harden, Hagen Neugebauer, Anastasios Papadopoulos, 
  Christoph Riplinger, Bernardo de Souza, Georgi L. Stoychev                                                    
                                                                 
  APM, various basis sets, CI-OPT, improved COSX, DLPNO-Multilevel,           
  DOCKER, DRACO, updates on ESD, Fragmentator, GOAT, IRC, LR-CPCM, L-BFGS, MBIS, meta-GGA TD-DFT gradient, ML-optimized integration grids, 
  MM, NACMEs, nearIR, NEB, NEB-TS, NL-DFT gradient (VV10), 2- and 3-layer-ONIOM, interface openCOSMO-RS, QMMM,   
  Crystal-QMMM, RESP, rigid body optimization, SF, symmetry and pop. for TD-DFT, various functionals, SOLVATOR                                   
                                                                         
[Other institutions]                                                     
  V. Asgeirsson          : NEB                                           
  Christoph Bannwarth    : sTDA-DFT, sTD-DFT, PBEh-3c, B97-3c, D3        
  Giovanni Bistoni       : ETS/NOCV, ADLD/ADEX, COVALED                  
  Martin Brehm           : Molecular dynamics                            
  Ronald Cardenas        : ETS/NOCV                                      
  Martina Colucci        : COVALED                                       
  Sebastian Ehlert       : rSCAN, r2SCAN, r2SCAN-3c, D4, dhf basis sets  
  Marvin Friede          : D4 for Fr, Ra, Ac-Lr                          
  Lars Goerigk           : TD-DFT with DH, B97 family of functionals     
  Stefan Grimme          : VdW corrections, initial TS optimization, DFT functionals, gCP, sTDA/sTD-DF 
  Waldemar Hujo          : DFT-NL                                        
  H. Jonsson             : NEB                                           
  Holger Kruse           : gCP                                           
  Marcel Mueller         : wB97X-3c, vDZP basis set                      
  Hagen Neugebauer       : wr2SCAN, Native XTB                           
  Gianluca Regni         : ADLD/ADEX                                     
  Tobias Risthaus        : pre 6.0 range-separated hybrid DFT and stability analysis
  Lukas Wittmann         : regularized MP2, r2SCAN double-hybrids, wr2SCAN        
                                                                         
We gratefully acknowledge several colleagues who have allowed us to      
interface, adapt or use parts of their codes:                            
  Ed Valeev, F. Pavosevic, A. Kumar             : LibInt (2-el integral package), F12 methods 
  Garnet Chan, S. Sharma, J. Yang, R. Olivares  : DMRG                   
  Ulf Ekstrom                                   : XCFun DFT Library      
  Mihaly Kallay                                 : mrcc  (arbitrary order and MRCC methods)
  Frank Weinhold                                : gennbo (NPA and NBO analysis)           
  Simon Mueller                                 : openCOSMO-RS                            
  Christopher J. Cramer and Donald G. Truhlar   : smd solvation model                     
  S Lehtola, MJT Oliveira, MAL Marques          : LibXC Library                           
  Liviu Ungur et al                             : ANISO software                          


 Your calculation uses the libint2 library for the computation of 2-el integrals
 For citations please refer to: http://libint.valeyev.net

 Your ORCA version has been built with support for libXC version: 7.0.0
 For citations please refer to: https://libxc.gitlab.io

 This ORCA versions uses:
   CBLAS   interface :  Fast vector & matrix operations
   LAPACKE interface :  Fast linear algebra routines
   SCALAPACK package :  Parallel linear algebra routines
   Shared memory     :  Shared parallel matrices
   BLAS/LAPACK       :  OpenBLAS 0.3.29  USE64BITINT DYNAMIC_ARCH NO_AFFINITY Haswell SINGLE_THREADED
        Core in use  :  Haswell
   Copyright (c) 2011-2014, The OpenBLAS Project


  ***********************************
  * Starting time: Sun Jul  5 20:36:01 2026
  * Host name:     steezy
  * Process ID:    1294990
  * Working dir.:  /home/jannes/chlorophyll-ladder/007-mg-core-ladder/mgchlorin/03_tddft_ch2cl2/tpss
  ***********************************

NOTE: MaxCore=3000 MB was set to SCF,MP2,MDCI,CIPSI,MRCI,RASCI and CIS
      => If you want to overwrite this, your respective input block should be placed after the MaxCore statement


***************************************
The coordinates will be read from file: /home/jannes/chlorophyll-ladder/007-mg-core-ladder/mgchlorin/01_opt/mgchlorin_opt_b3lypd4_tzvp.xyz
***************************************


================================================================================

----- Orbital basis set information -----
Your calculation utilizes the basis: def2-TZVP
   F. Weigend and R. Ahlrichs, Phys. Chem. Chem. Phys. 7, 3297 (2005).

----- AuxJ basis set information -----
Your calculation utilizes the auxiliary basis: def2/J
   H-Rn: F. Weigend, Phys. Chem. Chem. Phys. 8, 1057 (2006).
   Fr-Lr: K. Eichkorn, F. Weigend, O. Treutler, R. Ahlrichs; Theor. Chem. Acc. 97, 119 (1997).

================================================================================
                                        WARNINGS
                       Please study these warnings very carefully!
================================================================================



WARNING: Found flag for RIJCOSX approximation but no HF exchange needed!
  ===> : RIJCOSX  will be disabled and Split-RI-J is turned on

WARNING: CIS/ROCIS methods need fully converged wavefunctions
  ===> : Setting SCFConvForced true
         You can overwrite this default with %scf ConvForced false 


================================================================================
                                       INPUT FILE
================================================================================
NAME = tddft.inp
|  1> %pal nprocs 4 end
|  2> %maxcore 3000
|  3> ! TPSS def2-TZVP def2/J RIJCOSX DefGrid3 TightSCF CPCM(CH2Cl2)
|  4> %tddft
|  5>   nroots 30
|  6>   tda false
|  7>   triplets false
|  8> end
|  9> * xyzfile 0 1 /home/jannes/chlorophyll-ladder/007-mg-core-ladder/mgchlorin/01_opt/mgchlorin_opt_b3lypd4_tzvp.xyz
| 10> 
| 11>                          ****END OF INPUT****
================================================================================

                       ****************************
                       * Single Point Calculation *
                       ****************************

---------------------------------
CARTESIAN COORDINATES (ANGSTROEM)
---------------------------------
  N      1.617376    1.330383    0.004551
  N     -1.306529    1.580997    0.003644
  N      1.276091   -1.584198   -0.002271
  N     -1.612608   -1.304895   -0.003475
  C      2.875203    3.342362   -0.063685
  C      3.840630    2.159068    0.079915
  C      1.509656    2.684377   -0.016153
  C      2.922172    0.953296    0.027878
  C      0.336508    3.400638   -0.015219
  C      3.388460   -0.339731    0.025539
  C     -0.976132    2.896056   -0.002122
  C      2.630796   -1.524412    0.007627
  C     -2.686758    1.511059    0.009704
  C      0.930668   -2.922223   -0.012658
  C     -2.169427    3.701790    0.002039
  C      3.180636   -2.855093    0.001851
  C     -3.225855    2.843438    0.009928
  C      2.127735   -3.717737   -0.011279
  C     -3.426856    0.343504    0.009772
  C     -0.361658   -3.413010   -0.017853
  C     -2.938073   -0.969119    0.002267
  C     -1.549551   -2.670848   -0.012186
  C     -3.737889   -2.157029   -0.002719
  C     -2.873771   -3.216052   -0.012243
  H      3.004410    3.866805   -1.013495
  H      2.986016    4.085160    0.727134
  H      4.377829    2.179169    1.031116
  H      4.592202    2.120440   -0.709370
  H      0.429527    4.479453   -0.029677
  H      4.463992   -0.464803    0.042863
  H     -2.189602    4.780461   -0.001150
  H      4.233282   -3.091377    0.007587
  H     -4.277438    3.085144    0.014504
  H      2.153498   -4.796427   -0.018419
  H     -4.504247    0.454657    0.013550
  H     -0.468513   -4.490823   -0.024516
  H     -4.816548   -2.181344    0.000207
  H     -3.114006   -4.267872   -0.018337
  Mg    -0.018551   -0.004412    0.000625

----------------------------
CARTESIAN COORDINATES (A.U.)
----------------------------
  NO LB      ZA    FRAG     MASS         X           Y           Z
   0 N     7.0000    0    14.007    3.056398    2.514059    0.008600
   1 N     7.0000    0    14.007   -2.468981    2.987652    0.006887
   2 N     7.0000    0    14.007    2.411463   -2.993700   -0.004293
   3 N     7.0000    0    14.007   -3.047387   -2.465895   -0.006567
   4 C     6.0000    0    12.011    5.433346    6.316149   -0.120347
   5 C     6.0000    0    12.011    7.257738    4.080048    0.151018
   6 C     6.0000    0    12.011    2.852836    5.072737   -0.030524
   7 C     6.0000    0    12.011    5.522104    1.801468    0.052683
   8 C     6.0000    0    12.011    0.635908    6.426274   -0.028760
   9 C     6.0000    0    12.011    6.403262   -0.641999    0.048262
  10 C     6.0000    0    12.011   -1.844622    5.472752   -0.004009
  11 C     6.0000    0    12.011    4.971483   -2.880721    0.014414
  12 C     6.0000    0    12.011   -5.077236    2.855488    0.018338
  13 C     6.0000    0    12.011    1.758707   -5.522200   -0.023920
  14 C     6.0000    0    12.011   -4.099623    6.995369    0.003853
  15 C     6.0000    0    12.011    6.010530   -5.395343    0.003498
  16 C     6.0000    0    12.011   -6.095983    5.373319    0.018761
  17 C     6.0000    0    12.011    4.020836   -7.025504   -0.021315
  18 C     6.0000    0    12.011   -6.475819    0.649128    0.018466
  19 C     6.0000    0    12.011   -0.683435   -6.449655   -0.033738
  20 C     6.0000    0    12.011   -5.552153   -1.831369    0.004284
  21 C     6.0000    0    12.011   -2.928227   -5.047171   -0.023027
  22 C     6.0000    0    12.011   -7.063586   -4.076195   -0.005137
  23 C     6.0000    0    12.011   -5.430639   -6.077458   -0.023136
  24 H     1.0000    0     1.008    5.677511    7.307202   -1.915228
  25 H     1.0000    0     1.008    5.642753    7.719833    1.374085
  26 H     1.0000    0     1.008    8.272899    4.118034    1.948527
  27 H     1.0000    0     1.008    8.678005    4.007051   -1.340516
  28 H     1.0000    0     1.008    0.811688    8.464939   -0.056081
  29 H     1.0000    0     1.008    8.435723   -0.878351    0.081000
  30 H     1.0000    0     1.008   -4.137748    9.033761   -0.002174
  31 H     1.0000    0     1.008    7.999744   -5.841856    0.014337
  32 H     1.0000    0     1.008   -8.083187    5.830076    0.027408
  33 H     1.0000    0     1.008    4.069522   -9.063934   -0.034807
  34 H     1.0000    0     1.008   -8.511794    0.859178    0.025605
  35 H     1.0000    0     1.008   -0.885361   -8.486426   -0.046329
  36 H     1.0000    0     1.008   -9.101956   -4.122142    0.000392
  37 H     1.0000    0     1.008   -5.884618   -8.065109   -0.034653
  38 Mg   12.0000    0    24.305   -0.035057   -0.008338    0.001182

--------------------------------
INTERNAL COORDINATES (ANGSTROEM)
--------------------------------
 N      0   0   0     0.000000000000     0.00000000     0.00000000
 N      1   0   0     2.934625567277     0.00000000     0.00000000
 N      1   2   0     2.934502219461    88.22026361     0.00000000
 N      2   1   3     2.902087324163    91.15525092     0.00000000
 C      1   2   3     2.373783144973   117.10066924   178.00775617
 C      5   1   2     1.533901517256    71.15336793   175.74864028
 C      1   2   3     1.358430124362    80.55312792   178.98494255
 C      1   2   3     1.358392392334   168.73866091   354.91154939
 C      7   1   2     1.374520448020   125.94914713     0.55405638
 C      8   1   7     1.374536203187   125.94130379   181.39600351
 C      2   1   3     1.355940334932    80.79598169   180.38241652
 C      3   1   2     1.356059119169    80.79364978   180.38854817
 C      2   1   3     1.382013227933   172.19563123     2.11228019
 C      3   1   2     1.381931604181   172.19772945     2.18695519
 C     11   2   1     1.439853693466   109.92374504   180.32182958
 C     12   3   1     1.439815791155   109.92104971   180.32893451
 C     15  11   2     1.361202173100   106.87870823     0.00000000
 C     16  12   3     1.361222836597   106.87868208     0.00000000
 C     13   2  11     1.382364012124   125.27049495   179.64780351
 C     14   3  12     1.382391454942   125.27124228   179.65348396
 C      4   2   1     1.367346283750    81.83816516   179.76221527
 C      4   2   1     1.367434918034   171.29992091   358.49070100
 C     21   4   2     1.432083165488   109.73552966   179.80925939
 C     23  21   4     1.366865067502   106.83566180   359.97041685
 H      5   1   2     1.092645014934   119.63454595   281.07952700
 H      5   1   2     1.090606617469   127.60927975    70.55922818
 H      6   5   1     1.092598204440   112.13340192   244.83271966
 H      6   5   1     1.090562030620   113.16139441   123.71896896
 H      9   7   1     1.082914591440   116.47481442   179.76700295
 H     10   8   1     1.082918427081   116.45780824   179.78631778
 H     15  11   2     1.078863876263   125.09848097   180.00420488
 H     16  12   3     1.078854659017   125.09944828   180.00572083
 H     17  15  11     1.079013379288   127.96205293   180.02317060
 H     18  16  12     1.079022169130   127.96119491   180.02286464
 H     19  13   2     1.083116608289   116.47961750   180.08384249
 H     20  14   3     1.083117372845   116.45786284   180.08863448
 H     23  21   4     1.078936570721   125.24249032   179.99600471
 H     24  23  21     1.078923308856   127.92239530   180.01162826
 Mg     3   1   2     2.042506205857    46.01341093     0.00000000

---------------------------
INTERNAL COORDINATES (A.U.)
---------------------------
 N      0   0   0     0.000000000000     0.00000000     0.00000000
 N      1   0   0     5.545638627757     0.00000000     0.00000000
 N      1   2   0     5.545405534166    88.22026361     0.00000000
 N      2   1   3     5.484150259393    91.15525092     0.00000000
 C      1   2   3     4.485800045317   117.10066924   178.00775617
 C      5   1   2     2.898653784021    71.15336793   175.74864028
 C      1   2   3     2.567060907114    80.55312792   178.98494255
 C      1   2   3     2.566989603913   168.73866091   354.91154939
 C      7   1   2     2.597467212233   125.94914713     0.55405638
 C      8   1   7     2.597496985183   125.94130379   181.39600351
 C      2   1   3     2.562355886959    80.79598169   180.38241652
 C      3   1   2     2.562580356635    80.79364978   180.38854817
 C      2   1   3     2.611626514250   172.19563123     2.11228019
 C      3   1   2     2.611472267713   172.19772945     2.18695519
 C     11   2   1     2.720929153566   109.92374504   180.32182958
 C     12   3   1     2.720857528579   109.92104971   180.32893451
 C     15  11   2     2.572299320058   106.87870823     0.00000000
 C     16  12   3     2.572338368408   106.87868208     0.00000000
 C     13   2  11     2.612289400304   125.27049495   179.64780351
 C     14   3  12     2.612341259714   125.27124228   179.65348396
 C      4   2   1     2.583910006522    81.83816516   179.76221527
 C      4   2   1     2.584077501046   171.29992091   358.49070100
 C     21   4   2     2.706244983771   109.73552966   179.80925939
 C     23  21   4     2.583000639603   106.83566180   359.97041685
 H      5   1   2     2.064799839820   119.63454595   281.07952700
 H      5   1   2     2.060947826859   127.60927975    70.55922818
 H      6   5   1     2.064711380806   112.13340192   244.83271966
 H      6   5   1     2.060863569926   113.16139441   123.71896896
 H      9   7   1     2.046412004250   116.47481442   179.76700295
 H     10   8   1     2.046419252561   116.45780824   179.78631778
 H     15  11   2     2.038757261919   125.09848097   180.00420488
 H     16  12   3     2.038739843848   125.09944828   180.00572083
 H     17  15  11     2.039039781691   127.96205293   180.02317060
 H     18  16  12     2.039056392086   127.96119491   180.02286464
 H     19  13   2     2.046793760768   116.47961750   180.08384249
 H     20  14   3     2.046795205569   116.45786284   180.08863448
 H     23  21   4     2.038894634535   125.24249032   179.99600471
 H     24  23  21     2.038869573241   127.92239530   180.01162826
 Mg     3   1   2     3.859777355904    46.01341093     0.00000000

---------------------
BASIS SET INFORMATION
---------------------
There are 4 groups of distinct atoms

 Group   1 Type N   : 11s6p2d1f contracted to 5s3p2d1f pattern {62111/411/11/1}
 Group   2 Type C   : 11s6p2d1f contracted to 5s3p2d1f pattern {62111/411/11/1}
 Group   3 Type H   : 5s1p contracted to 3s1p pattern {311/1}
 Group   4 Type Mg  : 14s8p3d contracted to 5s4p3d pattern {73211/5111/111}

Atom   0N    basis set group =>   1
Atom   1N    basis set group =>   1
Atom   2N    basis set group =>   1
Atom   3N    basis set group =>   1
Atom   4C    basis set group =>   2
Atom   5C    basis set group =>   2
Atom   6C    basis set group =>   2
Atom   7C    basis set group =>   2
Atom   8C    basis set group =>   2
Atom   9C    basis set group =>   2
Atom  10C    basis set group =>   2
Atom  11C    basis set group =>   2
Atom  12C    basis set group =>   2
Atom  13C    basis set group =>   2
Atom  14C    basis set group =>   2
Atom  15C    basis set group =>   2
Atom  16C    basis set group =>   2
Atom  17C    basis set group =>   2
Atom  18C    basis set group =>   2
Atom  19C    basis set group =>   2
Atom  20C    basis set group =>   2
Atom  21C    basis set group =>   2
Atom  22C    basis set group =>   2
Atom  23C    basis set group =>   2
Atom  24H    basis set group =>   3
Atom  25H    basis set group =>   3
Atom  26H    basis set group =>   3
Atom  27H    basis set group =>   3
Atom  28H    basis set group =>   3
Atom  29H    basis set group =>   3
Atom  30H    basis set group =>   3
Atom  31H    basis set group =>   3
Atom  32H    basis set group =>   3
Atom  33H    basis set group =>   3
Atom  34H    basis set group =>   3
Atom  35H    basis set group =>   3
Atom  36H    basis set group =>   3
Atom  37H    basis set group =>   3
Atom  38Mg   basis set group =>   4
---------------------------------
AUXILIARY/J BASIS SET INFORMATION
---------------------------------
There are 4 groups of distinct atoms

 Group   1 Type N   : 12s5p4d2f1g contracted to 6s4p3d1f1g pattern {711111/2111/211/2/1}
 Group   2 Type C   : 12s5p4d2f1g contracted to 6s4p3d1f1g pattern {711111/2111/211/2/1}
 Group   3 Type H   : 5s2p1d contracted to 3s1p1d pattern {311/2/1}
 Group   4 Type Mg  : 14s5p5d2f1g contracted to 8s4p4d1f1g pattern {71111111/2111/2111/2/1}

Atom   0N    basis set group =>   1
Atom   1N    basis set group =>   1
Atom   2N    basis set group =>   1
Atom   3N    basis set group =>   1
Atom   4C    basis set group =>   2
Atom   5C    basis set group =>   2
Atom   6C    basis set group =>   2
Atom   7C    basis set group =>   2
Atom   8C    basis set group =>   2
Atom   9C    basis set group =>   2
Atom  10C    basis set group =>   2
Atom  11C    basis set group =>   2
Atom  12C    basis set group =>   2
Atom  13C    basis set group =>   2
Atom  14C    basis set group =>   2
Atom  15C    basis set group =>   2
Atom  16C    basis set group =>   2
Atom  17C    basis set group =>   2
Atom  18C    basis set group =>   2
Atom  19C    basis set group =>   2
Atom  20C    basis set group =>   2
Atom  21C    basis set group =>   2
Atom  22C    basis set group =>   2
Atom  23C    basis set group =>   2
Atom  24H    basis set group =>   3
Atom  25H    basis set group =>   3
Atom  26H    basis set group =>   3
Atom  27H    basis set group =>   3
Atom  28H    basis set group =>   3
Atom  29H    basis set group =>   3
Atom  30H    basis set group =>   3
Atom  31H    basis set group =>   3
Atom  32H    basis set group =>   3
Atom  33H    basis set group =>   3
Atom  34H    basis set group =>   3
Atom  35H    basis set group =>   3
Atom  36H    basis set group =>   3
Atom  37H    basis set group =>   3
Atom  38Mg   basis set group =>   4


           ************************************************************
           *        Program running with 4 parallel MPI-processes     *
           *              working on a common directory               *
           ************************************************************
------------------------------------------------------------------------------
                             ORCA STARTUP CALCULATIONS
                           -- RI-GTO INTEGRALS CHOSEN --
------------------------------------------------------------------------------
------------------------------------------------------------------------------
                   ___                                                        
                  /   \      - P O W E R E D   B Y -                         
                 /     \                                                     
                 |  |  |   _    _      __       _____    __    __             
                 |  |  |  | |  | |    /  \     |  _  \  |  |  /  |          
                  \  \/   | |  | |   /    \    | | | |  |  | /  /          
                 / \  \   | |__| |  /  /\  \   | |_| |  |  |/  /          
                |  |  |   |  __  | /  /__\  \  |    /   |      \           
                |  |  |   | |  | | |   __   |  |    \   |  |\   \          
                \     /   | |  | | |  |  |  |  | |\  \  |  | \   \       
                 \___/    |_|  |_| |__|  |__|  |_| \__\ |__|  \__/        
                                                                              
                      - O R C A' S   B I G   F R I E N D -                    
                                      &                                       
                       - I N T E G R A L  F E E D E R -                       
                                                                              
 v1 FN, 2020, v2 2021, v3 2022-2024                                           
------------------------------------------------------------------------------


----------------------
SHARK INTEGRAL PACKAGE
----------------------

Number of atoms                             ...     39
Number of basis functions                   ...    860
Number of shells                            ...    332
Maximum angular momentum                    ...      3
Integral batch strategy                     ... SHARK/LIBINT Hybrid
RI-J (if used) integral strategy            ... SPLIT-RIJ (Revised 2003 algorithm where possible)
Printlevel                                  ...      1
Contraction scheme used                     ... SEGMENTED contraction
Prescreening option                         ... SCHWARTZ
   Thresh                                   ... 2.500e-11
   Tcut                                     ... 2.500e-12
   Tpresel                                  ... 2.500e-12 
Coulomb Range Separation                    ... NOT USED
Exchange Range Separation                   ... NOT USED
Multipole approximations                    ... NOT USED
Finite Nucleus Model                        ... NOT USED
CABS basis                                  ... NOT available
Auxiliary Coulomb fitting basis             ... AVAILABLE
   # of basis functions in Aux-J            ...   1386
   # of shells in Aux-J                     ...    448
   Maximum angular momentum in Aux-J        ...      4
Auxiliary J/K fitting basis                 ... NOT available
Auxiliary Correlation fitting basis         ... NOT available
Auxiliary 'external' fitting basis          ... NOT available

Checking pre-screening integrals            ... done (  0.0 sec) Dimension = 332
   => SHARK Basis and OBASIS are compatible. Storing Pre-screening
Shell pair information
Shell pair cut-off parameter TPreSel        ...   2.5e-12
Total number of shell pairs                 ...     55278
Shell pairs after pre-screening             ...     38985
Total number of primitive shell pairs       ...    174360
Primitive shell pairs kept                  ...     80636
          la=0 lb=0:   9326 shell pairs
          la=1 lb=0:  11131 shell pairs
          la=1 lb=1:   3288 shell pairs
          la=2 lb=0:   5767 shell pairs
          la=2 lb=1:   3529 shell pairs
          la=2 lb=2:    978 shell pairs
          la=3 lb=0:   2472 shell pairs
          la=3 lb=1:   1540 shell pairs
          la=3 lb=2:    784 shell pairs
          la=3 lb=3:    170 shell pairs

Checking whether 4 symmetric matrices of dimension 860 fit in memory
:Max Core in MB      =   3000.00
 MB in use           =     50.97
 MB left             =   2949.03
 MB needed           =     11.30
 Data fit in memory  = YES
Calculating RI/J V-Matrix + Cholesky decomp.... done (  0.2 sec)
Calculating Nuclear repulsion               ... done (  0.0 sec) ENN=   2155.857692955848 Eh

Diagonalization of the overlap matrix:
Smallest eigenvalue                        ... 1.000e-05
Time for diagonalization                   ...    0.201 sec
Threshold for overlap eigenvalues          ... 1.000e-07
Number of eigenvalues below threshold      ... 0
Time for construction of square roots      ...    0.110 sec
Total time needed                          ...    0.318 sec

-------------------
DFT GRID GENERATION
-------------------

General Integration Accuracy     IntAcc      ... 4.959
Radial Grid Type                 RadialGrid  ... OptM3 with GC (2021)
Angular Grid (max. ang.)         AngularGrid ... 6 (Lebedev-590)
Angular grid pruning method      GridPruning ... 4 (adaptive)
Weight generation scheme         WeightScheme... mBecke (2022)
Basis function cutoff            BFCut       ... 1.0000e-11
Integration weight cutoff        WCut        ... 1.0000e-14
Partially contracted basis set               ... off
Rotationally invariant grid construction     ... off
Angular grids for H and He will be reduced by one unit

Total number of grid points                  ...   473102
Total number of batches                      ...     7410
Average number of points per batch           ...       63
Average number of grid points per atom       ...    12131
Grids setup in   8.8 sec
Initializing property integral containers    ... done (  0.0 sec)

SHARK setup successfully completed in  10.1 seconds

Maximum memory used throughout the entire STARTUP-calculation: 154.4 MB


           ************************************************************
           *        Program running with 4 parallel MPI-processes     *
           *              working on a common directory               *
           ************************************************************
-------------------------------------------------------------------------------
                                 ORCA GUESS
                   Start orbitals & Density for SCF / CASSCF
-------------------------------------------------------------------------------

------------
SCF SETTINGS
------------
Hamiltonian:
 Density Functional     Method          .... DFT(GTOs)
 Exchange Functional    Exchange        .... TPSS
 Correlation Functional Correlation     .... TPSS
 LDA part of GGA corr.  LDAOpt          .... PW91-LDA
 Gradients option       PostSCFGGA      .... off
   NL short-range parameter             ....  5.000000
 RI-approximation to the Coulomb term is turned on
   Number of AuxJ basis functions       .... 1386


General Settings:
 Integral files         IntName         .... tddft
 Hartree-Fock type      HFTyp           .... RHF
 Total Charge           Charge          ....    0
 Multiplicity           Mult            ....    1
 Number of Electrons    NEL             ....  174
 Basis Dimension        Dim             ....  860
 Nuclear Repulsion      ENuc            ....   2155.8576929558 Eh

Convergence Acceleration:
 AO-DIIS                CNVDIIS         .... on
   Start iteration      DIISMaxIt       ....    12
   Startup error        DIISStart       ....  0.200000
   # of expansion vecs  DIISMaxEq       ....     5
   Bias factor          DIISBfac        ....   1.050
   Max. coefficient     DIISMaxC        ....  10.000
 MO-DIIS                CNVKDIIS        .... off
 Trust-Rad. Augm. Hess. CNVTRAH         .... auto
   Auto Start mean grad. ratio tolernc. ....  1.125000
   Auto Start start iteration           ....    50
   Auto Start num. interpolation iter.  ....    10
   Max. Number of Micro iterations      ....    24
   Max. Number of Macro iterations      .... Maxiter - #DIIS iter
   Number of Davidson start vectors     ....     2
   Converg. threshold    (grad. norm)   ....   1.000e-05
   Grad. Scal. Fac. for Micro threshold ....   0.100
   Minimum threshold for Micro iter.    ....   1.000e-02
   NR start threshold (gradient norm)   ....   1.000e-04
   Initial trust radius                 ....   0.400
   Minimum AH scaling param. (alpha)    ....   1.000
   Maximum AH scaling param. (alpha)    .... 1000.000
   Quad. conv. algorithm                .... NR
   White noise on init. David. guess    .... on
   Maximum white noise                  ....   0.010
   Pseudo random numbers                .... off
   Inactive MOs                         .... canonical
   Orbital update algorithm             .... Taylor
   Preconditioner                       .... Diag
   Full preconditioner red. dimension   ....   250
 SOSCF                 CNVSOSCF           .... on
   Start iteration     SOSCFMaxIt         ....   150
   Startup grad/error  SOSCFStart         ....  0.003300
   Hessian update      SOSCFHessUp        .... L-BFGS
   Autom. constraints  SOSCFAutoConstrain .... off
 Level Shifting         CNVShift        .... on
   Level shift para.    LevelShift      ....    0.2500
   Turn off err/grad.   ShiftErr        ....    0.0010
 Zerner damping         CNVZerner       .... off
 Static damping         CNVDamp         .... on
   Fraction old density DampFac         ....    0.7000
   Max. Damping (<1)    DampMax         ....    0.9800
   Min. Damping (>=0)   DampMin         ....    0.0000
   Turn off err/grad.   DampErr         ....    0.1000

SCF Procedure:
 Maximum # iterations   MaxIter         ....   125
 SCF integral mode      SCFMode         .... Direct
   Integral package                     .... SHARK and LIBINT hybrid scheme
 Reset frequency        DirectResetFreq ....    20
 Integral Threshold     Thresh          ....  2.500e-11 Eh
 Primitive CutOff       TCut            ....  2.500e-12 Eh

Convergence Tolerance:
 Convergence Check Mode ConvCheckMode   .... Total+1el-Energy
 Convergence forced     ConvForced      .... 1
 Energy Change          TolE            ....  1.000e-08 Eh
 1-El. energy change                    ....  1.000e-05 Eh
 Orbital Gradient       TolG            ....  1.000e-05
 Orbital Rotation angle TolX            ....  1.000e-05
 DIIS Error             TolErr          ....  5.000e-07

------------------------------
INITIAL GUESS: MODEL POTENTIAL
------------------------------
Loading Hartree-Fock densities                     ... done
Calculating cut-offs                               ... done
Initializing the effective Hamiltonian             ... done
Setting up the integral package (SHARK)            ... done
Starting the Coulomb interaction                   ... done (   1.8 sec)
Making the grid                                    ... done (   0.6 sec)
Mapping shells                                     ... done
Starting the XC term evaluation                    ... done (   0.9 sec)
  promolecular density results
     # of electrons  =    173.997675708
     EX              =   -148.716356810
     EC              =     -5.920044363
     EX+EC           =   -154.636401173
Transforming the Hamiltonian                       ... done (   0.1 sec)
Diagonalizing the Hamiltonian                      ... done (   0.2 sec)
Back transforming the eigenvectors                 ... done (   0.1 sec)
Now organizing SCF variables                       ... done
                      ------------------
                      INITIAL GUESS DONE (   3.7 sec)
                      ------------------
             **** ENERGY FILE WAS UPDATED (tddft.en.tmp) ****
Finished Guess after   4.1 sec
Maximum memory used throughout the entire GUESS-calculation: 86.1 MB


           ************************************************************
           *        Program running with 4 parallel MPI-processes     *
           *              working on a common directory               *
           ************************************************************

-------------------------------------------------------------------------------------------
                                      ORCA LEAN-SCF
                              memory conserving SCF solver
-------------------------------------------------------------------------------------------

--------------------
CPCM SOLVATION MODEL
--------------------
CPCM parameters:
  Epsilon                                         ...       8.9990
  Refrac                                          ...       1.4242
  Rsolv                                           ...       1.3000
  Surface type                                    ... GAUSSIAN VDW
  Discretization scheme                           ... Constant charge density
    Threshold for H atoms                         ...       5.0000 (charges/Ang^2)
    Threshold for non-H atoms                     ...       5.0000 (charges/Ang^2)
  Epsilon function type                           ...         CPCM
Solvent:                                          ... DICHLOROMETHANE
Radii:
  Scheme                                          ... Element-dependent radii
  Radius for N  used is    3.5149 Bohr (=   1.8600 Ang.)
  Radius for C  used is    3.8550 Bohr (=   2.0400 Ang.)
  Radius for H  used is    2.4944 Bohr (=   1.3200 Ang.)
  Radius for Mg used is    3.9231 Bohr (=   2.0760 Ang.)
Calculating surface                               ...        done! (  0.0s)
Cavity surface points                             ...         3503
Cavity Volume                                     ...    2512.0151
Cavity Surface-area                               ...    1198.2147
Calculating surface distance matrix               ...        done! (  0.3s)
Performing Cholesky decomposition & store         ...        done! (  0.6s)
Overall time for CPCM initialization              ...                 0.9s

----------------------------------------D-I-I-S--------------------------------------------
Iteration    Energy (Eh)           Delta-E    RMSDP     MaxDP     DIISErr   Damp  Time(sec)
-------------------------------------------------------------------------------------------
               ***  Starting incremental Fock matrix formation  ***
    1    -1189.8677689687629027     0.00e+00  1.89e-03  4.40e-02  2.17e-01  0.700  20.7
Warning: op=0 Small HOMO/LUMO gap (   0.070) - skipping pre-diagonalization
         Will do a full diagonalization
    2    -1190.1032213523808423    -2.35e-01  1.64e-03  2.71e-02  9.12e-02  0.700  20.3
                               ***Turning on AO-DIIS***
    3    -1190.1955514292644693    -9.23e-02  9.30e-04  1.89e-02  3.02e-02  0.700  20.9
    4    -1190.2490815371193094    -5.35e-02  1.84e-03  4.27e-02  1.41e-02  0.000  19.9
    5    -1190.3663854485171214    -1.17e-01  3.61e-04  1.46e-02  5.63e-03  0.000  20.7
                              *** Initializing SOSCF ***
---------------------------------------S-O-S-C-F--------------------------------------
Iteration    Energy (Eh)           Delta-E    RMSDP     MaxDP     MaxGrad    Time(sec)
--------------------------------------------------------------------------------------
    6    -1190.3673175912672377    -9.32e-04  1.98e-04  7.17e-03  1.27e-03    19.0
               *** Restarting incremental Fock matrix formation ***
    7    -1190.3673837598421414    -6.62e-05  1.41e-04  5.65e-03  4.87e-04    25.4
    8    -1190.3673893880927608    -5.63e-06  5.80e-05  1.88e-03  4.33e-04    17.0
    9    -1190.3674015232741112    -1.21e-05  4.90e-05  1.84e-03  1.94e-04    16.7
   10    -1190.3674028810355594    -1.36e-06  1.02e-05  3.20e-04  1.06e-04    16.2
   11    -1190.3674035068074772    -6.26e-07  1.55e-05  6.33e-04  7.76e-05    16.0
   12    -1190.3674037369191865    -2.30e-07  5.41e-06  1.98e-04  2.58e-05    15.4
   13    -1190.3674037581918128    -2.13e-08  7.29e-06  3.20e-04  2.55e-05    14.7
   14    -1190.3674038031049349    -4.49e-08  4.70e-06  1.80e-04  1.19e-05    14.7
   15    -1190.3674038280332752    -2.49e-08  7.66e-06  3.38e-04  6.27e-06    14.6
   16    -1190.3674038043586734     2.37e-08  6.40e-06  2.21e-04  1.98e-06    13.6
                  *** Gradient check signals convergence ***

               *****************************************************
               *                     SUCCESS                       *
               *           SCF CONVERGED AFTER  16 CYCLES          *
               *****************************************************

             **** ENERGY FILE WAS UPDATED (tddft.en.tmp) ****

----------------
TOTAL SCF ENERGY
----------------

Total Energy       :      -1190.36740380843639 Eh          -32391.54381 eV

Components:
Nuclear Repulsion  :       2155.85769295584805 Eh           58663.87024 eV
Electronic Energy  :      -3346.21108207307088 Eh          -91055.03269 eV
One Electron Energy:      -5909.53223303904178 Eh         -160806.54731 eV
Two Electron Energy:       2563.32115096597090 Eh           69751.51462 eV
CPCM Dielectric    :         -0.01401469121371 Eh              -0.38136 eV

Virial components:
Potential Energy   :      -2376.00805753641816 Eh          -64654.46622 eV
Kinetic Energy     :       1185.64065372798154 Eh           32262.92240 eV
Virial Ratio       :          2.00398666329937

DFT components:
N(Alpha)           :       86.999987156545 electrons
N(Beta)            :       86.999987156545 electrons
N(Total)           :      173.999974313090 electrons
E(X)               :     -152.781006870885 Eh       
E(C)               :       -5.938305224007 Eh       
E(XC)              :     -158.719312094893 Eh       

CPCM Solvation Model Properties:
Surface-charge          :         -0.03706879146941
Corrected charge        :         -0.00000000000000
Outlying charge corr.   :          0.00006526494752 Eh               0.00178 eV
Free-energy (cav+disp)  :  This term is not implemented in the current solvation scheme

---------------
SCF CONVERGENCE
---------------

  Last Energy change         ...   -2.3675e-08  Tolerance :   1.0000e-08
  Last MAX-Density change    ...    2.2082e-04  Tolerance :   1.0000e-07
  Last RMS-Density change    ...    6.4034e-06  Tolerance :   5.0000e-09
  Last DIIS Error            ...    1.2693e-03  Tolerance :   5.0000e-07
  Last Orbital Gradient      ...    1.9824e-06  Tolerance :   1.0000e-05
  Last Orbital Rotation      ...    5.9551e-06  Tolerance :   1.0000e-05


----------------
ORBITAL ENERGIES
----------------

  NO   OCC          E(Eh)            E(eV) 
   0   2.0000     -46.384265     -1262.1800 
   1   2.0000     -14.107245      -383.8776 
   2   2.0000     -14.084695      -383.2640 
   3   2.0000     -14.084611      -383.2617 
   4   2.0000     -14.084607      -383.2616 
   5   2.0000     -10.024313      -272.7754 
   6   2.0000     -10.024299      -272.7751 
   7   2.0000     -10.016107      -272.5521 
   8   2.0000     -10.016097      -272.5519 
   9   2.0000     -10.011440      -272.4251 
  10   2.0000     -10.011431      -272.4249 
  11   2.0000     -10.010822      -272.4083 
  12   2.0000     -10.010807      -272.4079 
  13   2.0000      -9.991619      -271.8858 
  14   2.0000      -9.991612      -271.8856 
  15   2.0000      -9.989373      -271.8246 
  16   2.0000      -9.989261      -271.8216 
  17   2.0000      -9.982429      -271.6357 
  18   2.0000      -9.982427      -271.6356 
  19   2.0000      -9.980600      -271.5859 
  20   2.0000      -9.980594      -271.5858 
  21   2.0000      -9.979918      -271.5674 
  22   2.0000      -9.979913      -271.5672 
  23   2.0000      -9.979394      -271.5531 
  24   2.0000      -9.978896      -271.5396 
  25   2.0000      -2.917344       -79.3850 
  26   2.0000      -1.682527       -45.7839 
  27   2.0000      -1.675853       -45.6023 
  28   2.0000      -1.675311       -45.5875 
  29   2.0000      -0.895201       -24.3597 
  30   2.0000      -0.887156       -24.1407 
  31   2.0000      -0.885241       -24.0886 
  32   2.0000      -0.876962       -23.8633 
  33   2.0000      -0.753399       -20.5010 
  34   2.0000      -0.729387       -19.8476 
  35   2.0000      -0.726173       -19.7602 
  36   2.0000      -0.713793       -19.4233 
  37   2.0000      -0.705933       -19.2094 
  38   2.0000      -0.703698       -19.1486 
  39   2.0000      -0.699538       -19.0354 
  40   2.0000      -0.679015       -18.4769 
  41   2.0000      -0.659266       -17.9395 
  42   2.0000      -0.603587       -16.4244 
  43   2.0000      -0.598332       -16.2814 
  44   2.0000      -0.559134       -15.2148 
  45   2.0000      -0.530498       -14.4356 
  46   2.0000      -0.521360       -14.1869 
  47   2.0000      -0.519264       -14.1299 
  48   2.0000      -0.518329       -14.1045 
  49   2.0000      -0.502138       -13.6639 
  50   2.0000      -0.486063       -13.2265 
  51   2.0000      -0.472889       -12.8680 
  52   2.0000      -0.467231       -12.7140 
  53   2.0000      -0.455011       -12.3815 
  54   2.0000      -0.451843       -12.2953 
  55   2.0000      -0.443579       -12.0704 
  56   2.0000      -0.432514       -11.7693 
  57   2.0000      -0.398584       -10.8460 
  58   2.0000      -0.391669       -10.6578 
  59   2.0000      -0.383418       -10.4333 
  60   2.0000      -0.376212       -10.2373 
  61   2.0000      -0.374613       -10.1937 
  62   2.0000      -0.373139       -10.1536 
  63   2.0000      -0.364019        -9.9055 
  64   2.0000      -0.362656        -9.8684 
  65   2.0000      -0.361736        -9.8433 
  66   2.0000      -0.346197        -9.4205 
  67   2.0000      -0.343379        -9.3438 
  68   2.0000      -0.339902        -9.2492 
  69   2.0000      -0.331569        -9.0224 
  70   2.0000      -0.330155        -8.9840 
  71   2.0000      -0.328072        -8.9273 
  72   2.0000      -0.325308        -8.8521 
  73   2.0000      -0.318673        -8.6715 
  74   2.0000      -0.317994        -8.6531 
  75   2.0000      -0.314879        -8.5683 
  76   2.0000      -0.285845        -7.7782 
  77   2.0000      -0.272489        -7.4148 
  78   2.0000      -0.271390        -7.3849 
  79   2.0000      -0.251680        -6.8486 
  80   2.0000      -0.245529        -6.6812 
  81   2.0000      -0.242505        -6.5989 
  82   2.0000      -0.227850        -6.2001 
  83   2.0000      -0.218991        -5.9590 
  84   2.0000      -0.217049        -5.9062 
  85   2.0000      -0.178866        -4.8672 
  86   2.0000      -0.171052        -4.6546 
  87   0.0000      -0.104182        -2.8349 
  88   0.0000      -0.085267        -2.3202 
  89   0.0000      -0.025951        -0.7062 
  90   0.0000      -0.002141        -0.0583 
  91   0.0000       0.000970         0.0264 
  92   0.0000       0.021300         0.5796 
  93   0.0000       0.026225         0.7136 
  94   0.0000       0.036635         0.9969 
  95   0.0000       0.037285         1.0146 
  96   0.0000       0.051346         1.3972 
  97   0.0000       0.055584         1.5125 
*Only the first 10 virtual orbitals were printed.

                    ********************************
                    * MULLIKEN POPULATION ANALYSIS *
                    ********************************

-----------------------
MULLIKEN ATOMIC CHARGES
-----------------------
   0 N :   -0.344681
   1 N :   -0.382899
   2 N :   -0.382831
   3 N :   -0.377939
   4 C :   -0.111853
   5 C :   -0.111459
   6 C :    0.222649
   7 C :    0.222912
   8 C :   -0.506053
   9 C :   -0.506291
  10 C :    0.377038
  11 C :    0.376926
  12 C :    0.367480
  13 C :    0.367523
  14 C :   -0.229994
  15 C :   -0.229934
  16 C :   -0.232677
  17 C :   -0.232703
  18 C :   -0.499260
  19 C :   -0.499258
  20 C :    0.369967
  21 C :    0.369956
  22 C :   -0.234338
  23 C :   -0.234330
  24 H :    0.106289
  25 H :    0.117197
  26 H :    0.106254
  27 H :    0.117189
  28 H :    0.123690
  29 H :    0.123642
  30 H :    0.125349
  31 H :    0.125355
  32 H :    0.126570
  33 H :    0.126559
  34 H :    0.128465
  35 H :    0.128449
  36 H :    0.125197
  37 H :    0.125223
  38 Mg:    0.736619
Sum of atomic charges:    0.0000000

--------------------------------
MULLIKEN REDUCED ORBITAL CHARGES
--------------------------------
  0 N s       :     3.678970  s :     3.678970
      pz      :     1.274137  p :     3.603092
      px      :     1.191215
      py      :     1.137740
      dz2     :     0.003950  d :     0.058933
      dxz     :     0.009099
      dyz     :     0.011028
      dx2y2   :     0.017472
      dxy     :     0.017385
      f0      :     0.000650  f :     0.003686
      f+1     :     0.000295
      f-1     :     0.000323
      f+2     :     0.000539
      f-2     :     0.000117
      f+3     :     0.000990
      f-3     :     0.000773

  1 N s       :     3.670800  s :     3.670800
      pz      :     1.360390  p :     3.651074
      px      :     1.125481
      py      :     1.165202
      dz2     :     0.004140  d :     0.057307
      dxz     :     0.010270
      dyz     :     0.009116
      dx2y2   :     0.017138
      dxy     :     0.016644
      f0      :     0.000661  f :     0.003719
      f+1     :     0.000372
      f-1     :     0.000335
      f+2     :     0.000607
      f-2     :     0.000097
      f+3     :     0.000757
      f-3     :     0.000890

  2 N s       :     3.670804  s :     3.670804
      pz      :     1.360388  p :     3.651005
      px      :     1.119420
      py      :     1.171196
      dz2     :     0.004142  d :     0.057304
      dxz     :     0.010779
      dyz     :     0.008605
      dx2y2   :     0.016823
      dxy     :     0.016955
      f0      :     0.000661  f :     0.003719
      f+1     :     0.000357
      f-1     :     0.000350
      f+2     :     0.000601
      f-2     :     0.000102
      f+3     :     0.000710
      f-3     :     0.000937

  3 N s       :     3.671618  s :     3.671618
      pz      :     1.344633  p :     3.644218
      px      :     1.172684
      py      :     1.126900
      dz2     :     0.004168  d :     0.058363
      dxz     :     0.009200
      dyz     :     0.010960
      dx2y2   :     0.017209
      dxy     :     0.016826
      f0      :     0.000655  f :     0.003739
      f+1     :     0.000339
      f-1     :     0.000359
      f+2     :     0.000635
      f-2     :     0.000099
      f+3     :     0.000916
      f-3     :     0.000736

  4 C s       :     3.063574  s :     3.063574
      pz      :     1.039217  p :     2.952599
      px      :     0.898764
      py      :     1.014619
      dz2     :     0.005941  d :     0.088836
      dxz     :     0.017516
      dyz     :     0.021763
      dx2y2   :     0.025662
      dxy     :     0.017954
      f0      :     0.000715  f :     0.006843
      f+1     :     0.000351
      f-1     :     0.001328
      f+2     :     0.000696
      f-2     :     0.000899
      f+3     :     0.001420
      f-3     :     0.001434

  5 C s       :     3.063359  s :     3.063359
      pz      :     1.039147  p :     2.952456
      px      :     1.011014
      py      :     0.902294
      dz2     :     0.005969  d :     0.088802
      dxz     :     0.021320
      dyz     :     0.017903
      dx2y2   :     0.025710
      dxy     :     0.017900
      f0      :     0.000719  f :     0.006842
      f+1     :     0.001351
      f-1     :     0.000323
      f+2     :     0.000679
      f-2     :     0.000916
      f+3     :     0.001179
      f-3     :     0.001674

  6 C s       :     3.132217  s :     3.132217
      pz      :     0.893910  p :     2.465172
      px      :     0.858555
      py      :     0.712707
      dz2     :     0.003773  d :     0.165644
      dxz     :     0.027967
      dyz     :     0.035682
      dx2y2   :     0.044173
      dxy     :     0.054050
      f0      :     0.001883  f :     0.014317
      f+1     :     0.000704
      f-1     :     0.001060
      f+2     :     0.001726
      f-2     :     0.001194
      f+3     :     0.005338
      f-3     :     0.002413

  7 C s       :     3.132201  s :     3.132201
      pz      :     0.893896  p :     2.464945
      px      :     0.737354
      py      :     0.833695
      dz2     :     0.003794  d :     0.165625
      dxz     :     0.031867
      dyz     :     0.031758
      dx2y2   :     0.045815
      dxy     :     0.052392
      f0      :     0.001883  f :     0.014317
      f+1     :     0.001061
      f-1     :     0.000704
      f+2     :     0.001484
      f-2     :     0.001436
      f+3     :     0.003642
      f-3     :     0.004108

  8 C s       :     3.449048  s :     3.449048
      pz      :     1.072472  p :     2.970570
      px      :     0.928354
      py      :     0.969744
      dz2     :     0.002200  d :     0.078631
      dxz     :     0.024606
      dyz     :     0.003802
      dx2y2   :     0.038008
      dxy     :     0.010015
      f0      :     0.001389  f :     0.007803
      f+1     :     0.000627
      f-1     :     0.000796
      f+2     :     0.000513
      f-2     :     0.000861
      f+3     :     0.002264
      f-3     :     0.001352

  9 C s       :     3.449462  s :     3.449462
      pz      :     1.072414  p :     2.970383
      px      :     0.964207
      py      :     0.933762
      dz2     :     0.002206  d :     0.078644
      dxz     :     0.003833
      dyz     :     0.024577
      dx2y2   :     0.038162
      dxy     :     0.009865
      f0      :     0.001389  f :     0.007803
      f+1     :     0.000801
      f-1     :     0.000622
      f+2     :     0.000538
      f-2     :     0.000837
      f+3     :     0.001457
      f-3     :     0.002160

 10 C s       :     3.077274  s :     3.077274
      pz      :     0.905145  p :     2.360374
      px      :     0.749383
      py      :     0.705846
      dz2     :     0.004362  d :     0.170461
      dxz     :     0.033444
      dyz     :     0.035598
      dx2y2   :     0.044226
      dxy     :     0.052831
      f0      :     0.002053  f :     0.014853
      f+1     :     0.000812
      f-1     :     0.001063
      f+2     :     0.001958
      f-2     :     0.001182
      f+3     :     0.004423
      f-3     :     0.003361

 11 C s       :     3.077322  s :     3.077322
      pz      :     0.905174  p :     2.360472
      px      :     0.700270
      py      :     0.755028
      dz2     :     0.004361  d :     0.170429
      dxz     :     0.037675
      dyz     :     0.031351
      dx2y2   :     0.041395
      dxy     :     0.055647
      f0      :     0.002052  f :     0.014851
      f+1     :     0.001104
      f-1     :     0.000771
      f+2     :     0.002421
      f-2     :     0.000719
      f+3     :     0.002390
      f-3     :     0.005392

 12 C s       :     3.061500  s :     3.061500
      pz      :     0.943954  p :     2.389784
      px      :     0.693815
      py      :     0.752015
      dz2     :     0.005090  d :     0.166625
      dxz     :     0.036133
      dyz     :     0.029477
      dx2y2   :     0.041709
      dxy     :     0.054217
      f0      :     0.002068  f :     0.014610
      f+1     :     0.001100
      f-1     :     0.000757
      f+2     :     0.002342
      f-2     :     0.000655
      f+3     :     0.002368
      f-3     :     0.005320

 13 C s       :     3.061589  s :     3.061589
      pz      :     0.943925  p :     2.389649
      px      :     0.741521
      py      :     0.704203
      dz2     :     0.005097  d :     0.166627
      dxz     :     0.031189
      dyz     :     0.034423
      dx2y2   :     0.043986
      dxy     :     0.051931
      f0      :     0.002068  f :     0.014612
      f+1     :     0.000791
      f-1     :     0.001067
      f+2     :     0.001850
      f-2     :     0.001148
      f+3     :     0.004394
      f-3     :     0.003294

 14 C s       :     3.310342  s :     3.310342
      pz      :     1.014601  p :     2.823256
      px      :     0.921263
      py      :     0.887392
      dz2     :     0.005046  d :     0.088334
      dxz     :     0.020417
      dyz     :     0.007728
      dx2y2   :     0.037186
      dxy     :     0.017957
      f0      :     0.001387  f :     0.008062
      f+1     :     0.000452
      f-1     :     0.000942
      f+2     :     0.000104
      f-2     :     0.001342
      f+3     :     0.002344
      f-3     :     0.001491

 15 C s       :     3.310483  s :     3.310483
      pz      :     1.014505  p :     2.823054
      px      :     0.893923
      py      :     0.914626
      dz2     :     0.005046  d :     0.088333
      dxz     :     0.009027
      dyz     :     0.019121
      dx2y2   :     0.035406
      dxy     :     0.019733
      f0      :     0.001387  f :     0.008063
      f+1     :     0.000893
      f-1     :     0.000502
      f+2     :     0.000423
      f-2     :     0.001024
      f+3     :     0.002045
      f-3     :     0.001789

 16 C s       :     3.320070  s :     3.320070
      pz      :     0.994075  p :     2.815273
      px      :     0.901986
      py      :     0.919212
      dz2     :     0.004891  d :     0.089249
      dxz     :     0.009237
      dyz     :     0.021063
      dx2y2   :     0.034327
      dxy     :     0.019732
      f0      :     0.001368  f :     0.008085
      f+1     :     0.000879
      f-1     :     0.000495
      f+2     :     0.000490
      f-2     :     0.001018
      f+3     :     0.002063
      f-3     :     0.001772

 17 C s       :     3.319897  s :     3.319897
      pz      :     0.994186  p :     2.815470
      px      :     0.924878
      py      :     0.896406
      dz2     :     0.004895  d :     0.089251
      dxz     :     0.022656
      dyz     :     0.007643
      dx2y2   :     0.036200
      dxy     :     0.017857
      f0      :     0.001367  f :     0.008085
      f+1     :     0.000446
      f-1     :     0.000928
      f+2     :     0.000125
      f-2     :     0.001384
      f+3     :     0.002340
      f-3     :     0.001496

 18 C s       :     3.488993  s :     3.488993
      pz      :     0.997573  p :     2.915950
      px      :     0.975509
      py      :     0.942868
      dz2     :     0.002440  d :     0.086663
      dxz     :     0.003613
      dyz     :     0.029676
      dx2y2   :     0.040172
      dxy     :     0.010761
      f0      :     0.001292  f :     0.007653
      f+1     :     0.000753
      f-1     :     0.000583
      f+2     :     0.000512
      f-2     :     0.000866
      f+3     :     0.001411
      f-3     :     0.002236

 19 C s       :     3.489058  s :     3.489058
      pz      :     0.997572  p :     2.915888
      px      :     0.942974
      py      :     0.975341
      dz2     :     0.002440  d :     0.086658
      dxz     :     0.029660
      dyz     :     0.003632
      dx2y2   :     0.039839
      dxy     :     0.011087
      f0      :     0.001292  f :     0.007653
      f+1     :     0.000579
      f-1     :     0.000758
      f+2     :     0.000526
      f-2     :     0.000852
      f+3     :     0.002234
      f-3     :     0.001413

 20 C s       :     3.062386  s :     3.062386
      pz      :     0.941074  p :     2.386271
      px      :     0.708715
      py      :     0.736481
      dz2     :     0.004825  d :     0.166617
      dxz     :     0.034456
      dyz     :     0.030933
      dx2y2   :     0.043962
      dxy     :     0.052442
      f0      :     0.002079  f :     0.014759
      f+1     :     0.001064
      f-1     :     0.000818
      f+2     :     0.001862
      f-2     :     0.001169
      f+3     :     0.003353
      f-3     :     0.004416

 21 C s       :     3.062255  s :     3.062255
      pz      :     0.941125  p :     2.386422
      px      :     0.746363
      py      :     0.698933
      dz2     :     0.004821  d :     0.166610
      dxz     :     0.029704
      dyz     :     0.035681
      dx2y2   :     0.041004
      dxy     :     0.055400
      f0      :     0.002079  f :     0.014758
      f+1     :     0.000776
      f-1     :     0.001105
      f+2     :     0.002369
      f-2     :     0.000661
      f+3     :     0.005393
      f-3     :     0.002375

 22 C s       :     3.313184  s :     3.313184
      pz      :     1.010257  p :     2.824231
      px      :     0.890765
      py      :     0.923209
      dz2     :     0.004973  d :     0.088801
      dxz     :     0.007632
      dyz     :     0.021981
      dx2y2   :     0.036517
      dxy     :     0.017698
      f0      :     0.001381  f :     0.008121
      f+1     :     0.000946
      f-1     :     0.000452
      f+2     :     0.000111
      f-2     :     0.001405
      f+3     :     0.001483
      f-3     :     0.002343

 23 C s       :     3.313285  s :     3.313285
      pz      :     1.010149  p :     2.824121
      px      :     0.917047
      py      :     0.896926
      dz2     :     0.004971  d :     0.088802
      dxz     :     0.020548
      dyz     :     0.009069
      dx2y2   :     0.034457
      dxy     :     0.019757
      f0      :     0.001381  f :     0.008121
      f+1     :     0.000498
      f-1     :     0.000900
      f+2     :     0.000464
      f-2     :     0.001052
      f+3     :     0.001803
      f-3     :     0.002024

 24 H s       :     0.873322  s :     0.873322
      pz      :     0.009317  p :     0.020389
      px      :     0.004570
      py      :     0.006503

 25 H s       :     0.862592  s :     0.862592
      pz      :     0.007617  p :     0.020211
      px      :     0.004540
      py      :     0.008054

 26 H s       :     0.873356  s :     0.873356
      pz      :     0.009334  p :     0.020390
      px      :     0.006633
      py      :     0.004423

 27 H s       :     0.862599  s :     0.862599
      pz      :     0.007602  p :     0.020212
      px      :     0.008173
      py      :     0.004437

 28 H s       :     0.855815  s :     0.855815
      pz      :     0.005508  p :     0.020495
      px      :     0.003570
      py      :     0.011417

 29 H s       :     0.855863  s :     0.855863
      pz      :     0.005508  p :     0.020495
      px      :     0.011379
      py      :     0.003608

 30 H s       :     0.854664  s :     0.854664
      pz      :     0.004886  p :     0.019987
      px      :     0.003648
      py      :     0.011453

 31 H s       :     0.854658  s :     0.854658
      pz      :     0.004886  p :     0.019987
      px      :     0.011048
      py      :     0.004053

 32 H s       :     0.853497  s :     0.853497
      pz      :     0.004758  p :     0.019932
      px      :     0.011079
      py      :     0.004096

 33 H s       :     0.853508  s :     0.853508
      pz      :     0.004759  p :     0.019933
      px      :     0.003674
      py      :     0.011501

 34 H s       :     0.851256  s :     0.851256
      pz      :     0.005074  p :     0.020279
      px      :     0.011585
      py      :     0.003620

 35 H s       :     0.851271  s :     0.851271
      pz      :     0.005074  p :     0.020279
      px      :     0.003605
      py      :     0.011600

 36 H s       :     0.854834  s :     0.854834
      pz      :     0.004869  p :     0.019969
      px      :     0.011436
      py      :     0.003664

 37 H s       :     0.854808  s :     0.854808
      pz      :     0.004869  p :     0.019969
      px      :     0.004075
      py      :     0.011025

 38 Mgs       :     4.543801  s :     4.543801
      pz      :     2.079201  p :     6.446754
      px      :     2.182632
      py      :     2.184922
      dz2     :     0.031907  d :     0.272826
      dxz     :     0.025109
      dyz     :     0.026522
      dx2y2   :     0.028514
      dxy     :     0.160773



                     *******************************
                     * LOEWDIN POPULATION ANALYSIS *
                     *******************************

----------------------
LOEWDIN ATOMIC CHARGES
----------------------
   0 N :    0.201079
   1 N :    0.171998
   2 N :    0.171985
   3 N :    0.178666
   4 C :   -0.186684
   5 C :   -0.186640
   6 C :   -0.192343
   7 C :   -0.192336
   8 C :   -0.122860
   9 C :   -0.122857
  10 C :   -0.207507
  11 C :   -0.207417
  12 C :   -0.210336
  13 C :   -0.210423
  14 C :   -0.123534
  15 C :   -0.123485
  16 C :   -0.116116
  17 C :   -0.116180
  18 C :   -0.081495
  19 C :   -0.081494
  20 C :   -0.214546
  21 C :   -0.214489
  22 C :   -0.124622
  23 C :   -0.124567
  24 H :    0.148716
  25 H :    0.146303
  26 H :    0.148713
  27 H :    0.146287
  28 H :    0.161872
  29 H :    0.161868
  30 H :    0.142012
  31 H :    0.142036
  32 H :    0.143442
  33 H :    0.143416
  34 H :    0.164219
  35 H :    0.164218
  36 H :    0.142001
  37 H :    0.142024
  38 Mg:    0.339076

-------------------------------
LOEWDIN REDUCED ORBITAL CHARGES
-------------------------------
  0 N s       :     2.985222  s :     2.985222
      pz      :     1.123855  p :     3.585211
      px      :     1.253300
      py      :     1.208056
      dz2     :     0.016289  d :     0.209981
      dxz     :     0.024017
      dyz     :     0.031126
      dx2y2   :     0.073686
      dxy     :     0.064863
      f0      :     0.001172  f :     0.018507
      f+1     :     0.001182
      f-1     :     0.001390
      f+2     :     0.003202
      f-2     :     0.000429
      f+3     :     0.006522
      f-3     :     0.004611

  1 N s       :     2.982801  s :     2.982801
      pz      :     1.198270  p :     3.624711
      px      :     1.183860
      py      :     1.242581
      dz2     :     0.016206  d :     0.201936
      dxz     :     0.030271
      dyz     :     0.024466
      dx2y2   :     0.069584
      dxy     :     0.061409
      f0      :     0.001175  f :     0.018555
      f+1     :     0.001351
      f-1     :     0.001237
      f+2     :     0.003565
      f-2     :     0.000313
      f+3     :     0.004778
      f-3     :     0.006136

  2 N s       :     2.982805  s :     2.982805
      pz      :     1.198287  p :     3.624726
      px      :     1.198544
      py      :     1.227895
      dz2     :     0.016209  d :     0.201931
      dxz     :     0.030683
      dyz     :     0.024055
      dx2y2   :     0.068612
      dxy     :     0.062371
      f0      :     0.001175  f :     0.018553
      f+1     :     0.001419
      f-1     :     0.001169
      f+2     :     0.003525
      f-2     :     0.000353
      f+3     :     0.004518
      f-3     :     0.006394

  3 N s       :     2.983807  s :     2.983807
      pz      :     1.185702  p :     3.614778
      px      :     1.236542
      py      :     1.192534
      dz2     :     0.016250  d :     0.204010
      dxz     :     0.025129
      dyz     :     0.031773
      dx2y2   :     0.069087
      dxy     :     0.061770
      f0      :     0.001160  f :     0.018739
      f+1     :     0.001196
      f-1     :     0.001376
      f+2     :     0.003720
      f-2     :     0.000325
      f+3     :     0.006293
      f-3     :     0.004669

  4 C s       :     2.768630  s :     2.768630
      pz      :     1.030392  p :     3.010499
      px      :     0.981415
      py      :     0.998692
      dz2     :     0.042682  d :     0.366390
      dxz     :     0.049442
      dyz     :     0.095839
      dx2y2   :     0.092556
      dxy     :     0.085871
      f0      :     0.004056  f :     0.041165
      f+1     :     0.003454
      f-1     :     0.004480
      f+2     :     0.004711
      f-2     :     0.005332
      f+3     :     0.009247
      f-3     :     0.009885

  5 C s       :     2.768639  s :     2.768639
      pz      :     1.030382  p :     3.010513
      px      :     0.997216
      py      :     0.982915
      dz2     :     0.042826  d :     0.366326
      dxz     :     0.095631
      dyz     :     0.049451
      dx2y2   :     0.087657
      dxy     :     0.090760
      f0      :     0.004069  f :     0.041161
      f+1     :     0.004501
      f-1     :     0.003414
      f+2     :     0.004659
      f-2     :     0.005395
      f+3     :     0.007707
      f-3     :     0.011417

  6 C s       :     2.716632  s :     2.716632
      pz      :     0.820680  p :     2.767815
      px      :     1.009829
      py      :     0.937306
      dz2     :     0.042544  d :     0.630925
      dxz     :     0.083904
      dyz     :     0.107816
      dx2y2   :     0.195389
      dxy     :     0.201271
      f0      :     0.005030  f :     0.076971
      f+1     :     0.004154
      f-1     :     0.006388
      f+2     :     0.010992
      f-2     :     0.006601
      f+3     :     0.030271
      f-3     :     0.013535

  7 C s       :     2.716645  s :     2.716645
      pz      :     0.820722  p :     2.767815
      px      :     0.931591
      py      :     1.015502
      dz2     :     0.042581  d :     0.630905
      dxz     :     0.097080
      dyz     :     0.094606
      dx2y2   :     0.193184
      dxy     :     0.203455
      f0      :     0.005029  f :     0.076971
      f+1     :     0.006067
      f-1     :     0.004481
      f+2     :     0.010037
      f-2     :     0.007555
      f+3     :     0.020590
      f-3     :     0.023212

  8 C s       :     2.750586  s :     2.750586
      pz      :     0.949937  p :     2.962186
      px      :     1.025477
      py      :     0.986773
      dz2     :     0.025003  d :     0.369488
      dxz     :     0.076839
      dyz     :     0.011730
      dx2y2   :     0.157862
      dxy     :     0.098054
      f0      :     0.003224  f :     0.040600
      f+1     :     0.004728
      f-1     :     0.003134
      f+2     :     0.002167
      f-2     :     0.005901
      f+3     :     0.012354
      f-3     :     0.009092

  9 C s       :     2.750601  s :     2.750601
      pz      :     0.949927  p :     2.962178
      px      :     0.984235
      py      :     1.028016
      dz2     :     0.025005  d :     0.369480
      dxz     :     0.011946
      dyz     :     0.076640
      dx2y2   :     0.154919
      dxy     :     0.100969
      f0      :     0.003224  f :     0.040598
      f+1     :     0.003115
      f-1     :     0.004746
      f+2     :     0.002274
      f-2     :     0.005796
      f+3     :     0.009191
      f-3     :     0.012251

 10 C s       :     2.701443  s :     2.701443
      pz      :     0.831325  p :     2.774782
      px      :     1.004021
      py      :     0.939437
      dz2     :     0.043659  d :     0.650593
      dxz     :     0.091566
      dyz     :     0.115058
      dx2y2   :     0.198145
      dxy     :     0.202165
      f0      :     0.004760  f :     0.080689
      f+1     :     0.004640
      f-1     :     0.006111
      f+2     :     0.012443
      f-2     :     0.007776
      f+3     :     0.026079
      f-3     :     0.018880

 11 C s       :     2.701461  s :     2.701461
      pz      :     0.831373  p :     2.774779
      px      :     0.938638
      py      :     1.004767
      dz2     :     0.043667  d :     0.650503
      dxz     :     0.119829
      dyz     :     0.086761
      dx2y2   :     0.194038
      dxy     :     0.206208
      f0      :     0.004759  f :     0.080673
      f+1     :     0.006375
      f-1     :     0.004376
      f+2     :     0.014852
      f-2     :     0.005364
      f+3     :     0.013711
      f-3     :     0.031235

 12 C s       :     2.699644  s :     2.699644
      pz      :     0.861450  p :     2.795820
      px      :     0.922918
      py      :     1.011452
      dz2     :     0.043490  d :     0.636123
      dxz     :     0.114642
      dyz     :     0.081151
      dx2y2   :     0.197891
      dxy     :     0.198949
      f0      :     0.004769  f :     0.078749
      f+1     :     0.006292
      f-1     :     0.004532
      f+2     :     0.014012
      f-2     :     0.004814
      f+3     :     0.013897
      f-3     :     0.030433

 13 C s       :     2.699630  s :     2.699630
      pz      :     0.861439  p :     2.795844
      px      :     1.011822
      py      :     0.922583
      dz2     :     0.043499  d :     0.636188
      dxz     :     0.084795
      dyz     :     0.111028
      dx2y2   :     0.198539
      dxy     :     0.198326
      f0      :     0.004770  f :     0.078760
      f+1     :     0.004818
      f-1     :     0.006008
      f+2     :     0.011368
      f-2     :     0.007462
      f+3     :     0.025757
      f-3     :     0.018578

 14 C s       :     2.766955  s :     2.766955
      pz      :     0.915916  p :     2.935775
      px      :     1.024434
      py      :     0.995425
      dz2     :     0.027171  d :     0.373768
      dxz     :     0.069041
      dyz     :     0.018676
      dx2y2   :     0.153642
      dxy     :     0.105238
      f0      :     0.003009  f :     0.047035
      f+1     :     0.003737
      f-1     :     0.003938
      f+2     :     0.000555
      f-2     :     0.009201
      f+3     :     0.017018
      f-3     :     0.009579

 15 C s       :     2.766953  s :     2.766953
      pz      :     0.915868  p :     2.935726
      px      :     1.007446
      py      :     1.012412
      dz2     :     0.027175  d :     0.373770
      dxz     :     0.022542
      dyz     :     0.065189
      dx2y2   :     0.153047
      dxy     :     0.105817
      f0      :     0.003009  f :     0.047037
      f+1     :     0.003974
      f-1     :     0.003700
      f+2     :     0.002387
      f-2     :     0.007371
      f+3     :     0.014339
      f-3     :     0.012256

 16 C s       :     2.766862  s :     2.766862
      pz      :     0.898904  p :     2.922101
      px      :     1.008237
      py      :     1.014959
      dz2     :     0.027065  d :     0.379676
      dxz     :     0.023153
      dyz     :     0.070890
      dx2y2   :     0.152317
      dxy     :     0.106250
      f0      :     0.002981  f :     0.047478
      f+1     :     0.003958
      f-1     :     0.003678
      f+2     :     0.002715
      f-2     :     0.007531
      f+3     :     0.014495
      f-3     :     0.012120

 17 C s       :     2.766859  s :     2.766859
      pz      :     0.898984  p :     2.922161
      px      :     1.026862
      py      :     0.996315
      dz2     :     0.027072  d :     0.379683
      dxz     :     0.075490
      dyz     :     0.018558
      dx2y2   :     0.153393
      dxy     :     0.105171
      f0      :     0.002981  f :     0.047477
      f+1     :     0.003713
      f-1     :     0.003923
      f+2     :     0.000624
      f-2     :     0.009622
      f+3     :     0.017007
      f-3     :     0.009606

 18 C s       :     2.754433  s :     2.754433
      pz      :     0.886440  p :     2.907912
      px      :     0.991246
      py      :     1.030226
      dz2     :     0.024616  d :     0.378755
      dxz     :     0.011446
      dyz     :     0.089760
      dx2y2   :     0.154797
      dxy     :     0.098135
      f0      :     0.003133  f :     0.040395
      f+1     :     0.003084
      f-1     :     0.004538
      f+2     :     0.002188
      f-2     :     0.006256
      f+3     :     0.008988
      f-3     :     0.012206

 19 C s       :     2.754436  s :     2.754436
[...]
  0-1A  -> 26-1A    5.169377   41693.8   239.8   0.006147151   0.04854  -0.17091  -0.13902  -0.00027
  0-1A  -> 27-1A    5.197644   41921.8   238.5   0.002867600   0.02252   0.09500  -0.11600   0.00617
  0-1A  -> 28-1A    5.323348   42935.7   232.9   0.066282212   0.50822  -0.45094   0.55212   0.00642
  0-1A  -> 29-1A    5.405593   43599.1   229.4   0.103051568   0.77813  -0.68538  -0.55533  -0.00168
  0-1A  -> 30-1A    5.407876   43617.5   229.3   0.010098478   0.07622   0.16655  -0.22017   0.00246

----------------------------------------------------------------------------------------------------
                     ABSORPTION SPECTRUM VIA TRANSITION VELOCITY DIPOLE MOMENTS    
----------------------------------------------------------------------------------------------------
     Transition      Energy     Energy  Wavelength fosc(P2)      P2        PX        PY        PZ   
                      (eV)      (cm-1)    (nm)                 (au**2)    (au)      (au)      (au)  
----------------------------------------------------------------------------------------------------
  0-1A  ->  1-1A    2.230058   17986.6   556.0   0.163194623   0.02006  -0.08959   0.10970  -0.00058
  0-1A  ->  2-1A    2.317013   18688.0   535.1   0.010880464   0.00139   0.02887   0.02359   0.00007
  0-1A  ->  3-1A    3.082344   24860.8   402.2   0.534100542   0.09075  -0.19031   0.23352  -0.00035
  0-1A  ->  4-1A    3.165106   25528.3   391.7   0.791013392   0.13801  -0.28789  -0.23480  -0.00070
  0-1A  ->  5-1A    3.234867   26091.0   383.3   0.172662430   0.03079   0.13607   0.11078   0.00033
  0-1A  ->  6-1A    3.277071   26431.4   378.3   0.188696379   0.03409   0.11673  -0.14304  -0.00024
  0-1A  ->  7-1A    3.519740   28388.6   352.3   0.197012743   0.03822  -0.15147  -0.12362  -0.00037
  0-1A  ->  8-1A    3.740237   30167.1   331.5   0.007934270   0.00164  -0.02561   0.03131   0.00020
  0-1A  ->  9-1A    3.845852   31018.9   322.4   0.063987018   0.01357  -0.09021  -0.07367  -0.00022
  0-1A  -> 10-1A    3.874861   31252.9   320.0   0.000660741   0.00014  -0.00751   0.00920  -0.00039
  0-1A  -> 11-1A    3.967529   32000.3   312.5   0.025283388   0.00553   0.04706  -0.05756  -0.00126
  0-1A  -> 12-1A    4.084625   32944.7   303.5   0.252081645   0.05676  -0.15115   0.18416   0.00055
  0-1A  -> 13-1A    4.097224   33046.3   302.6   0.084761721   0.01914   0.10648   0.08835   0.00025
  0-1A  -> 14-1A    4.307876   34745.4   287.8   0.017149024   0.00407   0.04947   0.04031   0.00012
  0-1A  -> 15-1A    4.369890   35245.5   283.7   0.109326414   0.02634  -0.10260   0.12573  -0.00126
  0-1A  -> 16-1A    4.382507   35347.3   282.9   0.000269681   0.00007   0.00622   0.00515   0.00001
  0-1A  -> 17-1A    4.584617   36977.4   270.4   0.000487403   0.00012  -0.00110   0.00132   0.01097
  0-1A  -> 18-1A    4.593271   37047.2   269.9   0.000009138   0.00000  -0.00117  -0.00097   0.00006
  0-1A  -> 19-1A    4.638040   37408.3   267.3   0.000047451   0.00001  -0.00267  -0.00224  -0.00003
  0-1A  -> 20-1A    4.666132   37634.9   265.7   0.000023312   0.00001   0.00191   0.00154   0.00002
  0-1A  -> 21-1A    4.732435   38169.7   262.0   0.190311552   0.04965  -0.14085   0.17264   0.00175
  0-1A  -> 22-1A    4.857978   39182.2   255.2   0.001249889   0.00033   0.01117  -0.01371   0.00467
  0-1A  -> 23-1A    4.930698   39768.8   251.5   0.029209152   0.00794   0.05618  -0.06886  -0.00646
  0-1A  -> 24-1A    5.073835   40923.2   244.4   0.000023346   0.00001  -0.00198  -0.00162   0.00001
  0-1A  -> 25-1A    5.123357   41322.7   242.0   0.000565171   0.00016   0.00037  -0.00050   0.01262
  0-1A  -> 26-1A    5.169377   41693.8   239.8   0.006318568   0.00180   0.03292   0.02678   0.00005
  0-1A  -> 27-1A    5.197644   41921.8   238.5   0.002820894   0.00081  -0.01800   0.02198  -0.00106
  0-1A  -> 28-1A    5.323348   42935.7   232.9   0.063829030   0.01873   0.08657  -0.10599  -0.00115
  0-1A  -> 29-1A    5.405593   43599.1   229.4   0.100457271   0.02993   0.13441   0.10894   0.00033
  0-1A  -> 30-1A    5.407876   43617.5   229.3   0.008966299   0.00267  -0.03112   0.04129  -0.00024

------------------------------------------------------------------------------------------
                     CD SPECTRUM VIA TRANSITION ELECTRIC DIPOLE MOMENTS    
------------------------------------------------------------------------------------------
     Transition      Energy     Energy  Wavelength    R        MX        MY        MZ   
                      (eV)      (cm-1)    (nm)   (1e40*cgs)   (au)      (au)      (au)  
------------------------------------------------------------------------------------------
  0-1A  ->  1-1A    2.230058   17986.6   556.0    1.34545   0.00200  -0.00013  -0.77883
  0-1A  ->  2-1A    2.317013   18688.0   535.1   -0.26083  -0.00098  -0.00078  -0.00044
  0-1A  ->  3-1A    3.082344   24860.8   402.2   -3.46512   0.00158  -0.00212   0.05825
  0-1A  ->  4-1A    3.165106   25528.3   391.7  -10.31299   0.00523   0.00415   0.00027
  0-1A  ->  5-1A    3.234867   26091.0   383.3   -3.96813  -0.00436  -0.00349   0.00021
  0-1A  ->  6-1A    3.277071   26431.4   378.3    0.92219   0.00047  -0.00204   0.47413
  0-1A  ->  7-1A    3.519740   28388.6   352.3   -4.37078   0.00465   0.00376   0.00006
  0-1A  ->  8-1A    3.740237   30167.1   331.5    0.11025  -0.00142   0.00344  -0.56178
  0-1A  ->  9-1A    3.845852   31018.9   322.4   -1.58126   0.00310   0.00251  -0.00003
  0-1A  -> 10-1A    3.874861   31252.9   320.0    8.19366  -0.12956   0.15872   0.02802
  0-1A  -> 11-1A    3.967529   32000.3   312.5   -0.82632  -0.00605   0.00865  -0.43867
  0-1A  -> 12-1A    4.084625   32944.7   303.5    1.07232  -0.00089   0.00067   0.14306
  0-1A  -> 13-1A    4.097224   33046.3   302.6   -1.29369  -0.00230  -0.00181   0.00067
  0-1A  -> 14-1A    4.307876   34745.4   287.8    1.89187   0.00751   0.00613  -0.00005
  0-1A  -> 15-1A    4.369890   35245.5   283.7    0.34666  -0.00037   0.00058  -0.00465
  0-1A  -> 16-1A    4.382507   35347.3   282.9   -3.72060  -0.11925  -0.09723  -0.00033
  0-1A  -> 17-1A    4.584617   36977.4   270.4   -0.18341  -0.01866   0.02308  -0.00970
  0-1A  -> 18-1A    4.593271   37047.2   269.9    0.11650  -0.02023  -0.01634  -0.00003
  0-1A  -> 19-1A    4.638040   37408.3   267.3    0.03872  -0.00265  -0.00212  -0.00011
  0-1A  -> 20-1A    4.666132   37634.9   265.7   -0.17925  -0.01800  -0.01484  -0.00012
  0-1A  -> 21-1A    4.732435   38169.7   262.0    3.66383  -0.00221   0.00142   0.43730
  0-1A  -> 22-1A    4.857978   39182.2   255.2   -2.13532  -0.02380   0.02926  -0.02679
  0-1A  -> 23-1A    4.930698   39768.8   251.5   10.51917   0.00220  -0.00103  -0.57718
  0-1A  -> 24-1A    5.073835   40923.2   244.4    0.31621  -0.03717  -0.03029  -0.00016
  0-1A  -> 25-1A    5.123357   41322.7   242.0   -0.08347  -0.02911   0.03580  -0.00042
  0-1A  -> 26-1A    5.169377   41693.8   239.8   -0.03505  -0.00032  -0.00014  -0.00022
  0-1A  -> 27-1A    5.197644   41921.8   238.5    0.21755  -0.00398   0.00471   0.07500
  0-1A  -> 28-1A    5.323348   42935.7   232.9   -2.01332  -0.00145   0.00011   0.55336
  0-1A  -> 29-1A    5.405593   43599.1   229.4    0.39861   0.00080   0.00052   0.00377
  0-1A  -> 30-1A    5.407876   43617.5   229.3    2.17128  -0.00801   0.01094  -0.35135

------------------------------------------------------------------------------------------
                     CD SPECTRUM VIA TRANSITION VELOCITY DIPOLE MOMENTS    
------------------------------------------------------------------------------------------
     Transition      Energy     Energy  Wavelength    R        MX        MY        MZ   
                      (eV)      (cm-1)    (nm)   (1e40*cgs)   (au)      (au)      (au)  
------------------------------------------------------------------------------------------
  0-1A  ->  1-1A    2.230058   17986.6   556.0    1.48805   0.00200  -0.00013  -0.77883
  0-1A  ->  2-1A    2.317013   18688.0   535.1   -0.25913  -0.00098  -0.00078  -0.00044
  0-1A  ->  3-1A    3.082344   24860.8   402.2   -3.40087   0.00158  -0.00212   0.05825
  0-1A  ->  4-1A    3.165106   25528.3   391.7  -10.05117   0.00523   0.00415   0.00027
  0-1A  ->  5-1A    3.234867   26091.0   383.3   -3.88526  -0.00436  -0.00349   0.00021
  0-1A  ->  6-1A    3.277071   26431.4   378.3    0.91883   0.00047  -0.00204   0.47413
  0-1A  ->  7-1A    3.519740   28388.6   352.3   -4.26271   0.00465   0.00376   0.00006
  0-1A  ->  8-1A    3.740237   30167.1   331.5    0.10131  -0.00142   0.00344  -0.56178
  0-1A  ->  9-1A    3.845852   31018.9   322.4   -1.54939   0.00310   0.00251  -0.00003
  0-1A  -> 10-1A    3.874861   31252.9   320.0    8.01805  -0.12956   0.15872   0.02802
  0-1A  -> 11-1A    3.967529   32000.3   312.5   -0.73809  -0.00605   0.00865  -0.43867
  0-1A  -> 12-1A    4.084625   32944.7   303.5    1.06327  -0.00089   0.00067   0.14306
  0-1A  -> 13-1A    4.097224   33046.3   302.6   -1.26686  -0.00230  -0.00181   0.00067
  0-1A  -> 14-1A    4.307876   34745.4   287.8    1.84206   0.00751   0.00613  -0.00005
  0-1A  -> 15-1A    4.369890   35245.5   283.7    0.34252  -0.00037   0.00058  -0.00465
  0-1A  -> 16-1A    4.382507   35347.3   282.9   -3.63539  -0.11925  -0.09723  -0.00033
  0-1A  -> 17-1A    4.584617   36977.4   270.4   -0.15531  -0.01866   0.02308  -0.00970
  0-1A  -> 18-1A    4.593271   37047.2   269.9    0.11039  -0.02023  -0.01634  -0.00003
  0-1A  -> 19-1A    4.638040   37408.3   267.3    0.03275  -0.00265  -0.00212  -0.00011
  0-1A  -> 20-1A    4.666132   37634.9   265.7   -0.15709  -0.01800  -0.01484  -0.00012
  0-1A  -> 21-1A    4.732435   38169.7   262.0    3.58006  -0.00221   0.00142   0.43730
  0-1A  -> 22-1A    4.857978   39182.2   255.2   -2.09220  -0.02380   0.02926  -0.02679
  0-1A  -> 23-1A    4.930698   39768.8   251.5   10.20971   0.00220  -0.00103  -0.57718
  0-1A  -> 24-1A    5.073835   40923.2   244.4    0.30981  -0.03717  -0.03029  -0.00016
  0-1A  -> 25-1A    5.123357   41322.7   242.0   -0.08466  -0.02911   0.03580  -0.00042
  0-1A  -> 26-1A    5.169377   41693.8   239.8   -0.03554  -0.00032  -0.00014  -0.00022
  0-1A  -> 27-1A    5.197644   41921.8   238.5    0.23696  -0.00398   0.00471   0.07500
  0-1A  -> 28-1A    5.323348   42935.7   232.9   -1.86455  -0.00145   0.00011   0.55336
  0-1A  -> 29-1A    5.405593   43599.1   229.4    0.39353   0.00080   0.00052   0.00377
  0-1A  -> 30-1A    5.407876   43617.5   229.3    1.86071  -0.00801   0.01094  -0.35135

Total run time:     3027.010 sec

           *** ORCA-CIS/TD-DFT FINISHED WITHOUT ERROR ***
-----------------------
CIS/TD-DFT TOTAL ENERGY
-----------------------

    E(SCF)  =  -1190.367403808 Eh
    DE(CIS) =      0.081953137 Eh (Root  1)
    ----------------------------- ---------
    E(tot)  =  -1190.285450671 Eh


Maximum memory used throughout the entire CIS-calculation: 1651.0 MB
=> NOW LEAVING ORCA_CIS

-------------------------   --------------------
FINAL SINGLE POINT ENERGY     -1190.285450671216
-------------------------   --------------------



           ************************************************************
           *        Program running with 4 parallel MPI-processes     *
           *              working on a common directory               *
           ************************************************************

------------------------------------------------------------------------------
                              ORCA PROPERTY CALCULATIONS
------------------------------------------------------------------------------

GBWName                                 ... tddft.gbw
Number of atoms                         ...     39
Number of basis functions               ...    860
Max core memory                         ...   3000 MB

Electric properties:
Dipole moment                           ... YES
Quadrupole moment                       ...  NO
Static polarizability (Dipole/Dipole)   ...  NO
Static polarizability (Dipole/Quad.)    ...  NO
Static polarizability (Quad./Quad.)     ...  NO
Static polarizability (Velocity)        ...  NO
Static hyperpolarizability              ...  NO

Atomic electric properties:
Dipole moment                           ...  NO
Quadrupole moment                       ...  NO
Static polarizability                   ...  NO

Choice of electric origin               ... Center of mass
Position of electric origin             ...     0.020726     0.037348     0.001110

General magnetic properties:
Magnetizability                         ...  NO

EPR properties:
g-Tensor (aka g-matrix)                 ...  NO
Zero-Field splitting spin-orbit         ...  NO
Zero-field splitting spin-spin          ...  NO
Hyperfine couplings                     ...  NO (   0 nuclei)
Quadrupole couplings                    ...  NO (   0 nuclei)
Contact density                         ...  NO (   0 nuclei)

NMR properties:
Chemical shifts                         ...  NO (   0 nuclei)
Spin-rotation constants                 ...  NO (   0 nuclei)
Spin-spin couplings                     ...  NO (   0 nuclei,    0 pairs)

Choice of magnetic origin               ... GIAO
Position of magnetic origin             ...     0.000000     0.000000     0.000000

Properties with geometric perturbations:
SCF Hessian                             ...  NO
IR spectrum                             ...  NO
VCD spectrum                            ...  NO
X-ray spectroscopy properties:
SCF XES/XAS/RIXS spectra                ...  NO

SCF SOC stabilization energy            ...  NO
Diagonal Born-Oppenheimer correction    ...  NO

-------------
DIPOLE MOMENT
-------------

Method             : SCF
Type of density    : Electron Density
Multiplicity       :   1
Irrep              :   0
Energy             : -1190.3674038084363929 Eh
Basis              : AO
                                X                 Y                 Z
Electronic contribution:     -5.235649790      -4.273071542      -0.010378393
Nuclear contribution   :      6.309094870       5.149182336       0.012909410
                        -----------------------------------------
Total Dipole Moment    :      1.073445080       0.876110794       0.002531017
                        -----------------------------------------
Magnitude (a.u.)       :      1.385590441
Magnitude (Debye)      :      3.521891011



--------------------
Rotational spectrum 
--------------------
 
Rotational constants in cm-1:             0.008906             0.008560             0.004372 
Rotational constants in MHz :           266.993354           256.633129           131.080005 

Dipole components along the rotational axes: 
x,y,z [a.u.] :     1.385590    -0.000546    -0.000032 
x,y,z [Debye]:     3.521891    -0.001387    -0.000082 

 

Dipole moment calculation done in   0.0 sec 

Maximum memory used throughout the entire PROP-calculation: 88.5 MB

--------------------------------
SUGGESTED CITATIONS FOR THIS RUN
--------------------------------

Below you find a list of papers that are relevant to this ORCA run
We neither can nor want to force you to cite these papers, but we appreciate if you do
You receive ORCA, which is the product of decades of hard work by many enthusiastic individuals, for free
The only thing we kindly ask in return is that you cite our papers,
We deeply appreciate it, if you show your appreciation for ORCA by not just citing the generic ORCA reference.

Please note that relegating all ORCA citations to the supporting information does *not* help us.
SI sections are not indexed - citations you put there will not count into any citation statistics
But we need these citations in order to attract the funding resources that allow us to do what we are doing

Therefore, if you are a happy ORCA user, please consider citing a few of the papers listed below in the main body of your paper

In addition to the list printed below, the program has created the file tddft.bibtex that contains the list in bibtex format
You can import this file easily into all common literature databanks and citation aid programs

It goes without saying that in many instances, there are alternative algorithms to achieve similar
results as the ones you have gotten from ORCA. It is, of course, also the case that in some instances
ORCA just re-implements algorithms worked out by others. We are fully aware of that and we are also
fully appreciative of our colleagues work. Hence this citation list should not be read as indicating
that the listed papers, which are focused on our own work, are the only ones worth citing. It simply
meant to make it easier for users to cite ORCA specific papers. It is not a substitute for doing your
own literature research and citing the relevant literature in a scientifically appropriate manner.

List of essential papers. We consider these as the minimum necessary citations

  1. Neese, F.
     Software update: the ORCA program system, version 6.0
     WIRES Comput. Molec. Sci. 2025 15(1), e70019
     doi.org/10.1002/wcms.70019

List of papers to cite with high priority. The work reported in these papers was absolutely
necessary for this run to complete.
Our perspective: the developers of density functionals and basis sets usually get cited in chemistry papers
Good! But without the algorithms to do something with them, the functionals or basis sets would not do anything.
Hence, in our opinion, the algorithm design and method developments papers are equally worthy of getting cited

  1. Neese, F.; Olbrich, G.
     Efficient use of the resolution of the identity approximation in time-dependent density functional calculations with hybrid density functionals
     Chem. Phys. Lett. 2002 362 , 170-178
     doi.org/10.1016/s0009-2614(02)01053-9
  2. Neese, F.
     An improvement of the resolution of the identity approximation for the formation of the Coulomb matrix
     J. Comp. Chem. 2003 24(14), 1740-1747
     doi.org/10.1002/jcc.10318
  3. Garcia-Rates, M.; Neese, F.
     Effect of the Solute Cavity on the Solvation Energy and its Derivatives within the Framework of the Gaussian Charge Scheme
     J. Comput. Chem. 2020 41 , 922-939
     doi.org/10.1002/jcc.26139
  4. Neese, F.
     The SHARK Integral Generation and Digestion System
     J. Comp. Chem. 2022 44(3), 381
     doi.org/10.1002/jcc.26942

List of suggested additional citations. These are papers that are important in the 'surrounding' of 
of this run, or papers that preceded the highly important papers. If you like your results we are grateful for a citation.

  1. Neese, F.
     The ORCA program system
     WIRES Comput. Molec. Sci. 2012 2(1), 73-78
     doi.org/10.1002/wcms.81
  2. Neese, F.
     Software update: the ORCA program system, version 4.0
     WIRES Comput. Molec. Sci. 2018 8(1), 1-6
     doi.org/10.1002/wcms.1327
  3. Neese, F.; Wennmohs, F.; Becker, U.; Riplinger, C.
     The ORCA quantum chemistry program package
     J. Chem. Phys. 2020 152(22), 224108
     doi.org/10.1063/5.0004608
  4. Neese, F.
     Software update: The ORCA program system—Version 5.0
     WIRES Comput. Molec. Sci. 2022 12(1), e1606
     doi.org/10.1002/wcms.1606

List of optional additional citations

  1. Neese, F.
     Approximate second-order SCF convergence for spin unrestricted wavefunctions
     Chem. Phys. Lett. 2000 325(1-3), 93-98
     doi.org/10.1016/s0009-2614(00)00662-x

Timings for individual modules:

Sum of individual times          ...     3345.536 sec (=  55.759 min)
Startup calculation              ...       10.434 sec (=   0.174 min)   0.3 %
SCF iterations                   ...      306.012 sec (=   5.100 min)   9.1 %
Property integrals               ...        1.013 sec (=   0.017 min)   0.0 %
Property calculations            ...        0.610 sec (=   0.010 min)   0.0 %
CIS module                       ...     3027.467 sec (=  50.458 min)  90.5 %
                             ****ORCA TERMINATED NORMALLY****
TOTAL RUN TIME: 0 days 0 hours 55 minutes 45 seconds 947 msec
