
                                 *****************
                                 * O   R   C   A *
                                 *****************

                                            #,                                       
                                            ###                                      
                                            ####                                     
                                            #####                                    
                                            ######                                   
                                           ########,                                 
                                     ,,################,,,,,                         
                               ,,#################################,,                 
                          ,,##########################################,,             
                       ,#########################################, ''#####,          
                    ,#############################################,,   '####,        
                  ,##################################################,,,,####,       
                ,###########''''           ''''###############################       
              ,#####''   ,,,,##########,,,,          '''####'''          '####       
            ,##' ,,,,###########################,,,                        '##       
           ' ,,###''''                  '''############,,,                           
         ,,##''                                '''############,,,,        ,,,,,,###''
      ,#''                                            '''#######################'''  
     '                                                          ''''####''''         
             ,#######,   #######,   ,#######,      ##                                
            ,#'     '#,  ##    ##  ,#'     '#,    #''#        ,####,    ,#,          
            ##       ##  ##   ,#'  ##            #'  '#       #'       ,# #          
            ##       ##  #######   ##           ,######,      #####,      #          
            '#,     ,#'  ##    ##  '#,     ,#' ,#      #,     #,   #      #          
             '#######'   ##     ##  '#######'  #'      '#     '####' #    #          



                #########################################################
                #                        -***-                          #
                #          Department of theory and spectroscopy        #
                #                                                       #
                #                      Frank Neese                      #
                #                                                       #
                #     Directorship, Architecture, Infrastructure        #
                #                    SHARK, DRIVERS                     #
                #        Core code/Algorithms in most modules           #
                #                                                       #
                #        Max Planck Institute fuer Kohlenforschung      #
                #                Kaiser Wilhelm Platz 1                 #
                #                 D-45470 Muelheim/Ruhr                 #
                #                      Germany                          #
                #                                                       #
                #                  All rights reserved                  #
                #                        -***-                          #
                #########################################################


                         Program Version 6.1.1  -  RELEASE   -
                                (GIT: $487d211c$)
                          ($2025-11-21 10:33:24 +0100$)


 With contributions from (in alphabetic order):
[Max-Planck-Institut fuer Kohlenforschung]                               
  Daniel Aravena         : Magnetic Suceptibility                        
  Michael Atanasov       : Ab Initio Ligand Field Theory (pilot matlab implementation)
  Alexander A. Auer      : GIAO ZORA, VPT2 properties, NMR spectrum      
  Ute Becker             : All parallelization in ORCA, NUMFREQ, NUMCALC 
  Giovanni Bistoni       : ED, misc. LED, open-shell LED, HFLD           
  Dmytro Bykov           : pre 5.0 version of the SCF Hessian            
  Marcos Casanova-Páez   : Triplet and SCS-CIS(D). UHF-(DLPNO)-IP/EA/STEOM-CCSD. UHF-CVS-IP/STEOM-CCSD   
  Vijay G. Chilkuri      : MRCI spin determinant printing, contributions to CSF-ICE 
  Pauline Colinet        : FMM embedding                                 
  Dipayan Datta          : RHF DLPNO-CCSD density                        
  Achintya Kumar Dutta   : EOM-CC, STEOM-CC                              
  Nicolas Foglia         : Exact transition moments, OPA infrastructure, MCD improvements    
  Dmitry Ganyushin       : Spin-Orbit,Spin-Spin,Magnetic field MRCI      
  Miquel Garcia-Rates    : C-PCM and meta-GGA Hessian, CCSD/C-PCM, Gaussian charge scheme 
  Tiago L. C. Gouveia    : GS-ROHF, GS-ROCIS                             
  Yang Guo               : DLPNO-NEVPT2, F12-NEVPT2, CIM, IAO-localization        
  Andreas Hansen         : Spin unrestricted coupled pair/coupled cluster methods 
  Ingolf Harden          : AUTO-CI MPn and infrastructure                
  Benjamin Helmich-Paris : MC-RPA, TRAH-(SCF,CASSCF), AVAS, COSX integrals, SCF dyn. polar., MC-PDFT, srDFT 
  Lee Huntington         : MR-EOM, pCC                                   
  Robert Izsak           : Overlap fitted RIJCOSX, COSX-SCS-MP3, EOM     
  Riya Kayal             : Wick's Theorem for AUTO-CI, AUTO-CI UHF-CCSDT 
  Emily Kempfer          : AUTO-CI RHF CISDT and CCSDT, approximate NEVPT4
  Christian Kollmar      : KDIIS, OOCD, Brueckner-CCSD(T), CCSD density, CASPT2, CASPT2-K, improved NEVPT2 
  Axel Koslowski         : Symmetry handling                             
  Simone Kossmann        : meta-GGA functionals, TD-DFT gradient, OOMP2, (MP2 Hessian; deprecated post 5.0) 
  Lucas Lang             : DCDCAS, Hyperfine gauge corrections, ICE-SOC+SSC
  Marvin Lechner         : AUTO-CI (C++ implementation), FIC-MRCC        
  Spencer Leger          : CASSCF response                               
  Dagmar Lenk            : GEPOL surface, SMD, ORCA-2-JSON               
  Dimitrios Liakos       : Extrapolation schemes; Compound Job, Property file
  Dimitrios Manganas     : Further ROCIS development; embedding schemes. LFT, Crystal Embedding 
  Dimitrios Pantazis     : SARC Basis sets                               
  Anastasios Papadopoulos: AUTO-CI, single reference methods and gradients 
  Taras Petrenko         : pre 6.0 DFT Hessian and TD-DFT gradient,  ECA, NRVS 
  Petra Pikulova         : Analytic Raman intensities                    
  Peter Pinski           : DLPNO-MP2, DLPNO-MP2 Gradient                 
  Shashank Vittal Rao    : ES-AILFT, MagRelax                            
  Christoph Reimann      : Effective Core Potentials                     
  Marius Retegan         : Local ZFS, SOC                                
  Christoph Riplinger    : Optimizer, TS searches, QM/MM, DLPNO-CCSD(T), (RO)-DLPNO pert. Triples 
  Michael Roemelt        : Original ROCIS implementation, recursive CI coupling coefficients
  Masaaki Saitow         : Open-shell DLPNO-CCSD energy and density      
  Barbara Sandhoefer     : DKH picture change effects                    
  Yorick L. A. Schmerwitz: GMF and freeze-and-release deltaSCF, NEB S-IDPP initial path                    
  Kantharuban Sivalingam : CASSCF convergence/infrastructure, NEVPT2, NEVPT3, NEVPT4(SD), FIC-MRCI and CEPA variants
  Bernardo de Souza      : ESD, SOC TD-DFT                               
  Georgi L. Stoychev     : AutoAux, RI-MP2 NMR, DLPNO-MP2 response, X2C  
  Van Anh Tran           : RI-MP2 g-tensors                              
  Willem Van den Heuvel  : Paramagnetic NMR                              
  Zikuan Wang            : NOTCH, Electric field optimization            
  Frank Wennmohs         : Technical directorship and infrastructure     
  Hang Xu                : AUTO-CI-Response properties                   
                                                                         
[FACCTs GmbH]                                                            
  Markus Bursch, Nicolas Foglia, Miquel Garcia-Rates, Ingolf Harden, Hagen Neugebauer, Anastasios Papadopoulos, 
  Christoph Riplinger, Bernardo de Souza, Georgi L. Stoychev                                                    
                                                                 
  APM, various basis sets, CI-OPT, improved COSX, DLPNO-Multilevel,           
  DOCKER, DRACO, updates on ESD, Fragmentator, GOAT, IRC, LR-CPCM, L-BFGS, MBIS, meta-GGA TD-DFT gradient, ML-optimized integration grids, 
  MM, NACMEs, nearIR, NEB, NEB-TS, NL-DFT gradient (VV10), 2- and 3-layer-ONIOM, interface openCOSMO-RS, QMMM,   
  Crystal-QMMM, RESP, rigid body optimization, SF, symmetry and pop. for TD-DFT, various functionals, SOLVATOR                                   
                                                                         
[Other institutions]                                                     
  V. Asgeirsson          : NEB                                           
  Christoph Bannwarth    : sTDA-DFT, sTD-DFT, PBEh-3c, B97-3c, D3        
  Giovanni Bistoni       : ETS/NOCV, ADLD/ADEX, COVALED                  
  Martin Brehm           : Molecular dynamics                            
  Ronald Cardenas        : ETS/NOCV                                      
  Martina Colucci        : COVALED                                       
  Sebastian Ehlert       : rSCAN, r2SCAN, r2SCAN-3c, D4, dhf basis sets  
  Marvin Friede          : D4 for Fr, Ra, Ac-Lr                          
  Lars Goerigk           : TD-DFT with DH, B97 family of functionals     
  Stefan Grimme          : VdW corrections, initial TS optimization, DFT functionals, gCP, sTDA/sTD-DF 
  Waldemar Hujo          : DFT-NL                                        
  H. Jonsson             : NEB                                           
  Holger Kruse           : gCP                                           
  Marcel Mueller         : wB97X-3c, vDZP basis set                      
  Hagen Neugebauer       : wr2SCAN, Native XTB                           
  Gianluca Regni         : ADLD/ADEX                                     
  Tobias Risthaus        : pre 6.0 range-separated hybrid DFT and stability analysis
  Lukas Wittmann         : regularized MP2, r2SCAN double-hybrids, wr2SCAN        
                                                                         
We gratefully acknowledge several colleagues who have allowed us to      
interface, adapt or use parts of their codes:                            
  Ed Valeev, F. Pavosevic, A. Kumar             : LibInt (2-el integral package), F12 methods 
  Garnet Chan, S. Sharma, J. Yang, R. Olivares  : DMRG                   
  Ulf Ekstrom                                   : XCFun DFT Library      
  Mihaly Kallay                                 : mrcc  (arbitrary order and MRCC methods)
  Frank Weinhold                                : gennbo (NPA and NBO analysis)           
  Simon Mueller                                 : openCOSMO-RS                            
  Christopher J. Cramer and Donald G. Truhlar   : smd solvation model                     
  S Lehtola, MJT Oliveira, MAL Marques          : LibXC Library                           
  Liviu Ungur et al                             : ANISO software                          


 Your calculation uses the libint2 library for the computation of 2-el integrals
 For citations please refer to: http://libint.valeyev.net

 Your ORCA version has been built with support for libXC version: 7.0.0
 For citations please refer to: https://libxc.gitlab.io

 This ORCA versions uses:
   CBLAS   interface :  Fast vector & matrix operations
   LAPACKE interface :  Fast linear algebra routines
   SCALAPACK package :  Parallel linear algebra routines
   Shared memory     :  Shared parallel matrices
   BLAS/LAPACK       :  OpenBLAS 0.3.29  USE64BITINT DYNAMIC_ARCH NO_AFFINITY Haswell SINGLE_THREADED
        Core in use  :  Haswell
   Copyright (c) 2011-2014, The OpenBLAS Project


  ***********************************
  * Starting time: Sun Jul  5 20:36:01 2026
  * Host name:     steezy
  * Process ID:    1294984
  * Working dir.:  /home/jannes/chlorophyll-ladder/007-mg-core-ladder/mgchlorin/03_tddft_ch2cl2/pbe0
  ***********************************

NOTE: MaxCore=3000 MB was set to SCF,MP2,MDCI,CIPSI,MRCI,RASCI and CIS
      => If you want to overwrite this, your respective input block should be placed after the MaxCore statement


***************************************
The coordinates will be read from file: /home/jannes/chlorophyll-ladder/007-mg-core-ladder/mgchlorin/01_opt/mgchlorin_opt_b3lypd4_tzvp.xyz
***************************************


================================================================================

----- Orbital basis set information -----
Your calculation utilizes the basis: def2-TZVP
   F. Weigend and R. Ahlrichs, Phys. Chem. Chem. Phys. 7, 3297 (2005).

----- AuxJ basis set information -----
Your calculation utilizes the auxiliary basis: def2/J
   H-Rn: F. Weigend, Phys. Chem. Chem. Phys. 8, 1057 (2006).
   Fr-Lr: K. Eichkorn, F. Weigend, O. Treutler, R. Ahlrichs; Theor. Chem. Acc. 97, 119 (1997).

================================================================================
                                        WARNINGS
                       Please study these warnings very carefully!
================================================================================


WARNING: CIS/ROCIS methods need fully converged wavefunctions
  ===> : Setting SCFConvForced true
         You can overwrite this default with %scf ConvForced false 


================================================================================
                                       INPUT FILE
================================================================================
NAME = tddft.inp
|  1> %pal nprocs 4 end
|  2> %maxcore 3000
|  3> ! PBE0 def2-TZVP def2/J RIJCOSX DefGrid3 TightSCF CPCM(CH2Cl2)
|  4> %tddft
|  5>   nroots 30
|  6>   tda false
|  7>   triplets false
|  8> end
|  9> * xyzfile 0 1 /home/jannes/chlorophyll-ladder/007-mg-core-ladder/mgchlorin/01_opt/mgchlorin_opt_b3lypd4_tzvp.xyz
| 10> 
| 11>                          ****END OF INPUT****
================================================================================

                       ****************************
                       * Single Point Calculation *
                       ****************************

---------------------------------
CARTESIAN COORDINATES (ANGSTROEM)
---------------------------------
  N      1.617376    1.330383    0.004551
  N     -1.306529    1.580997    0.003644
  N      1.276091   -1.584198   -0.002271
  N     -1.612608   -1.304895   -0.003475
  C      2.875203    3.342362   -0.063685
  C      3.840630    2.159068    0.079915
  C      1.509656    2.684377   -0.016153
  C      2.922172    0.953296    0.027878
  C      0.336508    3.400638   -0.015219
  C      3.388460   -0.339731    0.025539
  C     -0.976132    2.896056   -0.002122
  C      2.630796   -1.524412    0.007627
  C     -2.686758    1.511059    0.009704
  C      0.930668   -2.922223   -0.012658
  C     -2.169427    3.701790    0.002039
  C      3.180636   -2.855093    0.001851
  C     -3.225855    2.843438    0.009928
  C      2.127735   -3.717737   -0.011279
  C     -3.426856    0.343504    0.009772
  C     -0.361658   -3.413010   -0.017853
  C     -2.938073   -0.969119    0.002267
  C     -1.549551   -2.670848   -0.012186
  C     -3.737889   -2.157029   -0.002719
  C     -2.873771   -3.216052   -0.012243
  H      3.004410    3.866805   -1.013495
  H      2.986016    4.085160    0.727134
  H      4.377829    2.179169    1.031116
  H      4.592202    2.120440   -0.709370
  H      0.429527    4.479453   -0.029677
  H      4.463992   -0.464803    0.042863
  H     -2.189602    4.780461   -0.001150
  H      4.233282   -3.091377    0.007587
  H     -4.277438    3.085144    0.014504
  H      2.153498   -4.796427   -0.018419
  H     -4.504247    0.454657    0.013550
  H     -0.468513   -4.490823   -0.024516
  H     -4.816548   -2.181344    0.000207
  H     -3.114006   -4.267872   -0.018337
  Mg    -0.018551   -0.004412    0.000625

----------------------------
CARTESIAN COORDINATES (A.U.)
----------------------------
  NO LB      ZA    FRAG     MASS         X           Y           Z
   0 N     7.0000    0    14.007    3.056398    2.514059    0.008600
   1 N     7.0000    0    14.007   -2.468981    2.987652    0.006887
   2 N     7.0000    0    14.007    2.411463   -2.993700   -0.004293
   3 N     7.0000    0    14.007   -3.047387   -2.465895   -0.006567
   4 C     6.0000    0    12.011    5.433346    6.316149   -0.120347
   5 C     6.0000    0    12.011    7.257738    4.080048    0.151018
   6 C     6.0000    0    12.011    2.852836    5.072737   -0.030524
   7 C     6.0000    0    12.011    5.522104    1.801468    0.052683
   8 C     6.0000    0    12.011    0.635908    6.426274   -0.028760
   9 C     6.0000    0    12.011    6.403262   -0.641999    0.048262
  10 C     6.0000    0    12.011   -1.844622    5.472752   -0.004009
  11 C     6.0000    0    12.011    4.971483   -2.880721    0.014414
  12 C     6.0000    0    12.011   -5.077236    2.855488    0.018338
  13 C     6.0000    0    12.011    1.758707   -5.522200   -0.023920
  14 C     6.0000    0    12.011   -4.099623    6.995369    0.003853
  15 C     6.0000    0    12.011    6.010530   -5.395343    0.003498
  16 C     6.0000    0    12.011   -6.095983    5.373319    0.018761
  17 C     6.0000    0    12.011    4.020836   -7.025504   -0.021315
  18 C     6.0000    0    12.011   -6.475819    0.649128    0.018466
  19 C     6.0000    0    12.011   -0.683435   -6.449655   -0.033738
  20 C     6.0000    0    12.011   -5.552153   -1.831369    0.004284
  21 C     6.0000    0    12.011   -2.928227   -5.047171   -0.023027
  22 C     6.0000    0    12.011   -7.063586   -4.076195   -0.005137
  23 C     6.0000    0    12.011   -5.430639   -6.077458   -0.023136
  24 H     1.0000    0     1.008    5.677511    7.307202   -1.915228
  25 H     1.0000    0     1.008    5.642753    7.719833    1.374085
  26 H     1.0000    0     1.008    8.272899    4.118034    1.948527
  27 H     1.0000    0     1.008    8.678005    4.007051   -1.340516
  28 H     1.0000    0     1.008    0.811688    8.464939   -0.056081
  29 H     1.0000    0     1.008    8.435723   -0.878351    0.081000
  30 H     1.0000    0     1.008   -4.137748    9.033761   -0.002174
  31 H     1.0000    0     1.008    7.999744   -5.841856    0.014337
  32 H     1.0000    0     1.008   -8.083187    5.830076    0.027408
  33 H     1.0000    0     1.008    4.069522   -9.063934   -0.034807
  34 H     1.0000    0     1.008   -8.511794    0.859178    0.025605
  35 H     1.0000    0     1.008   -0.885361   -8.486426   -0.046329
  36 H     1.0000    0     1.008   -9.101956   -4.122142    0.000392
  37 H     1.0000    0     1.008   -5.884618   -8.065109   -0.034653
  38 Mg   12.0000    0    24.305   -0.035057   -0.008338    0.001182

--------------------------------
INTERNAL COORDINATES (ANGSTROEM)
--------------------------------
 N      0   0   0     0.000000000000     0.00000000     0.00000000
 N      1   0   0     2.934625567277     0.00000000     0.00000000
 N      1   2   0     2.934502219461    88.22026361     0.00000000
 N      2   1   3     2.902087324163    91.15525092     0.00000000
 C      1   2   3     2.373783144973   117.10066924   178.00775617
 C      5   1   2     1.533901517256    71.15336793   175.74864028
 C      1   2   3     1.358430124362    80.55312792   178.98494255
 C      1   2   3     1.358392392334   168.73866091   354.91154939
 C      7   1   2     1.374520448020   125.94914713     0.55405638
 C      8   1   7     1.374536203187   125.94130379   181.39600351
 C      2   1   3     1.355940334932    80.79598169   180.38241652
 C      3   1   2     1.356059119169    80.79364978   180.38854817
 C      2   1   3     1.382013227933   172.19563123     2.11228019
 C      3   1   2     1.381931604181   172.19772945     2.18695519
 C     11   2   1     1.439853693466   109.92374504   180.32182958
 C     12   3   1     1.439815791155   109.92104971   180.32893451
 C     15  11   2     1.361202173100   106.87870823     0.00000000
 C     16  12   3     1.361222836597   106.87868208     0.00000000
 C     13   2  11     1.382364012124   125.27049495   179.64780351
 C     14   3  12     1.382391454942   125.27124228   179.65348396
 C      4   2   1     1.367346283750    81.83816516   179.76221527
 C      4   2   1     1.367434918034   171.29992091   358.49070100
 C     21   4   2     1.432083165488   109.73552966   179.80925939
 C     23  21   4     1.366865067502   106.83566180   359.97041685
 H      5   1   2     1.092645014934   119.63454595   281.07952700
 H      5   1   2     1.090606617469   127.60927975    70.55922818
 H      6   5   1     1.092598204440   112.13340192   244.83271966
 H      6   5   1     1.090562030620   113.16139441   123.71896896
 H      9   7   1     1.082914591440   116.47481442   179.76700295
 H     10   8   1     1.082918427081   116.45780824   179.78631778
 H     15  11   2     1.078863876263   125.09848097   180.00420488
 H     16  12   3     1.078854659017   125.09944828   180.00572083
 H     17  15  11     1.079013379288   127.96205293   180.02317060
 H     18  16  12     1.079022169130   127.96119491   180.02286464
 H     19  13   2     1.083116608289   116.47961750   180.08384249
 H     20  14   3     1.083117372845   116.45786284   180.08863448
 H     23  21   4     1.078936570721   125.24249032   179.99600471
 H     24  23  21     1.078923308856   127.92239530   180.01162826
 Mg     3   1   2     2.042506205857    46.01341093     0.00000000

---------------------------
INTERNAL COORDINATES (A.U.)
---------------------------
 N      0   0   0     0.000000000000     0.00000000     0.00000000
 N      1   0   0     5.545638627757     0.00000000     0.00000000
 N      1   2   0     5.545405534166    88.22026361     0.00000000
 N      2   1   3     5.484150259393    91.15525092     0.00000000
 C      1   2   3     4.485800045317   117.10066924   178.00775617
 C      5   1   2     2.898653784021    71.15336793   175.74864028
 C      1   2   3     2.567060907114    80.55312792   178.98494255
 C      1   2   3     2.566989603913   168.73866091   354.91154939
 C      7   1   2     2.597467212233   125.94914713     0.55405638
 C      8   1   7     2.597496985183   125.94130379   181.39600351
 C      2   1   3     2.562355886959    80.79598169   180.38241652
 C      3   1   2     2.562580356635    80.79364978   180.38854817
 C      2   1   3     2.611626514250   172.19563123     2.11228019
 C      3   1   2     2.611472267713   172.19772945     2.18695519
 C     11   2   1     2.720929153566   109.92374504   180.32182958
 C     12   3   1     2.720857528579   109.92104971   180.32893451
 C     15  11   2     2.572299320058   106.87870823     0.00000000
 C     16  12   3     2.572338368408   106.87868208     0.00000000
 C     13   2  11     2.612289400304   125.27049495   179.64780351
 C     14   3  12     2.612341259714   125.27124228   179.65348396
 C      4   2   1     2.583910006522    81.83816516   179.76221527
 C      4   2   1     2.584077501046   171.29992091   358.49070100
 C     21   4   2     2.706244983771   109.73552966   179.80925939
 C     23  21   4     2.583000639603   106.83566180   359.97041685
 H      5   1   2     2.064799839820   119.63454595   281.07952700
 H      5   1   2     2.060947826859   127.60927975    70.55922818
 H      6   5   1     2.064711380806   112.13340192   244.83271966
 H      6   5   1     2.060863569926   113.16139441   123.71896896
 H      9   7   1     2.046412004250   116.47481442   179.76700295
 H     10   8   1     2.046419252561   116.45780824   179.78631778
 H     15  11   2     2.038757261919   125.09848097   180.00420488
 H     16  12   3     2.038739843848   125.09944828   180.00572083
 H     17  15  11     2.039039781691   127.96205293   180.02317060
 H     18  16  12     2.039056392086   127.96119491   180.02286464
 H     19  13   2     2.046793760768   116.47961750   180.08384249
 H     20  14   3     2.046795205569   116.45786284   180.08863448
 H     23  21   4     2.038894634535   125.24249032   179.99600471
 H     24  23  21     2.038869573241   127.92239530   180.01162826
 Mg     3   1   2     3.859777355904    46.01341093     0.00000000

---------------------
BASIS SET INFORMATION
---------------------
There are 4 groups of distinct atoms

 Group   1 Type N   : 11s6p2d1f contracted to 5s3p2d1f pattern {62111/411/11/1}
 Group   2 Type C   : 11s6p2d1f contracted to 5s3p2d1f pattern {62111/411/11/1}
 Group   3 Type H   : 5s1p contracted to 3s1p pattern {311/1}
 Group   4 Type Mg  : 14s8p3d contracted to 5s4p3d pattern {73211/5111/111}

Atom   0N    basis set group =>   1
Atom   1N    basis set group =>   1
Atom   2N    basis set group =>   1
Atom   3N    basis set group =>   1
Atom   4C    basis set group =>   2
Atom   5C    basis set group =>   2
Atom   6C    basis set group =>   2
Atom   7C    basis set group =>   2
Atom   8C    basis set group =>   2
Atom   9C    basis set group =>   2
Atom  10C    basis set group =>   2
Atom  11C    basis set group =>   2
Atom  12C    basis set group =>   2
Atom  13C    basis set group =>   2
Atom  14C    basis set group =>   2
Atom  15C    basis set group =>   2
Atom  16C    basis set group =>   2
Atom  17C    basis set group =>   2
Atom  18C    basis set group =>   2
Atom  19C    basis set group =>   2
Atom  20C    basis set group =>   2
Atom  21C    basis set group =>   2
Atom  22C    basis set group =>   2
Atom  23C    basis set group =>   2
Atom  24H    basis set group =>   3
Atom  25H    basis set group =>   3
Atom  26H    basis set group =>   3
Atom  27H    basis set group =>   3
Atom  28H    basis set group =>   3
Atom  29H    basis set group =>   3
Atom  30H    basis set group =>   3
Atom  31H    basis set group =>   3
Atom  32H    basis set group =>   3
Atom  33H    basis set group =>   3
Atom  34H    basis set group =>   3
Atom  35H    basis set group =>   3
Atom  36H    basis set group =>   3
Atom  37H    basis set group =>   3
Atom  38Mg   basis set group =>   4
---------------------------------
AUXILIARY/J BASIS SET INFORMATION
---------------------------------
There are 4 groups of distinct atoms

 Group   1 Type N   : 12s5p4d2f1g contracted to 6s4p3d1f1g pattern {711111/2111/211/2/1}
 Group   2 Type C   : 12s5p4d2f1g contracted to 6s4p3d1f1g pattern {711111/2111/211/2/1}
 Group   3 Type H   : 5s2p1d contracted to 3s1p1d pattern {311/2/1}
 Group   4 Type Mg  : 14s5p5d2f1g contracted to 8s4p4d1f1g pattern {71111111/2111/2111/2/1}

Atom   0N    basis set group =>   1
Atom   1N    basis set group =>   1
Atom   2N    basis set group =>   1
Atom   3N    basis set group =>   1
Atom   4C    basis set group =>   2
Atom   5C    basis set group =>   2
Atom   6C    basis set group =>   2
Atom   7C    basis set group =>   2
Atom   8C    basis set group =>   2
Atom   9C    basis set group =>   2
Atom  10C    basis set group =>   2
Atom  11C    basis set group =>   2
Atom  12C    basis set group =>   2
Atom  13C    basis set group =>   2
Atom  14C    basis set group =>   2
Atom  15C    basis set group =>   2
Atom  16C    basis set group =>   2
Atom  17C    basis set group =>   2
Atom  18C    basis set group =>   2
Atom  19C    basis set group =>   2
Atom  20C    basis set group =>   2
Atom  21C    basis set group =>   2
Atom  22C    basis set group =>   2
Atom  23C    basis set group =>   2
Atom  24H    basis set group =>   3
Atom  25H    basis set group =>   3
Atom  26H    basis set group =>   3
Atom  27H    basis set group =>   3
Atom  28H    basis set group =>   3
Atom  29H    basis set group =>   3
Atom  30H    basis set group =>   3
Atom  31H    basis set group =>   3
Atom  32H    basis set group =>   3
Atom  33H    basis set group =>   3
Atom  34H    basis set group =>   3
Atom  35H    basis set group =>   3
Atom  36H    basis set group =>   3
Atom  37H    basis set group =>   3
Atom  38Mg   basis set group =>   4


           ************************************************************
           *        Program running with 4 parallel MPI-processes     *
           *              working on a common directory               *
           ************************************************************
------------------------------------------------------------------------------
                             ORCA STARTUP CALCULATIONS
                           -- RI-GTO INTEGRALS CHOSEN --
------------------------------------------------------------------------------
------------------------------------------------------------------------------
                   ___                                                        
                  /   \      - P O W E R E D   B Y -                         
                 /     \                                                     
                 |  |  |   _    _      __       _____    __    __             
                 |  |  |  | |  | |    /  \     |  _  \  |  |  /  |          
                  \  \/   | |  | |   /    \    | | | |  |  | /  /          
                 / \  \   | |__| |  /  /\  \   | |_| |  |  |/  /          
                |  |  |   |  __  | /  /__\  \  |    /   |      \           
                |  |  |   | |  | | |   __   |  |    \   |  |\   \          
                \     /   | |  | | |  |  |  |  | |\  \  |  | \   \       
                 \___/    |_|  |_| |__|  |__|  |_| \__\ |__|  \__/        
                                                                              
                      - O R C A' S   B I G   F R I E N D -                    
                                      &                                       
                       - I N T E G R A L  F E E D E R -                       
                                                                              
 v1 FN, 2020, v2 2021, v3 2022-2024                                           
------------------------------------------------------------------------------


----------------------
SHARK INTEGRAL PACKAGE
----------------------

Number of atoms                             ...     39
Number of basis functions                   ...    860
Number of shells                            ...    332
Maximum angular momentum                    ...      3
Integral batch strategy                     ... SHARK/LIBINT Hybrid
RI-J (if used) integral strategy            ... SPLIT-RIJ (Revised 2003 algorithm where possible)
Printlevel                                  ...      1
Contraction scheme used                     ... SEGMENTED contraction
Prescreening option                         ... SCHWARTZ
   Thresh                                   ... 2.500e-11
   Tcut                                     ... 2.500e-12
   Tpresel                                  ... 2.500e-12 
Coulomb Range Separation                    ... NOT USED
Exchange Range Separation                   ... NOT USED
Multipole approximations                    ... NOT USED
Finite Nucleus Model                        ... NOT USED
CABS basis                                  ... NOT available
Auxiliary Coulomb fitting basis             ... AVAILABLE
   # of basis functions in Aux-J            ...   1386
   # of shells in Aux-J                     ...    448
   Maximum angular momentum in Aux-J        ...      4
Auxiliary J/K fitting basis                 ... NOT available
Auxiliary Correlation fitting basis         ... NOT available
Auxiliary 'external' fitting basis          ... NOT available

Checking pre-screening integrals            ... done (  0.0 sec) Dimension = 332
   => SHARK Basis and OBASIS are compatible. Storing Pre-screening
Shell pair information
Shell pair cut-off parameter TPreSel        ...   2.5e-12
Total number of shell pairs                 ...     55278
Shell pairs after pre-screening             ...     38985
Total number of primitive shell pairs       ...    174360
Primitive shell pairs kept                  ...     80636
          la=0 lb=0:   9326 shell pairs
          la=1 lb=0:  11131 shell pairs
          la=1 lb=1:   3288 shell pairs
          la=2 lb=0:   5767 shell pairs
          la=2 lb=1:   3529 shell pairs
          la=2 lb=2:    978 shell pairs
          la=3 lb=0:   2472 shell pairs
          la=3 lb=1:   1540 shell pairs
          la=3 lb=2:    784 shell pairs
          la=3 lb=3:    170 shell pairs

Checking whether 4 symmetric matrices of dimension 860 fit in memory
:Max Core in MB      =   3000.00
 MB in use           =     50.97
 MB left             =   2949.03
 MB needed           =     11.30
 Data fit in memory  = YES
Calculating RI/J V-Matrix + Cholesky decomp.... done (  0.2 sec)
Calculating Nuclear repulsion               ... done (  0.0 sec) ENN=   2155.857692955848 Eh

Diagonalization of the overlap matrix:
Smallest eigenvalue                        ... 1.000e-05
Time for diagonalization                   ...    0.201 sec
Threshold for overlap eigenvalues          ... 1.000e-07
Number of eigenvalues below threshold      ... 0
Time for construction of square roots      ...    0.109 sec
Total time needed                          ...    0.317 sec

-------------------
DFT GRID GENERATION
-------------------

General Integration Accuracy     IntAcc      ... 4.959
Radial Grid Type                 RadialGrid  ... OptM3 with GC (2021)
Angular Grid (max. ang.)         AngularGrid ... 6 (Lebedev-590)
Angular grid pruning method      GridPruning ... 4 (adaptive)
Weight generation scheme         WeightScheme... mBecke (2022)
Basis function cutoff            BFCut       ... 1.0000e-11
Integration weight cutoff        WCut        ... 1.0000e-14
Partially contracted basis set               ... off
Rotationally invariant grid construction     ... off
Angular grids for H and He will be reduced by one unit

Total number of grid points                  ...   473102
Total number of batches                      ...     7410
Average number of points per batch           ...       63
Average number of grid points per atom       ...    12131

--------------------
COSX GRID GENERATION
--------------------

GRIDX 1
-------
General Integration Accuracy     IntAcc      ... 4.020
Radial Grid Type                 RadialGrid  ... OptM3 with GC (2021)
Angular Grid (max. ang.)         AngularGrid ... 2 (Lebedev-110)
Angular grid pruning method      GridPruning ... 4 (adaptive)
Weight generation scheme         WeightScheme... mBecke (2022)
Basis function cutoff            BFCut       ... 1.0000e-11
Integration weight cutoff        WCut        ... 1.0000e-14
Partially contracted basis set               ... on
Rotationally invariant grid construction     ... off
Angular grids for H and He will be reduced by one unit

Total number of grid points                  ...    54054
Total number of batches                      ...      445
Average number of points per batch           ...      121
Average number of grid points per atom       ...     1386
UseSFitting                                  ... on

GRIDX 2
-------
General Integration Accuracy     IntAcc      ... 4.338
Radial Grid Type                 RadialGrid  ... OptM3 with GC (2021)
Angular Grid (max. ang.)         AngularGrid ... 3 (Lebedev-194)
Angular grid pruning method      GridPruning ... 4 (adaptive)
Weight generation scheme         WeightScheme... mBecke (2022)
Basis function cutoff            BFCut       ... 1.0000e-11
Integration weight cutoff        WCut        ... 1.0000e-14
Partially contracted basis set               ... on
Rotationally invariant grid construction     ... off
Angular grids for H and He will be reduced by one unit

Total number of grid points                  ...   119051
Total number of batches                      ...      950
Average number of points per batch           ...      125
Average number of grid points per atom       ...     3053
UseSFitting                                  ... on

GRIDX 3
-------
General Integration Accuracy     IntAcc      ... 4.871
Radial Grid Type                 RadialGrid  ... OptM3 with GC (2021)
Angular Grid (max. ang.)         AngularGrid ... 4 (Lebedev-302)
Angular grid pruning method      GridPruning ... 4 (adaptive)
Weight generation scheme         WeightScheme... mBecke (2022)
Basis function cutoff            BFCut       ... 1.0000e-11
Integration weight cutoff        WCut        ... 1.0000e-14
Partially contracted basis set               ... on
Rotationally invariant grid construction     ... off
Angular grids for H and He will be reduced by one unit

Total number of grid points                  ...   219016
Total number of batches                      ...     1726
Average number of points per batch           ...      126
Average number of grid points per atom       ...     5616
UseSFitting                                  ... on
Grids setup in  15.3 sec
Initializing property integral containers    ... done (  0.0 sec)

SHARK setup successfully completed in  16.6 seconds

Maximum memory used throughout the entire STARTUP-calculation: 154.4 MB


           ************************************************************
           *        Program running with 4 parallel MPI-processes     *
           *              working on a common directory               *
           ************************************************************
-------------------------------------------------------------------------------
                                 ORCA GUESS
                   Start orbitals & Density for SCF / CASSCF
-------------------------------------------------------------------------------

------------
SCF SETTINGS
------------
Hamiltonian:
 Density Functional     Method          .... DFT(GTOs)
 Exchange Functional    Exchange        .... PBE
   PBE kappa parameter   XKappa         ....  0.804000
   PBE mue parameter    XMuePBE         ....  0.219520
 Correlation Functional Correlation     .... PBE
   PBE beta parameter  CBetaPBE         ....  0.066725
 LDA part of GGA corr.  LDAOpt          .... PW91-LDA
 Gradients option       PostSCFGGA      .... off
 Hybrid DFT is turned on
   Fraction HF Exchange ScalHFX         ....  0.250000
   Scaling of DF-GGA-X  ScalDFX         ....  0.750000
   Scaling of DF-GGA-C  ScalDFC         ....  1.000000
   Scaling of DF-LDA-C  ScalLDAC        ....  1.000000
   Perturbative correction              ....  0.000000
   NL short-range parameter             ....  6.900000
 RI-approximation to the Coulomb term is turned on
   Number of AuxJ basis functions       .... 1386
   RIJ-COSX (HFX calculated with COS-X)).... on


General Settings:
 Integral files         IntName         .... tddft
 Hartree-Fock type      HFTyp           .... RHF
 Total Charge           Charge          ....    0
 Multiplicity           Mult            ....    1
 Number of Electrons    NEL             ....  174
 Basis Dimension        Dim             ....  860
 Nuclear Repulsion      ENuc            ....   2155.8576929558 Eh

Convergence Acceleration:
 AO-DIIS                CNVDIIS         .... on
   Start iteration      DIISMaxIt       ....    12
   Startup error        DIISStart       ....  0.200000
   # of expansion vecs  DIISMaxEq       ....     5
   Bias factor          DIISBfac        ....   1.050
   Max. coefficient     DIISMaxC        ....  10.000
 MO-DIIS                CNVKDIIS        .... off
 Trust-Rad. Augm. Hess. CNVTRAH         .... auto
   Auto Start mean grad. ratio tolernc. ....  1.125000
   Auto Start start iteration           ....    50
   Auto Start num. interpolation iter.  ....    10
   Max. Number of Micro iterations      ....    24
   Max. Number of Macro iterations      .... Maxiter - #DIIS iter
   Number of Davidson start vectors     ....     2
   Converg. threshold    (grad. norm)   ....   1.000e-05
   Grad. Scal. Fac. for Micro threshold ....   0.100
   Minimum threshold for Micro iter.    ....   1.000e-02
   NR start threshold (gradient norm)   ....   1.000e-04
   Initial trust radius                 ....   0.400
   Minimum AH scaling param. (alpha)    ....   1.000
   Maximum AH scaling param. (alpha)    .... 1000.000
   Quad. conv. algorithm                .... NR
   White noise on init. David. guess    .... on
   Maximum white noise                  ....   0.010
   Pseudo random numbers                .... off
   Inactive MOs                         .... canonical
   Orbital update algorithm             .... Taylor
   Preconditioner                       .... Diag
   Full preconditioner red. dimension   ....   250
 SOSCF                 CNVSOSCF           .... on
   Start iteration     SOSCFMaxIt         ....   150
   Startup grad/error  SOSCFStart         ....  0.003300
   Hessian update      SOSCFHessUp        .... L-BFGS
   Autom. constraints  SOSCFAutoConstrain .... off
 Level Shifting         CNVShift        .... on
   Level shift para.    LevelShift      ....    0.2500
   Turn off err/grad.   ShiftErr        ....    0.0010
 Zerner damping         CNVZerner       .... off
 Static damping         CNVDamp         .... on
   Fraction old density DampFac         ....    0.7000
   Max. Damping (<1)    DampMax         ....    0.9800
   Min. Damping (>=0)   DampMin         ....    0.0000
   Turn off err/grad.   DampErr         ....    0.1000

SCF Procedure:
 Maximum # iterations   MaxIter         ....   125
 SCF integral mode      SCFMode         .... Direct
   Integral package                     .... SHARK and LIBINT hybrid scheme
 Reset frequency        DirectResetFreq ....    20
 Integral Threshold     Thresh          ....  2.500e-11 Eh
 Primitive CutOff       TCut            ....  2.500e-12 Eh

Convergence Tolerance:
 Convergence Check Mode ConvCheckMode   .... Total+1el-Energy
 Convergence forced     ConvForced      .... 1
 Energy Change          TolE            ....  1.000e-08 Eh
 1-El. energy change                    ....  1.000e-05 Eh
 Orbital Gradient       TolG            ....  1.000e-05
 Orbital Rotation angle TolX            ....  1.000e-05
 DIIS Error             TolErr          ....  5.000e-07

------------------------------
INITIAL GUESS: MODEL POTENTIAL
------------------------------
Loading Hartree-Fock densities                     ... done
Calculating cut-offs                               ... done
Initializing the effective Hamiltonian             ... done
Setting up the integral package (SHARK)            ... done
Starting the Coulomb interaction                   ... done (   1.8 sec)
Making the grid                                    ... done (   0.6 sec)
Mapping shells                                     ... done
Starting the XC term evaluation                    ... done (   1.0 sec)
  promolecular density results
     # of electrons  =    173.997675708
     EX              =   -148.716356810
     EC              =     -5.920044363
     EX+EC           =   -154.636401173
Transforming the Hamiltonian                       ... done (   0.1 sec)
Diagonalizing the Hamiltonian                      ... done (   0.3 sec)
Back transforming the eigenvectors                 ... done (   0.1 sec)
Now organizing SCF variables                       ... done
                      ------------------
                      INITIAL GUESS DONE (   4.0 sec)
                      ------------------
             **** ENERGY FILE WAS UPDATED (tddft.en.tmp) ****
Finished Guess after   4.4 sec
Maximum memory used throughout the entire GUESS-calculation: 86.1 MB


           ************************************************************
           *        Program running with 4 parallel MPI-processes     *
           *              working on a common directory               *
           ************************************************************

-------------------------------------------------------------------------------------------
                                      ORCA LEAN-SCF
                              memory conserving SCF solver
-------------------------------------------------------------------------------------------

--------------------
CPCM SOLVATION MODEL
--------------------
CPCM parameters:
  Epsilon                                         ...       8.9990
  Refrac                                          ...       1.4242
  Rsolv                                           ...       1.3000
  Surface type                                    ... GAUSSIAN VDW
  Discretization scheme                           ... Constant charge density
    Threshold for H atoms                         ...       5.0000 (charges/Ang^2)
    Threshold for non-H atoms                     ...       5.0000 (charges/Ang^2)
  Epsilon function type                           ...         CPCM
Solvent:                                          ... DICHLOROMETHANE
Radii:
  Scheme                                          ... Element-dependent radii
  Radius for N  used is    3.5149 Bohr (=   1.8600 Ang.)
  Radius for C  used is    3.8550 Bohr (=   2.0400 Ang.)
  Radius for H  used is    2.4944 Bohr (=   1.3200 Ang.)
  Radius for Mg used is    3.9231 Bohr (=   2.0760 Ang.)
Calculating surface                               ...        done! (  0.0s)
Cavity surface points                             ...         3503
Cavity Volume                                     ...    2512.0151
Cavity Surface-area                               ...    1198.2147
Calculating surface distance matrix               ...        done! (  0.3s)
Performing Cholesky decomposition & store         ...        done! (  0.5s)
Overall time for CPCM initialization              ...                 0.8s

----------------------------------------D-I-I-S--------------------------------------------
Iteration    Energy (Eh)           Delta-E    RMSDP     MaxDP     DIISErr   Damp  Time(sec)
-------------------------------------------------------------------------------------------
               ***  Starting incremental Fock matrix formation  ***
    1    -1188.3748074749414627     0.00e+00  1.67e-03  4.16e-02  2.27e-01  0.700  91.1
    2    -1188.6091162345364864    -2.34e-01  1.28e-03  2.70e-02  1.10e-01  0.700  44.4
                               ***Turning on AO-DIIS***
    3    -1188.7149470243166434    -1.06e-01  6.59e-04  1.49e-02  4.20e-02  0.700  42.8
    4    -1188.7767804529285058    -6.18e-02  1.31e-03  2.96e-02  2.52e-02  0.000  40.8
    5    -1188.9082639449320595    -1.31e-01  1.92e-04  4.66e-03  5.89e-03  0.000  43.0
                              *** Initializing SOSCF ***
---------------------------------------S-O-S-C-F--------------------------------------
Iteration    Energy (Eh)           Delta-E    RMSDP     MaxDP     MaxGrad    Time(sec)
--------------------------------------------------------------------------------------
    6    -1188.9088689032873845    -6.05e-04  7.82e-05  1.37e-03  2.15e-03    37.2
               *** Restarting incremental Fock matrix formation ***
    7    -1188.9089203109037953    -5.14e-05  6.99e-05  1.42e-03  2.79e-04   123.5
    8    -1188.9089257199439089    -5.41e-06  3.31e-05  6.58e-04  1.27e-04    64.1
    9    -1188.9089265895117933    -8.70e-07  2.31e-05  4.57e-04  1.03e-04    87.0
   10    -1188.9089275172041198    -9.28e-07  7.58e-06  2.47e-04  2.53e-05    56.4
   11    -1188.9089275487904160    -3.16e-08  5.14e-06  1.70e-04  2.77e-05    48.2
   12    -1188.9089276119602800    -6.32e-08  6.91e-06  2.77e-04  1.07e-05    71.6
   13    -1188.9089276043910104     7.57e-09  4.64e-06  2.29e-04  1.07e-05    43.2
                 **** Energy Check signals convergence ****

               *****************************************************
               *                     SUCCESS                       *
               *           SCF CONVERGED AFTER  13 CYCLES          *
               *****************************************************

Recomputing exchange energy using gridx3       ... done (  169.854 sec)
Old exchange energy                            :    -37.863808618 Eh
New exchange energy                            :    -37.863795287 Eh
Exchange energy change after final integration :      0.000013332 Eh
Total energy after final integration           :  -1188.908914295 Eh
             **** ENERGY FILE WAS UPDATED (tddft.en.tmp) ****

----------------
TOTAL SCF ENERGY
----------------

Total Energy       :      -1188.90891429526346 Eh          -32351.85629 eV

Components:
Nuclear Repulsion  :       2155.85769295584805 Eh           58663.87024 eV
Electronic Energy  :      -3344.75065017732504 Eh          -91015.29232 eV
One Electron Energy:      -5909.06042399590933 Eh         -160793.70873 eV
Two Electron Energy:       2564.30977381858429 Eh           69778.41641 eV
CPCM Dielectric    :         -0.01597040541864 Eh              -0.43458 eV

Virial components:
Potential Energy   :      -2372.38529611874037 Eh          -64555.88587 eV
Kinetic Energy     :       1183.47638182347691 Eh           32204.02957 eV
Virial Ratio       :          2.00459031760601

DFT components:
N(Alpha)           :       86.999986955827 electrons
N(Beta)            :       86.999986955827 electrons
N(Total)           :      173.999973911654 electrons
E(X)               :     -113.298925532872 Eh       
E(C)               :       -5.929823201289 Eh       
E(XC)              :     -119.228748734161 Eh       

CPCM Solvation Model Properties:
Surface-charge          :         -0.03711729957762
Corrected charge        :         -0.00000000000000
Outlying charge corr.   :          0.00006543587031 Eh               0.00178 eV
Free-energy (cav+disp)  :  This term is not implemented in the current solvation scheme

---------------
SCF CONVERGENCE
---------------

  Last Energy change         ...   -7.5693e-09  Tolerance :   1.0000e-08
  Last MAX-Density change    ...    2.2857e-04  Tolerance :   1.0000e-07
  Last RMS-Density change    ...    4.6434e-06  Tolerance :   5.0000e-09
  Last DIIS Error            ...    2.1511e-03  Tolerance :   5.0000e-07
  Last Orbital Gradient      ...    1.0740e-05  Tolerance :   1.0000e-05
  Last Orbital Rotation      ...    2.8432e-05  Tolerance :   1.0000e-05


----------------
ORBITAL ENERGIES
----------------

  NO   OCC          E(Eh)            E(eV) 
   0   2.0000     -46.871478     -1275.4378 
   1   2.0000     -14.394124      -391.6840 
   2   2.0000     -14.372509      -391.0959 
   3   2.0000     -14.371811      -391.0769 
   4   2.0000     -14.371806      -391.0767 
   5   2.0000     -10.270629      -279.4780 
   6   2.0000     -10.270601      -279.4773 
   7   2.0000     -10.261825      -279.2384 
   8   2.0000     -10.261817      -279.2382 
   9   2.0000     -10.254881      -279.0495 
  10   2.0000     -10.254873      -279.0493 
  11   2.0000     -10.253794      -279.0199 
  12   2.0000     -10.253763      -279.0191 
  13   2.0000     -10.234261      -278.4884 
  14   2.0000     -10.234252      -278.4882 
  15   2.0000     -10.226952      -278.2895 
  16   2.0000     -10.226713      -278.2830 
  17   2.0000     -10.224910      -278.2339 
  18   2.0000     -10.224908      -278.2339 
  19   2.0000     -10.220944      -278.1260 
  20   2.0000     -10.220936      -278.1258 
  21   2.0000     -10.220021      -278.1009 
  22   2.0000     -10.219281      -278.0808 
  23   2.0000     -10.218871      -278.0696 
  24   2.0000     -10.218862      -278.0694 
  25   2.0000      -3.094134       -84.1957 
  26   2.0000      -1.820892       -49.5490 
  27   2.0000      -1.815515       -49.4027 
  28   2.0000      -1.815114       -49.3918 
  29   2.0000      -0.991569       -26.9820 
  30   2.0000      -0.982944       -26.7473 
  31   2.0000      -0.981669       -26.7126 
  32   2.0000      -0.972566       -26.4649 
  33   2.0000      -0.839800       -22.8521 
  34   2.0000      -0.814121       -22.1534 
  35   2.0000      -0.810819       -22.0635 
  36   2.0000      -0.795617       -21.6498 
  37   2.0000      -0.789224       -21.4759 
  38   2.0000      -0.787200       -21.4208 
  39   2.0000      -0.782272       -21.2867 
  40   2.0000      -0.759269       -20.6608 
  41   2.0000      -0.739579       -20.1250 
  42   2.0000      -0.678372       -18.4594 
  43   2.0000      -0.673463       -18.3259 
  44   2.0000      -0.629267       -17.1232 
  45   2.0000      -0.598705       -16.2916 
  46   2.0000      -0.591719       -16.1015 
  47   2.0000      -0.586915       -15.9708 
  48   2.0000      -0.586024       -15.9465 
  49   2.0000      -0.568173       -15.4608 
  50   2.0000      -0.552158       -15.0250 
  51   2.0000      -0.537827       -14.6350 
  52   2.0000      -0.531166       -14.4538 
  53   2.0000      -0.518053       -14.0969 
  54   2.0000      -0.514817       -14.0089 
  55   2.0000      -0.505787       -13.7632 
  56   2.0000      -0.490057       -13.3351 
  57   2.0000      -0.454521       -12.3681 
  58   2.0000      -0.452047       -12.3008 
  59   2.0000      -0.441658       -12.0181 
  60   2.0000      -0.433708       -11.8018 
  61   2.0000      -0.432002       -11.7554 
  62   2.0000      -0.430041       -11.7020 
  63   2.0000      -0.419496       -11.4151 
  64   2.0000      -0.419253       -11.4085 
  65   2.0000      -0.417401       -11.3581 
  66   2.0000      -0.400576       -10.9002 
  67   2.0000      -0.397709       -10.8222 
  68   2.0000      -0.389341       -10.5945 
  69   2.0000      -0.386834       -10.5263 
  70   2.0000      -0.382730       -10.4146 
  71   2.0000      -0.380522       -10.3545 
  72   2.0000      -0.378847       -10.3089 
  73   2.0000      -0.375813       -10.2264 
  74   2.0000      -0.371669       -10.1136 
  75   2.0000      -0.368531       -10.0282 
  76   2.0000      -0.332058        -9.0357 
  77   2.0000      -0.327563        -8.9134 
  78   2.0000      -0.325551        -8.8587 
  79   2.0000      -0.298342        -8.1183 
  80   2.0000      -0.292790        -7.9672 
  81   2.0000      -0.283025        -7.7015 
  82   2.0000      -0.270754        -7.3676 
  83   2.0000      -0.261253        -7.1091 
  84   2.0000      -0.259076        -7.0498 
  85   2.0000      -0.208280        -5.6676 
  86   2.0000      -0.195011        -5.3065 
  87   0.0000      -0.090741        -2.4692 
  88   0.0000      -0.068300        -1.8585 
  89   0.0000       0.001574         0.0428 
  90   0.0000       0.014603         0.3974 
  91   0.0000       0.027218         0.7406 
  92   0.0000       0.042837         1.1656 
  93   0.0000       0.053886         1.4663 
  94   0.0000       0.055040         1.4977 
  95   0.0000       0.068221         1.8564 
  96   0.0000       0.069517         1.8916 
  97   0.0000       0.075431         2.0526 
*Only the first 10 virtual orbitals were printed.

                    ********************************
                    * MULLIKEN POPULATION ANALYSIS *
                    ********************************

-----------------------
MULLIKEN ATOMIC CHARGES
-----------------------
   0 N :   -0.312472
   1 N :   -0.340727
   2 N :   -0.340641
   3 N :   -0.334289
   4 C :   -0.159593
   5 C :   -0.159330
   6 C :    0.207085
   7 C :    0.207314
   8 C :   -0.509351
   9 C :   -0.509141
  10 C :    0.349397
  11 C :    0.348831
  12 C :    0.322663
  13 C :    0.322979
  14 C :   -0.253651
  15 C :   -0.253477
  16 C :   -0.248340
  17 C :   -0.248513
  18 C :   -0.474173
  19 C :   -0.474404
  20 C :    0.324775
  21 C :    0.324704
  22 C :   -0.255781
  23 C :   -0.255591
  24 H :    0.126364
  25 H :    0.136192
  26 H :    0.126364
  27 H :    0.136219
  28 H :    0.147011
  29 H :    0.147049
  30 H :    0.149519
  31 H :    0.149488
  32 H :    0.150940
  33 H :    0.150943
  34 H :    0.152303
  35 H :    0.152280
  36 H :    0.148592
  37 H :    0.148584
  38 Mg:    0.699876
Sum of atomic charges:    0.0000000

--------------------------------
MULLIKEN REDUCED ORBITAL CHARGES
--------------------------------
  0 N s       :     3.653340  s :     3.653340
      pz      :     1.289651  p :     3.593996
      px      :     1.178999
      py      :     1.125346
      dz2     :     0.004320  d :     0.061547
      dxz     :     0.009367
      dyz     :     0.011150
      dx2y2   :     0.019032
      dxy     :     0.017679
      f0      :     0.000650  f :     0.003589
      f+1     :     0.000308
      f-1     :     0.000337
      f+2     :     0.000493
      f-2     :     0.000112
      f+3     :     0.000957
      f-3     :     0.000731

  1 N s       :     3.646041  s :     3.646041
      pz      :     1.372389  p :     3.631404
      px      :     1.109468
      py      :     1.149547
      dz2     :     0.004464  d :     0.059654
      dxz     :     0.010490
      dyz     :     0.009374
      dx2y2   :     0.018265
      dxy     :     0.017061
      f0      :     0.000659  f :     0.003628
      f+1     :     0.000383
      f-1     :     0.000347
      f+2     :     0.000581
      f-2     :     0.000092
      f+3     :     0.000712
      f-3     :     0.000854

  2 N s       :     3.646006  s :     3.646006
      pz      :     1.372388  p :     3.631355
      px      :     1.104491
      py      :     1.154476
      dz2     :     0.004465  d :     0.059651
      dxz     :     0.011048
      dyz     :     0.008815
      dx2y2   :     0.017964
      dxy     :     0.017359
      f0      :     0.000659  f :     0.003628
      f+1     :     0.000369
      f-1     :     0.000361
      f+2     :     0.000572
      f-2     :     0.000101
      f+3     :     0.000666
      f-3     :     0.000900

  3 N s       :     3.647476  s :     3.647476
      pz      :     1.351236  p :     3.622105
      px      :     1.158041
      py      :     1.112828
      dz2     :     0.004475  d :     0.061050
      dxz     :     0.009598
      dyz     :     0.011456
      dx2y2   :     0.018304
      dxy     :     0.017216
      f0      :     0.000654  f :     0.003658
      f+1     :     0.000348
      f-1     :     0.000369
      f+2     :     0.000623
      f-2     :     0.000096
      f+3     :     0.000878
      f-3     :     0.000690

  4 C s       :     3.099524  s :     3.099524
      pz      :     1.061658  p :     2.969381
      px      :     0.898216
      py      :     1.009508
      dz2     :     0.005580  d :     0.084936
      dxz     :     0.017452
      dyz     :     0.018664
      dx2y2   :     0.025030
      dxy     :     0.018210
      f0      :     0.000643  f :     0.005751
      f+1     :     0.000199
      f-1     :     0.001068
      f+2     :     0.000390
      f-2     :     0.000787
      f+3     :     0.001321
      f-3     :     0.001342

  5 C s       :     3.099541  s :     3.099541
      pz      :     1.061688  p :     2.969137
      px      :     1.004529
      py      :     0.902920
      dz2     :     0.005602  d :     0.084902
      dxz     :     0.018060
      dyz     :     0.018008
      dx2y2   :     0.024659
      dxy     :     0.018573
      f0      :     0.000646  f :     0.005750
      f+1     :     0.001090
      f-1     :     0.000175
      f+2     :     0.000340
      f-2     :     0.000837
      f+3     :     0.001079
      f-3     :     0.001584

  6 C s       :     3.146253  s :     3.146253
      pz      :     0.872150  p :     2.464873
      px      :     0.878879
      py      :     0.713844
      dz2     :     0.003122  d :     0.167758
      dxz     :     0.028828
      dyz     :     0.038470
      dx2y2   :     0.044767
      dxy     :     0.052571
      f0      :     0.001967  f :     0.014031
      f+1     :     0.000724
      f-1     :     0.001062
      f+2     :     0.001710
      f-2     :     0.001172
      f+3     :     0.005177
      f-3     :     0.002220

  7 C s       :     3.146312  s :     3.146312
      pz      :     0.872156  p :     2.464616
      px      :     0.738251
      py      :     0.854209
      dz2     :     0.003145  d :     0.167728
      dxz     :     0.034167
      dyz     :     0.033108
      dx2y2   :     0.045568
      dxy     :     0.051739
      f0      :     0.001966  f :     0.014031
      f+1     :     0.001058
      f-1     :     0.000729
      f+2     :     0.001473
      f-2     :     0.001409
      f+3     :     0.003456
      f-3     :     0.003940

  8 C s       :     3.404785  s :     3.404785
      pz      :     1.090867  p :     3.025098
      px      :     0.947733
      py      :     0.986498
      dz2     :     0.002528  d :     0.072184
      dxz     :     0.024180
      dyz     :     0.003738
      dx2y2   :     0.032170
      dxy     :     0.009568
      f0      :     0.001498  f :     0.007285
      f+1     :     0.000692
      f-1     :     0.000687
      f+2     :     0.000418
      f-2     :     0.000774
      f+3     :     0.002085
      f-3     :     0.001130

  9 C s       :     3.404601  s :     3.404601
      pz      :     1.090805  p :     3.025060
      px      :     0.981142
      py      :     0.953113
      dz2     :     0.002531  d :     0.072195
      dxz     :     0.003749
      dyz     :     0.024172
      dx2y2   :     0.032486
      dxy     :     0.009257
      f0      :     0.001498  f :     0.007285
      f+1     :     0.000692
      f-1     :     0.000688
      f+2     :     0.000435
      f-2     :     0.000757
      f+3     :     0.001229
      f-3     :     0.001986

 10 C s       :     3.098991  s :     3.098991
      pz      :     0.886004  p :     2.365066
      px      :     0.768565
      py      :     0.710497
      dz2     :     0.003701  d :     0.171970
      dxz     :     0.034982
      dyz     :     0.037737
      dx2y2   :     0.044121
      dxy     :     0.051428
      f0      :     0.002140  f :     0.014576
      f+1     :     0.000819
      f-1     :     0.001063
      f+2     :     0.001934
      f-2     :     0.001141
      f+3     :     0.004286
      f-3     :     0.003194

 11 C s       :     3.099339  s :     3.099339
      pz      :     0.886024  p :     2.365316
      px      :     0.700213
      py      :     0.779078
      dz2     :     0.003706  d :     0.171941
      dxz     :     0.040069
      dyz     :     0.032624
      dx2y2   :     0.042759
      dxy     :     0.052782
      f0      :     0.002139  f :     0.014573
      f+1     :     0.001101
      f-1     :     0.000782
      f+2     :     0.002367
      f-2     :     0.000708
      f+3     :     0.002218
      f-3     :     0.005260

 12 C s       :     3.085467  s :     3.085467
      pz      :     0.942088  p :     2.411387
      px      :     0.692526
      py      :     0.776773
      dz2     :     0.004482  d :     0.166192
      dxz     :     0.038314
      dyz     :     0.029579
      dx2y2   :     0.042950
      dxy     :     0.050867
      f0      :     0.002144  f :     0.014291
      f+1     :     0.001106
      f-1     :     0.000781
      f+2     :     0.002272
      f-2     :     0.000603
      f+3     :     0.002204
      f-3     :     0.005180

 13 C s       :     3.085243  s :     3.085243
      pz      :     0.942082  p :     2.411273
      px      :     0.762547
      py      :     0.706644
      dz2     :     0.004485  d :     0.166212
      dxz     :     0.031422
      dyz     :     0.036481
      dx2y2   :     0.043678
      dxy     :     0.050146
      f0      :     0.002144  f :     0.014292
      f+1     :     0.000813
      f-1     :     0.001074
      f+2     :     0.001790
      f-2     :     0.001086
      f+3     :     0.004255
      f-3     :     0.003130

 14 C s       :     3.279701  s :     3.279701
      pz      :     1.016976  p :     2.880299
      px      :     0.934381
      py      :     0.928942
      dz2     :     0.005064  d :     0.085984
      dxz     :     0.020525
      dyz     :     0.007944
      dx2y2   :     0.032497
      dxy     :     0.019954
      f0      :     0.001494  f :     0.007666
      f+1     :     0.000519
      f-1     :     0.000831
      f+2     :     0.000077
      f-2     :     0.001230
      f+3     :     0.002241
      f-3     :     0.001272

 15 C s       :     3.279790  s :     3.279790
      pz      :     1.016883  p :     2.880037
      px      :     0.935889
      py      :     0.927265
      dz2     :     0.005066  d :     0.085984
      dxz     :     0.009350
      dyz     :     0.019122
      dx2y2   :     0.033020
      dxy     :     0.019427
      f0      :     0.001494  f :     0.007666
      f+1     :     0.000795
      f-1     :     0.000556
      f+2     :     0.000379
      f-2     :     0.000929
      f+3     :     0.001896
      f-3     :     0.001617

 16 C s       :     3.289638  s :     3.289638
      pz      :     0.984897  p :     2.862865
      px      :     0.943944
      py      :     0.934024
      dz2     :     0.004858  d :     0.088137
      dxz     :     0.009734
      dyz     :     0.022143
      dx2y2   :     0.032032
      dxy     :     0.019369
      f0      :     0.001473  f :     0.007700
      f+1     :     0.000778
      f-1     :     0.000542
      f+2     :     0.000467
      f-2     :     0.000937
      f+3     :     0.001912
      f-3     :     0.001592

 17 C s       :     3.289624  s :     3.289624
      pz      :     0.985015  p :     2.863053
      px      :     0.940160
      py      :     0.937878
      dz2     :     0.004862  d :     0.088135
      dxz     :     0.023984
      dyz     :     0.007892
      dx2y2   :     0.031585
      dxy     :     0.019812
      f0      :     0.001472  f :     0.007701
      f+1     :     0.000506
      f-1     :     0.000814
      f+2     :     0.000103
      f-2     :     0.001301
      f+3     :     0.002232
      f-3     :     0.001272

 18 C s       :     3.437767  s :     3.437767
      pz      :     0.989409  p :     2.946969
      px      :     0.994054
      py      :     0.963506
      dz2     :     0.002598  d :     0.082288
      dxz     :     0.003569
      dyz     :     0.031361
      dx2y2   :     0.034445
      dxy     :     0.010314
      f0      :     0.001405  f :     0.007149
      f+1     :     0.000637
      f-1     :     0.000631
      f+2     :     0.000427
      f-2     :     0.000811
      f+3     :     0.001173
      f-3     :     0.002065

 19 C s       :     3.437996  s :     3.437996
      pz      :     0.989401  p :     2.946974
      px      :     0.963793
      py      :     0.993780
      dz2     :     0.002599  d :     0.082285
      dxz     :     0.031333
      dyz     :     0.003601
      dx2y2   :     0.034048
      dxy     :     0.010705
      f0      :     0.001405  f :     0.007149
      f+1     :     0.000628
      f-1     :     0.000641
      f+2     :     0.000437
      f-2     :     0.000801
      f+3     :     0.002065
      f-3     :     0.001172

 20 C s       :     3.087007  s :     3.087007
      pz      :     0.940109  p :     2.407897
      px      :     0.712344
      py      :     0.755443
      dz2     :     0.004240  d :     0.165873
      dxz     :     0.036232
      dyz     :     0.031016
      dx2y2   :     0.043701
      dxy     :     0.050684
      f0      :     0.002159  f :     0.014449
      f+1     :     0.001073
      f-1     :     0.000838
      f+2     :     0.001803
      f-2     :     0.001114
      f+3     :     0.003185
      f-3     :     0.004277

 21 C s       :     3.087104  s :     3.087104
      pz      :     0.940152  p :     2.407893
      px      :     0.769644
      py      :     0.698096
      dz2     :     0.004239  d :     0.165853
      dxz     :     0.029900
      dyz     :     0.037336
      dx2y2   :     0.042227
      dxy     :     0.052151
      f0      :     0.002158  f :     0.014447
      f+1     :     0.000798
      f-1     :     0.001113
      f+2     :     0.002292
      f-2     :     0.000624
      f+3     :     0.005253
      f-3     :     0.002208

 22 C s       :     3.282182  s :     3.282182
      pz      :     1.010508  p :     2.878653
      px      :     0.931187
      py      :     0.936959
      dz2     :     0.004969  d :     0.087197
      dxz     :     0.007780
      dyz     :     0.022971
      dx2y2   :     0.031881
      dxy     :     0.019596
      f0      :     0.001489  f :     0.007749
      f+1     :     0.000835
      f-1     :     0.000516
      f+2     :     0.000085
      f-2     :     0.001328
      f+3     :     0.001260
      f-3     :     0.002236

 23 C s       :     3.282241  s :     3.282241
      pz      :     1.010392  p :     2.878400
      px      :     0.930461
      py      :     0.937547
      dz2     :     0.004968  d :     0.087200
      dxz     :     0.021359
      dyz     :     0.009398
      dx2y2   :     0.032107
      dxy     :     0.019368
      f0      :     0.001489  f :     0.007749
      f+1     :     0.000549
      f-1     :     0.000802
      f+2     :     0.000431
      f-2     :     0.000982
      f+3     :     0.001625
      f-3     :     0.001870

 24 H s       :     0.851674  s :     0.851674
      pz      :     0.010728  p :     0.021962
      px      :     0.004439
      py      :     0.006796

 25 H s       :     0.841976  s :     0.841976
      pz      :     0.008626  p :     0.021832
      px      :     0.004418
      py      :     0.008788

 26 H s       :     0.851672  s :     0.851672
      pz      :     0.010749  p :     0.021964
      px      :     0.006940
      py      :     0.004274

 27 H s       :     0.841945  s :     0.841945
      pz      :     0.008609  p :     0.021835
      px      :     0.008925
      py      :     0.004301

 28 H s       :     0.830280  s :     0.830280
      pz      :     0.005668  p :     0.022709
      px      :     0.003565
      py      :     0.013476

 29 H s       :     0.830242  s :     0.830242
      pz      :     0.005668  p :     0.022709
      px      :     0.013428
      py      :     0.003613

 30 H s       :     0.828102  s :     0.828102
      pz      :     0.004953  p :     0.022379
      px      :     0.003634
      py      :     0.013792

 31 H s       :     0.828135  s :     0.828135
      pz      :     0.004953  p :     0.022377
      px      :     0.013264
      py      :     0.004160

 32 H s       :     0.826775  s :     0.826775
      pz      :     0.004746  p :     0.022285
      px      :     0.013320
      py      :     0.004219

 33 H s       :     0.826770  s :     0.826770
      pz      :     0.004747  p :     0.022287
      px      :     0.003672
      py      :     0.013868

 34 H s       :     0.825260  s :     0.825260
      pz      :     0.005034  p :     0.022437
      px      :     0.013759
      py      :     0.003645

 35 H s       :     0.825282  s :     0.825282
      pz      :     0.005034  p :     0.022438
      px      :     0.003625
      py      :     0.013778

 36 H s       :     0.829068  s :     0.829068
      pz      :     0.004928  p :     0.022340
      px      :     0.013754
      py      :     0.003657

 37 H s       :     0.829078  s :     0.829078
      pz      :     0.004928  p :     0.022338
      px      :     0.004189
      py      :     0.013222

 38 Mgs       :     4.567235  s :     4.567235
      pz      :     2.076867  p :     6.450021
      px      :     2.185242
      py      :     2.187913
      dz2     :     0.034930  d :     0.282868
      dxz     :     0.024688
      dyz     :     0.026148
      dx2y2   :     0.025454
      dxy     :     0.171648



                     *******************************
                     * LOEWDIN POPULATION ANALYSIS *
                     *******************************

----------------------
LOEWDIN ATOMIC CHARGES
----------------------
   0 N :    0.195514
   1 N :    0.167901
   2 N :    0.167886
   3 N :    0.176184
   4 C :   -0.192690
   5 C :   -0.192646
   6 C :   -0.190859
   7 C :   -0.190860
   8 C :   -0.133648
   9 C :   -0.133647
  10 C :   -0.205608
  11 C :   -0.205518
  12 C :   -0.214709
  13 C :   -0.214804
  14 C :   -0.126600
  15 C :   -0.126548
  16 C :   -0.115102
  17 C :   -0.115176
  18 C :   -0.081450
  19 C :   -0.081446
  20 C :   -0.218820
  21 C :   -0.218761
  22 C :   -0.128973
  23 C :   -0.128909
  24 H :    0.153900
  25 H :    0.151354
  26 H :    0.153896
  27 H :    0.151339
  28 H :    0.166259
  29 H :    0.166254
  30 H :    0.147136
  31 H :    0.147158
  32 H :    0.148907
  33 H :    0.148882
  34 H :    0.169686
  35 H :    0.169684
  36 H :    0.146856
  37 H :    0.146877
  38 Mg:    0.341103

-------------------------------
LOEWDIN REDUCED ORBITAL CHARGES
-------------------------------
  0 N s       :     2.979482  s :     2.979482
      pz      :     1.133566  p :     3.597102
      px      :     1.254794
      py      :     1.208742
      dz2     :     0.016466  d :     0.209630
      dxz     :     0.023624
      dyz     :     0.030514
      dx2y2   :     0.074235
      dxy     :     0.064791
      f0      :     0.001142  f :     0.018272
      f+1     :     0.001182
      f-1     :     0.001386
      f+2     :     0.003015
      f-2     :     0.000429
      f+3     :     0.006552
      f-3     :     0.004566

  1 N s       :     2.977081  s :     2.977081
      pz      :     1.204972  p :     3.634325
      px      :     1.185062
      py      :     1.244290
      dz2     :     0.016316  d :     0.202320
      dxz     :     0.030569
      dyz     :     0.024098
      dx2y2   :     0.070146
      dxy     :     0.061190
      f0      :     0.001136  f :     0.018373
      f+1     :     0.001342
      f-1     :     0.001233
      f+2     :     0.003488
      f-2     :     0.000303
      f+3     :     0.004725
      f-3     :     0.006146

  2 N s       :     2.977084  s :     2.977084
      pz      :     1.204990  p :     3.634342
      px      :     1.199471
      py      :     1.229882
      dz2     :     0.016320  d :     0.202316
      dxz     :     0.030410
      dyz     :     0.024260
      dx2y2   :     0.069149
      dxy     :     0.062177
      f0      :     0.001136  f :     0.018372
      f+1     :     0.001413
      f-1     :     0.001162
      f+2     :     0.003428
      f-2     :     0.000363
      f+3     :     0.004457
      f-3     :     0.006412

  3 N s       :     2.978331  s :     2.978331
      pz      :     1.188160  p :     3.621658
      px      :     1.239146
      py      :     1.194352
      dz2     :     0.016323  d :     0.205234
      dxz     :     0.025456
      dyz     :     0.032442
      dx2y2   :     0.069487
      dxy     :     0.061526
      f0      :     0.001114  f :     0.018593
      f+1     :     0.001186
      f-1     :     0.001363
      f+2     :     0.003718
      f-2     :     0.000321
      f+3     :     0.006291
      f-3     :     0.004600

  4 C s       :     2.766492  s :     2.766492
      pz      :     1.037376  p :     3.023501
      px      :     0.982727
      py      :     1.003399
      dz2     :     0.041808  d :     0.362736
      dxz     :     0.049213
      dyz     :     0.093498
      dx2y2   :     0.092608
      dxy     :     0.085608
      f0      :     0.004009  f :     0.039961
      f+1     :     0.003223
      f-1     :     0.004152
      f+2     :     0.004339
      f-2     :     0.005270
      f+3     :     0.009164
      f-3     :     0.009804

  5 C s       :     2.766504  s :     2.766504
      pz      :     1.037369  p :     3.023514
      px      :     1.001811
      py      :     0.984334
      dz2     :     0.041946  d :     0.362671
      dxz     :     0.092761
      dyz     :     0.049760
      dx2y2   :     0.087751
      dxy     :     0.090453
      f0      :     0.004021  f :     0.039958
      f+1     :     0.004168
      f-1     :     0.003190
      f+2     :     0.004299
      f-2     :     0.005320
      f+3     :     0.007528
      f-3     :     0.011432

  6 C s       :     2.713571  s :     2.713571
      pz      :     0.805288  p :     2.760655
      px      :     1.013427
      py      :     0.941940
      dz2     :     0.042378  d :     0.639265
      dxz     :     0.086804
      dyz     :     0.112223
      dx2y2   :     0.195841
      dxy     :     0.202018
      f0      :     0.005166  f :     0.077368
      f+1     :     0.004093
      f-1     :     0.006275
      f+2     :     0.011160
      f-2     :     0.006680
      f+3     :     0.030718
      f-3     :     0.013274

  7 C s       :     2.713584  s :     2.713584
      pz      :     0.805340  p :     2.760662
      px      :     0.935999
      py      :     1.019323
      dz2     :     0.042416  d :     0.639246
      dxz     :     0.100842
      dyz     :     0.098150
      dx2y2   :     0.193541
      dxy     :     0.204297
      f0      :     0.005166  f :     0.077367
      f+1     :     0.005951
      f-1     :     0.004424
      f+2     :     0.010141
      f-2     :     0.007698
      f+3     :     0.020597
      f-3     :     0.023391

  8 C s       :     2.747233  s :     2.747233
      pz      :     0.963261  p :     2.981679
      px      :     1.027493
      py      :     0.990924
      dz2     :     0.025023  d :     0.364940
      dxz     :     0.074929
      dyz     :     0.011599
      dx2y2   :     0.155887
      dxy     :     0.097502
      f0      :     0.003200  f :     0.039796
      f+1     :     0.004707
      f-1     :     0.003006
      f+2     :     0.002061
      f-2     :     0.005595
      f+3     :     0.012409
      f-3     :     0.008818

  9 C s       :     2.747247  s :     2.747247
      pz      :     0.963250  p :     2.981671
      px      :     0.988302
      py      :     1.030119
      dz2     :     0.025025  d :     0.364935
      dxz     :     0.011903
      dyz     :     0.074644
      dx2y2   :     0.152847
      dxy     :     0.100515
      f0      :     0.003200  f :     0.039794
      f+1     :     0.002985
      f-1     :     0.004727
      f+2     :     0.002138
      f-2     :     0.005520
      f+3     :     0.008943
      f-3     :     0.012281

 10 C s       :     2.698647  s :     2.698647
      pz      :     0.817143  p :     2.768632
      px      :     1.007711
      py      :     0.943777
      dz2     :     0.043553  d :     0.657288
      dxz     :     0.094799
      dyz     :     0.117690
      dx2y2   :     0.198372
      dxy     :     0.202873
      f0      :     0.004894  f :     0.081042
      f+1     :     0.004572
      f-1     :     0.006010
      f+2     :     0.012590
      f-2     :     0.007760
      f+3     :     0.026373
      f-3     :     0.018843

 11 C s       :     2.698667  s :     2.698667
      pz      :     0.817192  p :     2.768628
      px      :     0.943195
      py      :     1.008241
      dz2     :     0.043563  d :     0.657197
      dxz     :     0.123032
      dyz     :     0.089420
      dx2y2   :     0.194412
      dxy     :     0.206772
      f0      :     0.004893  f :     0.081026
      f+1     :     0.006269
      f-1     :     0.004314
      f+2     :     0.014962
      f-2     :     0.005384
      f+3     :     0.013441
      f-3     :     0.031762

 12 C s       :     2.696006  s :     2.696006
      pz      :     0.860077  p :     2.799642
      px      :     0.926308
      py      :     1.013258
      dz2     :     0.043457  d :     0.640179
      dxz     :     0.117718
      dyz     :     0.080863
      dx2y2   :     0.198529
      dxy     :     0.199612
      f0      :     0.004902  f :     0.078881
      f+1     :     0.006207
      f-1     :     0.004499
      f+2     :     0.014082
      f-2     :     0.004561
      f+3     :     0.013667
      f-3     :     0.030963

 13 C s       :     2.695991  s :     2.695991
      pz      :     0.860074  p :     2.799674
      px      :     1.013812
      py      :     0.925788
[...]
  0-1A  ->  1-1A    2.272161   18326.2   545.7   0.227469706   0.02849   0.10677  -0.13073   0.00064
  0-1A  ->  2-1A    2.494793   20121.9   497.0   0.009946713   0.00137  -0.02866  -0.02338  -0.00007
  0-1A  ->  3-1A    3.319959   26777.3   373.5   1.298672685   0.23767   0.37756   0.30842   0.00091
  0-1A  ->  4-1A    3.396129   27391.6   365.1   0.898861093   0.16827   0.25959  -0.31762   0.00005
  0-1A  ->  5-1A    3.735182   30126.3   331.9   0.023672552   0.00487   0.04420  -0.05404  -0.00063
  0-1A  ->  6-1A    3.774793   30445.8   328.5   0.015777067   0.00328  -0.04435  -0.03628  -0.00011
  0-1A  ->  7-1A    4.094517   33024.5   302.8   0.143274594   0.03234   0.13930   0.11372   0.00034
  0-1A  ->  8-1A    4.296124   34650.6   288.6   0.022788661   0.00540  -0.04647   0.05689   0.00002
  0-1A  ->  9-1A    4.519243   36450.2   274.3   0.109298892   0.02723   0.10437  -0.12779  -0.00251
  0-1A  -> 10-1A    4.532671   36558.5   273.5   0.000157732   0.00004   0.00498   0.00382   0.00002
  0-1A  -> 11-1A    4.540837   36624.3   273.0   0.017106922   0.00428  -0.04139   0.05068   0.00023
  0-1A  -> 12-1A    4.694282   37861.9   264.1   0.048566680   0.01257  -0.08683  -0.07091  -0.00019
  0-1A  -> 13-1A    4.752258   38329.5   260.9   0.118704485   0.03110   0.11141  -0.13669   0.00052
  0-1A  -> 14-1A    4.816383   38846.8   257.4   0.003219364   0.00085   0.02265   0.01849   0.00007
  0-1A  -> 15-1A    4.847510   39097.8   255.8   0.022698610   0.00607  -0.06040  -0.04916  -0.00015
  0-1A  -> 16-1A    4.982748   40188.6   248.8   0.198265042   0.05446   0.14755  -0.18079   0.00016
  0-1A  -> 17-1A    5.089650   41050.8   243.6   0.000031811   0.00001  -0.00237  -0.00182  -0.00002
  0-1A  -> 18-1A    5.094077   41086.5   243.4   0.004493849   0.00126   0.02215  -0.02718   0.00569
  0-1A  -> 19-1A    5.227033   42158.9   237.2   0.000285010   0.00008   0.00707   0.00567  -0.00001
  0-1A  -> 20-1A    5.280290   42588.4   234.8   0.084355014   0.02455   0.09893  -0.12130  -0.00728
  0-1A  -> 21-1A    5.303642   42776.8   233.8   0.001037194   0.00030   0.00506  -0.00625   0.01545
  0-1A  -> 22-1A    5.377414   43371.8   230.6   0.000055050   0.00002  -0.00310  -0.00259   0.00000
  0-1A  -> 23-1A    5.463226   44063.9   226.9   0.002220285   0.00067  -0.01613   0.01978  -0.00413
  0-1A  -> 24-1A    5.569689   44922.6   222.6   0.001427662   0.00044  -0.01629  -0.01316  -0.00001
  0-1A  -> 25-1A    5.660172   45652.4   219.0   0.010666436   0.00333  -0.03638   0.04462   0.00368
  0-1A  -> 26-1A    5.861499   47276.2   211.5   0.000039505   0.00001  -0.00278  -0.00225  -0.00000
  0-1A  -> 27-1A    5.869783   47343.0   211.2   0.000057652   0.00002   0.00276  -0.00331   0.00031
  0-1A  -> 28-1A    5.893991   47538.3   210.4   0.005912040   0.00192  -0.03399  -0.02767  -0.00005
  0-1A  -> 29-1A    5.951515   48002.2   208.3   0.001181548   0.00039  -0.00074   0.00099  -0.01965
  0-1A  -> 30-1A    5.993032   48337.1   206.9   0.000222140   0.00007  -0.00665  -0.00541   0.00004

------------------------------------------------------------------------------------------
                     CD SPECTRUM VIA TRANSITION ELECTRIC DIPOLE MOMENTS    
------------------------------------------------------------------------------------------
     Transition      Energy     Energy  Wavelength    R        MX        MY        MZ   
                      (eV)      (cm-1)    (nm)   (1e40*cgs)   (au)      (au)      (au)  
------------------------------------------------------------------------------------------
  0-1A  ->  1-1A    2.272161   18326.2   545.7    2.09387  -0.00191  -0.00037   0.90836
  0-1A  ->  2-1A    2.494793   20121.9   497.0   -0.29073   0.00120   0.00096   0.00033
  0-1A  ->  3-1A    3.319959   26777.3   373.5  -19.32089  -0.00798  -0.00636  -0.00015
  0-1A  ->  4-1A    3.396129   27391.6   365.1   -1.01996  -0.00039   0.00053  -0.03090
  0-1A  ->  5-1A    3.735182   30126.3   331.9   -0.20070   0.00171  -0.00384   0.55519
  0-1A  ->  6-1A    3.774793   30445.8   328.5   -0.81278   0.00329   0.00266   0.00067
  0-1A  ->  7-1A    4.094517   33024.5   302.8   -3.27368  -0.00450  -0.00366  -0.00004
  0-1A  ->  8-1A    4.296124   34650.6   288.6    0.54307  -0.00085   0.00266  -0.54475
  0-1A  ->  9-1A    4.519243   36450.2   274.3   53.81660   0.06767  -0.08123  -0.59223
  0-1A  -> 10-1A    4.532671   36558.5   273.5   -0.01005  -0.00036  -0.00045  -0.00070
  0-1A  -> 11-1A    4.540837   36624.3   273.0  -44.09531   0.15000  -0.18458   0.25090
  0-1A  -> 12-1A    4.694282   37861.9   264.1    0.35013  -0.00085  -0.00077  -0.00019
  0-1A  -> 13-1A    4.752258   38329.5   260.9    1.54505   0.00167  -0.00235   0.12472
  0-1A  -> 14-1A    4.816383   38846.8   257.4   -2.70765  -0.02652  -0.02176  -0.00001
  0-1A  -> 15-1A    4.847510   39097.8   255.8    1.93938  -0.00721  -0.00590   0.00002
  0-1A  -> 16-1A    4.982748   40188.6   248.8    3.80813   0.00453  -0.00491  -0.23835
  0-1A  -> 17-1A    5.089650   41050.8   243.6   -1.44432   0.14907   0.12149   0.00042
  0-1A  -> 18-1A    5.094077   41086.5   243.4   -4.28128  -0.02686   0.03365  -0.03781
  0-1A  -> 19-1A    5.227033   42158.9   237.2   -0.29588  -0.01141  -0.00927  -0.00035
  0-1A  -> 20-1A    5.280290   42588.4   234.8   11.96695   0.00155   0.00005  -0.66337
  0-1A  -> 21-1A    5.303642   42776.8   233.8   -2.65692  -0.02274   0.02791  -0.05833
  0-1A  -> 22-1A    5.377414   43371.8   230.6   -0.69328   0.05602   0.04566   0.00011
  0-1A  -> 23-1A    5.463226   44063.9   226.9    1.95065  -0.00282   0.00395  -0.16573
  0-1A  -> 24-1A    5.569689   44922.6   222.6    0.14066  -0.00236  -0.00204   0.00037
  0-1A  -> 25-1A    5.660172   45652.4   219.0    1.31725  -0.00793   0.01000  -0.05203
  0-1A  -> 26-1A    5.861499   47276.2   211.5    0.29541  -0.02965  -0.02420  -0.00008
  0-1A  -> 27-1A    5.869783   47343.0   211.2   -0.03854   0.00140  -0.00160  -0.06924
  0-1A  -> 28-1A    5.893991   47538.3   210.4   -1.18275   0.00985   0.00791   0.00004
  0-1A  -> 29-1A    5.951515   48002.2   208.3    0.17716  -0.00404   0.00486  -0.00419
  0-1A  -> 30-1A    5.993032   48337.1   206.9    1.00866  -0.04373  -0.03613  -0.00019

------------------------------------------------------------------------------------------
                     CD SPECTRUM VIA TRANSITION VELOCITY DIPOLE MOMENTS    
------------------------------------------------------------------------------------------
     Transition      Energy     Energy  Wavelength    R        MX        MY        MZ   
                      (eV)      (cm-1)    (nm)   (1e40*cgs)   (au)      (au)      (au)  
------------------------------------------------------------------------------------------
  0-1A  ->  1-1A    2.272161   18326.2   545.7    2.41118  -0.00191  -0.00037   0.90836
  0-1A  ->  2-1A    2.494793   20121.9   497.0   -0.29338   0.00120   0.00096   0.00033
  0-1A  ->  3-1A    3.319959   26777.3   373.5  -19.22047  -0.00798  -0.00636  -0.00015
  0-1A  ->  4-1A    3.396129   27391.6   365.1   -1.02441  -0.00039   0.00053  -0.03090
  0-1A  ->  5-1A    3.735182   30126.3   331.9   -0.22402   0.00171  -0.00384   0.55519
  0-1A  ->  6-1A    3.774793   30445.8   328.5   -0.82353   0.00329   0.00266   0.00067
  0-1A  ->  7-1A    4.094517   33024.5   302.8   -3.26507  -0.00450  -0.00366  -0.00004
  0-1A  ->  8-1A    4.296124   34650.6   288.6    0.53124  -0.00085   0.00266  -0.54475
  0-1A  ->  9-1A    4.519243   36450.2   274.3   53.73303   0.06767  -0.08123  -0.59223
  0-1A  -> 10-1A    4.532671   36558.5   273.5   -0.01006  -0.00036  -0.00045  -0.00070
  0-1A  -> 11-1A    4.540837   36624.3   273.0  -43.81011   0.15000  -0.18458   0.25090
  0-1A  -> 12-1A    4.694282   37861.9   264.1    0.35248  -0.00085  -0.00077  -0.00019
  0-1A  -> 13-1A    4.752258   38329.5   260.9    1.54538   0.00167  -0.00235   0.12472
  0-1A  -> 14-1A    4.816383   38846.8   257.4   -2.67113  -0.02652  -0.02176  -0.00001
  0-1A  -> 15-1A    4.847510   39097.8   255.8    1.91990  -0.00721  -0.00590   0.00002
  0-1A  -> 16-1A    4.982748   40188.6   248.8    3.90669   0.00453  -0.00491  -0.23835
  0-1A  -> 17-1A    5.089650   41050.8   243.6   -1.44747   0.14907   0.12149   0.00042
  0-1A  -> 18-1A    5.094077   41086.5   243.4   -4.34349  -0.02686   0.03365  -0.03781
  0-1A  -> 19-1A    5.227033   42158.9   237.2   -0.32686  -0.01141  -0.00927  -0.00035
  0-1A  -> 20-1A    5.280290   42588.4   234.8   12.09712   0.00155   0.00005  -0.66337
  0-1A  -> 21-1A    5.303642   42776.8   233.8   -2.87960  -0.02274   0.02791  -0.05833
  0-1A  -> 22-1A    5.377414   43371.8   230.6   -0.69645   0.05602   0.04566   0.00011
  0-1A  -> 23-1A    5.463226   44063.9   226.9    1.89731  -0.00282   0.00395  -0.16573
  0-1A  -> 24-1A    5.569689   44922.6   222.6    0.15011  -0.00236  -0.00204   0.00037
  0-1A  -> 25-1A    5.660172   45652.4   219.0    1.23163  -0.00793   0.01000  -0.05203
  0-1A  -> 26-1A    5.861499   47276.2   211.5    0.29926  -0.02965  -0.02420  -0.00008
  0-1A  -> 27-1A    5.869783   47343.0   211.2   -0.02711   0.00140  -0.00160  -0.06924
  0-1A  -> 28-1A    5.893991   47538.3   210.4   -1.20495   0.00985   0.00791   0.00004
  0-1A  -> 29-1A    5.951515   48002.2   208.3    0.19416  -0.00404   0.00486  -0.00419
  0-1A  -> 30-1A    5.993032   48337.1   206.9    1.04020  -0.04373  -0.03613  -0.00019

Total run time:     6308.151 sec

           *** ORCA-CIS/TD-DFT FINISHED WITHOUT ERROR ***
-----------------------
CIS/TD-DFT TOTAL ENERGY
-----------------------

    E(SCF)  =  -1188.908914295 Eh
    DE(CIS) =      0.083500370 Eh (Root  1)
    ----------------------------- ---------
    E(tot)  =  -1188.825413925 Eh


Maximum memory used throughout the entire CIS-calculation: 2727.0 MB
=> NOW LEAVING ORCA_CIS

-------------------------   --------------------
FINAL SINGLE POINT ENERGY     -1188.825413925307
-------------------------   --------------------



           ************************************************************
           *        Program running with 4 parallel MPI-processes     *
           *              working on a common directory               *
           ************************************************************

------------------------------------------------------------------------------
                              ORCA PROPERTY CALCULATIONS
------------------------------------------------------------------------------

GBWName                                 ... tddft.gbw
Number of atoms                         ...     39
Number of basis functions               ...    860
Max core memory                         ...   3000 MB

Electric properties:
Dipole moment                           ... YES
Quadrupole moment                       ...  NO
Static polarizability (Dipole/Dipole)   ...  NO
Static polarizability (Dipole/Quad.)    ...  NO
Static polarizability (Quad./Quad.)     ...  NO
Static polarizability (Velocity)        ...  NO
Static hyperpolarizability              ...  NO

Atomic electric properties:
Dipole moment                           ...  NO
Quadrupole moment                       ...  NO
Static polarizability                   ...  NO

Choice of electric origin               ... Center of mass
Position of electric origin             ...     0.020726     0.037348     0.001110

General magnetic properties:
Magnetizability                         ...  NO

EPR properties:
g-Tensor (aka g-matrix)                 ...  NO
Zero-Field splitting spin-orbit         ...  NO
Zero-field splitting spin-spin          ...  NO
Hyperfine couplings                     ...  NO (   0 nuclei)
Quadrupole couplings                    ...  NO (   0 nuclei)
Contact density                         ...  NO (   0 nuclei)

NMR properties:
Chemical shifts                         ...  NO (   0 nuclei)
Spin-rotation constants                 ...  NO (   0 nuclei)
Spin-spin couplings                     ...  NO (   0 nuclei,    0 pairs)

Choice of magnetic origin               ... GIAO
Position of magnetic origin             ...     0.000000     0.000000     0.000000

Properties with geometric perturbations:
SCF Hessian                             ...  NO
IR spectrum                             ...  NO
VCD spectrum                            ...  NO
X-ray spectroscopy properties:
SCF XES/XAS/RIXS spectra                ...  NO

SCF SOC stabilization energy            ...  NO
Diagonal Born-Oppenheimer correction    ...  NO

-------------
DIPOLE MOMENT
-------------

Method             : SCF
Type of density    : Electron Density
Multiplicity       :   1
Irrep              :   0
Energy             : -1188.9089142952634575 Eh
Basis              : AO
                                X                 Y                 Z
Electronic contribution:     -5.230852789      -4.268973389      -0.010383478
Nuclear contribution   :      6.309094870       5.149182336       0.012909410
                        -----------------------------------------
Total Dipole Moment    :      1.078242081       0.880208947       0.002525932
                        -----------------------------------------
Magnitude (a.u.)       :      1.391898041
Magnitude (Debye)      :      3.537923656



--------------------
Rotational spectrum 
--------------------
 
Rotational constants in cm-1:             0.008906             0.008560             0.004372 
Rotational constants in MHz :           266.993354           256.633129           131.080005 

Dipole components along the rotational axes: 
x,y,z [a.u.] :     1.391898    -0.000690    -0.000049 
x,y,z [Debye]:     3.537923    -0.001754    -0.000124 

 

Dipole moment calculation done in   0.1 sec 

Maximum memory used throughout the entire PROP-calculation: 88.5 MB

--------------------------------
SUGGESTED CITATIONS FOR THIS RUN
--------------------------------

Below you find a list of papers that are relevant to this ORCA run
We neither can nor want to force you to cite these papers, but we appreciate if you do
You receive ORCA, which is the product of decades of hard work by many enthusiastic individuals, for free
The only thing we kindly ask in return is that you cite our papers,
We deeply appreciate it, if you show your appreciation for ORCA by not just citing the generic ORCA reference.

Please note that relegating all ORCA citations to the supporting information does *not* help us.
SI sections are not indexed - citations you put there will not count into any citation statistics
But we need these citations in order to attract the funding resources that allow us to do what we are doing

Therefore, if you are a happy ORCA user, please consider citing a few of the papers listed below in the main body of your paper

In addition to the list printed below, the program has created the file tddft.bibtex that contains the list in bibtex format
You can import this file easily into all common literature databanks and citation aid programs

It goes without saying that in many instances, there are alternative algorithms to achieve similar
results as the ones you have gotten from ORCA. It is, of course, also the case that in some instances
ORCA just re-implements algorithms worked out by others. We are fully aware of that and we are also
fully appreciative of our colleagues work. Hence this citation list should not be read as indicating
that the listed papers, which are focused on our own work, are the only ones worth citing. It simply
meant to make it easier for users to cite ORCA specific papers. It is not a substitute for doing your
own literature research and citing the relevant literature in a scientifically appropriate manner.

List of essential papers. We consider these as the minimum necessary citations

  1. Neese, F.
     Software update: the ORCA program system, version 6.0
     WIRES Comput. Molec. Sci. 2025 15(1), e70019
     doi.org/10.1002/wcms.70019

List of papers to cite with high priority. The work reported in these papers was absolutely
necessary for this run to complete.
Our perspective: the developers of density functionals and basis sets usually get cited in chemistry papers
Good! But without the algorithms to do something with them, the functionals or basis sets would not do anything.
Hence, in our opinion, the algorithm design and method developments papers are equally worthy of getting cited

  1. Neese, F.; Olbrich, G.
     Efficient use of the resolution of the identity approximation in time-dependent density functional calculations with hybrid density functionals
     Chem. Phys. Lett. 2002 362 , 170-178
     doi.org/10.1016/s0009-2614(02)01053-9
  2. Neese, F.
     An improvement of the resolution of the identity approximation for the formation of the Coulomb matrix
     J. Comp. Chem. 2003 24(14), 1740-1747
     doi.org/10.1002/jcc.10318
  3. Neese, F.; Wennmohs, F.; Hansen, A.; Becker, U.
     Efficient, approximate and parallel Hartree-Fock and hybrid DFT calculations. A 'chain-of-spheres' algorithm for the Hartree-Fock exchange
     Chem. Phys. 2009 356(1-3), 98-109
     doi.org/10.1016/j.chemphys.2008.10.036
  4. Garcia-Rates, M.; Neese, F.
     Effect of the Solute Cavity on the Solvation Energy and its Derivatives within the Framework of the Gaussian Charge Scheme
     J. Comput. Chem. 2020 41 , 922-939
     doi.org/10.1002/jcc.26139
  5. Helmich-Paris, B.; de Souza, B.; Neese, F.; Izsák, R.
     An improved chain of spheres for exchange algorithm
     J. Chem. Phys. 2021 155(10), 104109
     doi.org/10.1063/5.0058766
  6. Neese, F.
     The SHARK Integral Generation and Digestion System
     J. Comp. Chem. 2022 44(3), 381
     doi.org/10.1002/jcc.26942

List of suggested additional citations. These are papers that are important in the 'surrounding' of 
of this run, or papers that preceded the highly important papers. If you like your results we are grateful for a citation.

  1. Izsak, R.; Neese, F.
     An overlap fitted chain of spheres exchange method
     J. Chem. Phys. 2011 135 , 144105
     doi.org/10.1063/1.3646921
  2. Izsak, R.; Hansen, A.; Neese, F.
     The resolution of identity and chain of spheres approximations for the LPNO-CCSD singles Fock term
     Molec. Phys. 2012 110 , 2413-2417
     doi.org/10.1080/00268976.2012.687466
  3. Neese, F.
     The ORCA program system
     WIRES Comput. Molec. Sci. 2012 2(1), 73-78
     doi.org/10.1002/wcms.81
  4. Izsak, R.; Neese, F.; Klopper, W.
     Robust fitting techniques in the chain of spheres approximation to the Fock exchange: The role of the complementary space
     J. Chem. Phys. 2013 139 , 
     doi.org/10.1063/1.4819264
  5. Neese, F.
     Software update: the ORCA program system, version 4.0
     WIRES Comput. Molec. Sci. 2018 8(1), 1-6
     doi.org/10.1002/wcms.1327
  6. Neese, F.; Wennmohs, F.; Becker, U.; Riplinger, C.
     The ORCA quantum chemistry program package
     J. Chem. Phys. 2020 152(22), 224108
     doi.org/10.1063/5.0004608
  7. Neese, F.
     Software update: The ORCA program system—Version 5.0
     WIRES Comput. Molec. Sci. 2022 12(1), e1606
     doi.org/10.1002/wcms.1606

List of optional additional citations

  1. Neese, F.
     Approximate second-order SCF convergence for spin unrestricted wavefunctions
     Chem. Phys. Lett. 2000 325(1-3), 93-98
     doi.org/10.1016/s0009-2614(00)00662-x

Timings for individual modules:

Sum of individual times          ...     7337.548 sec (= 122.292 min)
Startup calculation              ...       16.909 sec (=   0.282 min)   0.2 %
SCF iterations                   ...     1009.865 sec (=  16.831 min)  13.8 %
Property integrals               ...        1.011 sec (=   0.017 min)   0.0 %
Property calculations            ...        1.109 sec (=   0.018 min)   0.0 %
CIS module                       ...     6308.654 sec (= 105.144 min)  86.0 %
                             ****ORCA TERMINATED NORMALLY****
TOTAL RUN TIME: 0 days 2 hours 2 minutes 18 seconds 20 msec
