
                                 *****************
                                 * O   R   C   A *
                                 *****************

                                            #,                                       
                                            ###                                      
                                            ####                                     
                                            #####                                    
                                            ######                                   
                                           ########,                                 
                                     ,,################,,,,,                         
                               ,,#################################,,                 
                          ,,##########################################,,             
                       ,#########################################, ''#####,          
                    ,#############################################,,   '####,        
                  ,##################################################,,,,####,       
                ,###########''''           ''''###############################       
              ,#####''   ,,,,##########,,,,          '''####'''          '####       
            ,##' ,,,,###########################,,,                        '##       
           ' ,,###''''                  '''############,,,                           
         ,,##''                                '''############,,,,        ,,,,,,###''
      ,#''                                            '''#######################'''  
     '                                                          ''''####''''         
             ,#######,   #######,   ,#######,      ##                                
            ,#'     '#,  ##    ##  ,#'     '#,    #''#        ,####,    ,#,          
            ##       ##  ##   ,#'  ##            #'  '#       #'       ,# #          
            ##       ##  #######   ##           ,######,      #####,      #          
            '#,     ,#'  ##    ##  '#,     ,#' ,#      #,     #,   #      #          
             '#######'   ##     ##  '#######'  #'      '#     '####' #    #          



                #########################################################
                #                        -***-                          #
                #          Department of theory and spectroscopy        #
                #                                                       #
                #                      Frank Neese                      #
                #                                                       #
                #     Directorship, Architecture, Infrastructure        #
                #                    SHARK, DRIVERS                     #
                #        Core code/Algorithms in most modules           #
                #                                                       #
                #        Max Planck Institute fuer Kohlenforschung      #
                #                Kaiser Wilhelm Platz 1                 #
                #                 D-45470 Muelheim/Ruhr                 #
                #                      Germany                          #
                #                                                       #
                #                  All rights reserved                  #
                #                        -***-                          #
                #########################################################


                         Program Version 6.1.1  -  RELEASE   -
                                (GIT: $487d211c$)
                          ($2025-11-21 10:33:24 +0100$)


 With contributions from (in alphabetic order):
[Max-Planck-Institut fuer Kohlenforschung]                               
  Daniel Aravena         : Magnetic Suceptibility                        
  Michael Atanasov       : Ab Initio Ligand Field Theory (pilot matlab implementation)
  Alexander A. Auer      : GIAO ZORA, VPT2 properties, NMR spectrum      
  Ute Becker             : All parallelization in ORCA, NUMFREQ, NUMCALC 
  Giovanni Bistoni       : ED, misc. LED, open-shell LED, HFLD           
  Dmytro Bykov           : pre 5.0 version of the SCF Hessian            
  Marcos Casanova-Páez   : Triplet and SCS-CIS(D). UHF-(DLPNO)-IP/EA/STEOM-CCSD. UHF-CVS-IP/STEOM-CCSD   
  Vijay G. Chilkuri      : MRCI spin determinant printing, contributions to CSF-ICE 
  Pauline Colinet        : FMM embedding                                 
  Dipayan Datta          : RHF DLPNO-CCSD density                        
  Achintya Kumar Dutta   : EOM-CC, STEOM-CC                              
  Nicolas Foglia         : Exact transition moments, OPA infrastructure, MCD improvements    
  Dmitry Ganyushin       : Spin-Orbit,Spin-Spin,Magnetic field MRCI      
  Miquel Garcia-Rates    : C-PCM and meta-GGA Hessian, CCSD/C-PCM, Gaussian charge scheme 
  Tiago L. C. Gouveia    : GS-ROHF, GS-ROCIS                             
  Yang Guo               : DLPNO-NEVPT2, F12-NEVPT2, CIM, IAO-localization        
  Andreas Hansen         : Spin unrestricted coupled pair/coupled cluster methods 
  Ingolf Harden          : AUTO-CI MPn and infrastructure                
  Benjamin Helmich-Paris : MC-RPA, TRAH-(SCF,CASSCF), AVAS, COSX integrals, SCF dyn. polar., MC-PDFT, srDFT 
  Lee Huntington         : MR-EOM, pCC                                   
  Robert Izsak           : Overlap fitted RIJCOSX, COSX-SCS-MP3, EOM     
  Riya Kayal             : Wick's Theorem for AUTO-CI, AUTO-CI UHF-CCSDT 
  Emily Kempfer          : AUTO-CI RHF CISDT and CCSDT, approximate NEVPT4
  Christian Kollmar      : KDIIS, OOCD, Brueckner-CCSD(T), CCSD density, CASPT2, CASPT2-K, improved NEVPT2 
  Axel Koslowski         : Symmetry handling                             
  Simone Kossmann        : meta-GGA functionals, TD-DFT gradient, OOMP2, (MP2 Hessian; deprecated post 5.0) 
  Lucas Lang             : DCDCAS, Hyperfine gauge corrections, ICE-SOC+SSC
  Marvin Lechner         : AUTO-CI (C++ implementation), FIC-MRCC        
  Spencer Leger          : CASSCF response                               
  Dagmar Lenk            : GEPOL surface, SMD, ORCA-2-JSON               
  Dimitrios Liakos       : Extrapolation schemes; Compound Job, Property file
  Dimitrios Manganas     : Further ROCIS development; embedding schemes. LFT, Crystal Embedding 
  Dimitrios Pantazis     : SARC Basis sets                               
  Anastasios Papadopoulos: AUTO-CI, single reference methods and gradients 
  Taras Petrenko         : pre 6.0 DFT Hessian and TD-DFT gradient,  ECA, NRVS 
  Petra Pikulova         : Analytic Raman intensities                    
  Peter Pinski           : DLPNO-MP2, DLPNO-MP2 Gradient                 
  Shashank Vittal Rao    : ES-AILFT, MagRelax                            
  Christoph Reimann      : Effective Core Potentials                     
  Marius Retegan         : Local ZFS, SOC                                
  Christoph Riplinger    : Optimizer, TS searches, QM/MM, DLPNO-CCSD(T), (RO)-DLPNO pert. Triples 
  Michael Roemelt        : Original ROCIS implementation, recursive CI coupling coefficients
  Masaaki Saitow         : Open-shell DLPNO-CCSD energy and density      
  Barbara Sandhoefer     : DKH picture change effects                    
  Yorick L. A. Schmerwitz: GMF and freeze-and-release deltaSCF, NEB S-IDPP initial path                    
  Kantharuban Sivalingam : CASSCF convergence/infrastructure, NEVPT2, NEVPT3, NEVPT4(SD), FIC-MRCI and CEPA variants
  Bernardo de Souza      : ESD, SOC TD-DFT                               
  Georgi L. Stoychev     : AutoAux, RI-MP2 NMR, DLPNO-MP2 response, X2C  
  Van Anh Tran           : RI-MP2 g-tensors                              
  Willem Van den Heuvel  : Paramagnetic NMR                              
  Zikuan Wang            : NOTCH, Electric field optimization            
  Frank Wennmohs         : Technical directorship and infrastructure     
  Hang Xu                : AUTO-CI-Response properties                   
                                                                         
[FACCTs GmbH]                                                            
  Markus Bursch, Nicolas Foglia, Miquel Garcia-Rates, Ingolf Harden, Hagen Neugebauer, Anastasios Papadopoulos, 
  Christoph Riplinger, Bernardo de Souza, Georgi L. Stoychev                                                    
                                                                 
  APM, various basis sets, CI-OPT, improved COSX, DLPNO-Multilevel,           
  DOCKER, DRACO, updates on ESD, Fragmentator, GOAT, IRC, LR-CPCM, L-BFGS, MBIS, meta-GGA TD-DFT gradient, ML-optimized integration grids, 
  MM, NACMEs, nearIR, NEB, NEB-TS, NL-DFT gradient (VV10), 2- and 3-layer-ONIOM, interface openCOSMO-RS, QMMM,   
  Crystal-QMMM, RESP, rigid body optimization, SF, symmetry and pop. for TD-DFT, various functionals, SOLVATOR                                   
                                                                         
[Other institutions]                                                     
  V. Asgeirsson          : NEB                                           
  Christoph Bannwarth    : sTDA-DFT, sTD-DFT, PBEh-3c, B97-3c, D3        
  Giovanni Bistoni       : ETS/NOCV, ADLD/ADEX, COVALED                  
  Martin Brehm           : Molecular dynamics                            
  Ronald Cardenas        : ETS/NOCV                                      
  Martina Colucci        : COVALED                                       
  Sebastian Ehlert       : rSCAN, r2SCAN, r2SCAN-3c, D4, dhf basis sets  
  Marvin Friede          : D4 for Fr, Ra, Ac-Lr                          
  Lars Goerigk           : TD-DFT with DH, B97 family of functionals     
  Stefan Grimme          : VdW corrections, initial TS optimization, DFT functionals, gCP, sTDA/sTD-DF 
  Waldemar Hujo          : DFT-NL                                        
  H. Jonsson             : NEB                                           
  Holger Kruse           : gCP                                           
  Marcel Mueller         : wB97X-3c, vDZP basis set                      
  Hagen Neugebauer       : wr2SCAN, Native XTB                           
  Gianluca Regni         : ADLD/ADEX                                     
  Tobias Risthaus        : pre 6.0 range-separated hybrid DFT and stability analysis
  Lukas Wittmann         : regularized MP2, r2SCAN double-hybrids, wr2SCAN        
                                                                         
We gratefully acknowledge several colleagues who have allowed us to      
interface, adapt or use parts of their codes:                            
  Ed Valeev, F. Pavosevic, A. Kumar             : LibInt (2-el integral package), F12 methods 
  Garnet Chan, S. Sharma, J. Yang, R. Olivares  : DMRG                   
  Ulf Ekstrom                                   : XCFun DFT Library      
  Mihaly Kallay                                 : mrcc  (arbitrary order and MRCC methods)
  Frank Weinhold                                : gennbo (NPA and NBO analysis)           
  Simon Mueller                                 : openCOSMO-RS                            
  Christopher J. Cramer and Donald G. Truhlar   : smd solvation model                     
  S Lehtola, MJT Oliveira, MAL Marques          : LibXC Library                           
  Liviu Ungur et al                             : ANISO software                          


 Your calculation uses the libint2 library for the computation of 2-el integrals
 For citations please refer to: http://libint.valeyev.net

 Your ORCA version has been built with support for libXC version: 7.0.0
 For citations please refer to: https://libxc.gitlab.io

 This ORCA versions uses:
   CBLAS   interface :  Fast vector & matrix operations
   LAPACKE interface :  Fast linear algebra routines
   SCALAPACK package :  Parallel linear algebra routines
   Shared memory     :  Shared parallel matrices
   BLAS/LAPACK       :  OpenBLAS 0.3.29  USE64BITINT DYNAMIC_ARCH NO_AFFINITY Haswell SINGLE_THREADED
        Core in use  :  Haswell
   Copyright (c) 2011-2014, The OpenBLAS Project


  ***********************************
  * Starting time: Sun Jul  5 17:08:28 2026
  * Host name:     steezy
  * Process ID:    1275770
  * Working dir.:  /home/jannes/chlorophyll-ladder/007-mg-core-ladder/mgchlorin/02_tddft/pbe0
  ***********************************

NOTE: MaxCore=3000 MB was set to SCF,MP2,MDCI,CIPSI,MRCI,RASCI and CIS
      => If you want to overwrite this, your respective input block should be placed after the MaxCore statement


***************************************
The coordinates will be read from file: /home/jannes/chlorophyll-ladder/007-mg-core-ladder/mgchlorin/01_opt/mgchlorin_opt_b3lypd4_tzvp.xyz
***************************************


================================================================================

----- Orbital basis set information -----
Your calculation utilizes the basis: def2-TZVP
   F. Weigend and R. Ahlrichs, Phys. Chem. Chem. Phys. 7, 3297 (2005).

----- AuxJ basis set information -----
Your calculation utilizes the auxiliary basis: def2/J
   H-Rn: F. Weigend, Phys. Chem. Chem. Phys. 8, 1057 (2006).
   Fr-Lr: K. Eichkorn, F. Weigend, O. Treutler, R. Ahlrichs; Theor. Chem. Acc. 97, 119 (1997).

================================================================================
                                        WARNINGS
                       Please study these warnings very carefully!
================================================================================


WARNING: CIS/ROCIS methods need fully converged wavefunctions
  ===> : Setting SCFConvForced true
         You can overwrite this default with %scf ConvForced false 


================================================================================
                                       INPUT FILE
================================================================================
NAME = tddft.inp
|  1> %pal nprocs 4 end
|  2> %maxcore 3000
|  3> ! PBE0 def2-TZVP def2/J RIJCOSX DefGrid3 TightSCF
|  4> %tddft
|  5>   nroots 30
|  6>   triplets false
|  7> end
|  8> * xyzfile 0 1 /home/jannes/chlorophyll-ladder/007-mg-core-ladder/mgchlorin/01_opt/mgchlorin_opt_b3lypd4_tzvp.xyz
|  9> 
| 10>                          ****END OF INPUT****
================================================================================

                       ****************************
                       * Single Point Calculation *
                       ****************************

---------------------------------
CARTESIAN COORDINATES (ANGSTROEM)
---------------------------------
  N      1.617376    1.330383    0.004551
  N     -1.306529    1.580997    0.003644
  N      1.276091   -1.584198   -0.002271
  N     -1.612608   -1.304895   -0.003475
  C      2.875203    3.342362   -0.063685
  C      3.840630    2.159068    0.079915
  C      1.509656    2.684377   -0.016153
  C      2.922172    0.953296    0.027878
  C      0.336508    3.400638   -0.015219
  C      3.388460   -0.339731    0.025539
  C     -0.976132    2.896056   -0.002122
  C      2.630796   -1.524412    0.007627
  C     -2.686758    1.511059    0.009704
  C      0.930668   -2.922223   -0.012658
  C     -2.169427    3.701790    0.002039
  C      3.180636   -2.855093    0.001851
  C     -3.225855    2.843438    0.009928
  C      2.127735   -3.717737   -0.011279
  C     -3.426856    0.343504    0.009772
  C     -0.361658   -3.413010   -0.017853
  C     -2.938073   -0.969119    0.002267
  C     -1.549551   -2.670848   -0.012186
  C     -3.737889   -2.157029   -0.002719
  C     -2.873771   -3.216052   -0.012243
  H      3.004410    3.866805   -1.013495
  H      2.986016    4.085160    0.727134
  H      4.377829    2.179169    1.031116
  H      4.592202    2.120440   -0.709370
  H      0.429527    4.479453   -0.029677
  H      4.463992   -0.464803    0.042863
  H     -2.189602    4.780461   -0.001150
  H      4.233282   -3.091377    0.007587
  H     -4.277438    3.085144    0.014504
  H      2.153498   -4.796427   -0.018419
  H     -4.504247    0.454657    0.013550
  H     -0.468513   -4.490823   -0.024516
  H     -4.816548   -2.181344    0.000207
  H     -3.114006   -4.267872   -0.018337
  Mg    -0.018551   -0.004412    0.000625

----------------------------
CARTESIAN COORDINATES (A.U.)
----------------------------
  NO LB      ZA    FRAG     MASS         X           Y           Z
   0 N     7.0000    0    14.007    3.056398    2.514059    0.008600
   1 N     7.0000    0    14.007   -2.468981    2.987652    0.006887
   2 N     7.0000    0    14.007    2.411463   -2.993700   -0.004293
   3 N     7.0000    0    14.007   -3.047387   -2.465895   -0.006567
   4 C     6.0000    0    12.011    5.433346    6.316149   -0.120347
   5 C     6.0000    0    12.011    7.257738    4.080048    0.151018
   6 C     6.0000    0    12.011    2.852836    5.072737   -0.030524
   7 C     6.0000    0    12.011    5.522104    1.801468    0.052683
   8 C     6.0000    0    12.011    0.635908    6.426274   -0.028760
   9 C     6.0000    0    12.011    6.403262   -0.641999    0.048262
  10 C     6.0000    0    12.011   -1.844622    5.472752   -0.004009
  11 C     6.0000    0    12.011    4.971483   -2.880721    0.014414
  12 C     6.0000    0    12.011   -5.077236    2.855488    0.018338
  13 C     6.0000    0    12.011    1.758707   -5.522200   -0.023920
  14 C     6.0000    0    12.011   -4.099623    6.995369    0.003853
  15 C     6.0000    0    12.011    6.010530   -5.395343    0.003498
  16 C     6.0000    0    12.011   -6.095983    5.373319    0.018761
  17 C     6.0000    0    12.011    4.020836   -7.025504   -0.021315
  18 C     6.0000    0    12.011   -6.475819    0.649128    0.018466
  19 C     6.0000    0    12.011   -0.683435   -6.449655   -0.033738
  20 C     6.0000    0    12.011   -5.552153   -1.831369    0.004284
  21 C     6.0000    0    12.011   -2.928227   -5.047171   -0.023027
  22 C     6.0000    0    12.011   -7.063586   -4.076195   -0.005137
  23 C     6.0000    0    12.011   -5.430639   -6.077458   -0.023136
  24 H     1.0000    0     1.008    5.677511    7.307202   -1.915228
  25 H     1.0000    0     1.008    5.642753    7.719833    1.374085
  26 H     1.0000    0     1.008    8.272899    4.118034    1.948527
  27 H     1.0000    0     1.008    8.678005    4.007051   -1.340516
  28 H     1.0000    0     1.008    0.811688    8.464939   -0.056081
  29 H     1.0000    0     1.008    8.435723   -0.878351    0.081000
  30 H     1.0000    0     1.008   -4.137748    9.033761   -0.002174
  31 H     1.0000    0     1.008    7.999744   -5.841856    0.014337
  32 H     1.0000    0     1.008   -8.083187    5.830076    0.027408
  33 H     1.0000    0     1.008    4.069522   -9.063934   -0.034807
  34 H     1.0000    0     1.008   -8.511794    0.859178    0.025605
  35 H     1.0000    0     1.008   -0.885361   -8.486426   -0.046329
  36 H     1.0000    0     1.008   -9.101956   -4.122142    0.000392
  37 H     1.0000    0     1.008   -5.884618   -8.065109   -0.034653
  38 Mg   12.0000    0    24.305   -0.035057   -0.008338    0.001182

--------------------------------
INTERNAL COORDINATES (ANGSTROEM)
--------------------------------
 N      0   0   0     0.000000000000     0.00000000     0.00000000
 N      1   0   0     2.934625567277     0.00000000     0.00000000
 N      1   2   0     2.934502219461    88.22026361     0.00000000
 N      2   1   3     2.902087324163    91.15525092     0.00000000
 C      1   2   3     2.373783144973   117.10066924   178.00775617
 C      5   1   2     1.533901517256    71.15336793   175.74864028
 C      1   2   3     1.358430124362    80.55312792   178.98494255
 C      1   2   3     1.358392392334   168.73866091   354.91154939
 C      7   1   2     1.374520448020   125.94914713     0.55405638
 C      8   1   7     1.374536203187   125.94130379   181.39600351
 C      2   1   3     1.355940334932    80.79598169   180.38241652
 C      3   1   2     1.356059119169    80.79364978   180.38854817
 C      2   1   3     1.382013227933   172.19563123     2.11228019
 C      3   1   2     1.381931604181   172.19772945     2.18695519
 C     11   2   1     1.439853693466   109.92374504   180.32182958
 C     12   3   1     1.439815791155   109.92104971   180.32893451
 C     15  11   2     1.361202173100   106.87870823     0.00000000
 C     16  12   3     1.361222836597   106.87868208     0.00000000
 C     13   2  11     1.382364012124   125.27049495   179.64780351
 C     14   3  12     1.382391454942   125.27124228   179.65348396
 C      4   2   1     1.367346283750    81.83816516   179.76221527
 C      4   2   1     1.367434918034   171.29992091   358.49070100
 C     21   4   2     1.432083165488   109.73552966   179.80925939
 C     23  21   4     1.366865067502   106.83566180   359.97041685
 H      5   1   2     1.092645014934   119.63454595   281.07952700
 H      5   1   2     1.090606617469   127.60927975    70.55922818
 H      6   5   1     1.092598204440   112.13340192   244.83271966
 H      6   5   1     1.090562030620   113.16139441   123.71896896
 H      9   7   1     1.082914591440   116.47481442   179.76700295
 H     10   8   1     1.082918427081   116.45780824   179.78631778
 H     15  11   2     1.078863876263   125.09848097   180.00420488
 H     16  12   3     1.078854659017   125.09944828   180.00572083
 H     17  15  11     1.079013379288   127.96205293   180.02317060
 H     18  16  12     1.079022169130   127.96119491   180.02286464
 H     19  13   2     1.083116608289   116.47961750   180.08384249
 H     20  14   3     1.083117372845   116.45786284   180.08863448
 H     23  21   4     1.078936570721   125.24249032   179.99600471
 H     24  23  21     1.078923308856   127.92239530   180.01162826
 Mg     3   1   2     2.042506205857    46.01341093     0.00000000

---------------------------
INTERNAL COORDINATES (A.U.)
---------------------------
 N      0   0   0     0.000000000000     0.00000000     0.00000000
 N      1   0   0     5.545638627757     0.00000000     0.00000000
 N      1   2   0     5.545405534166    88.22026361     0.00000000
 N      2   1   3     5.484150259393    91.15525092     0.00000000
 C      1   2   3     4.485800045317   117.10066924   178.00775617
 C      5   1   2     2.898653784021    71.15336793   175.74864028
 C      1   2   3     2.567060907114    80.55312792   178.98494255
 C      1   2   3     2.566989603913   168.73866091   354.91154939
 C      7   1   2     2.597467212233   125.94914713     0.55405638
 C      8   1   7     2.597496985183   125.94130379   181.39600351
 C      2   1   3     2.562355886959    80.79598169   180.38241652
 C      3   1   2     2.562580356635    80.79364978   180.38854817
 C      2   1   3     2.611626514250   172.19563123     2.11228019
 C      3   1   2     2.611472267713   172.19772945     2.18695519
 C     11   2   1     2.720929153566   109.92374504   180.32182958
 C     12   3   1     2.720857528579   109.92104971   180.32893451
 C     15  11   2     2.572299320058   106.87870823     0.00000000
 C     16  12   3     2.572338368408   106.87868208     0.00000000
 C     13   2  11     2.612289400304   125.27049495   179.64780351
 C     14   3  12     2.612341259714   125.27124228   179.65348396
 C      4   2   1     2.583910006522    81.83816516   179.76221527
 C      4   2   1     2.584077501046   171.29992091   358.49070100
 C     21   4   2     2.706244983771   109.73552966   179.80925939
 C     23  21   4     2.583000639603   106.83566180   359.97041685
 H      5   1   2     2.064799839820   119.63454595   281.07952700
 H      5   1   2     2.060947826859   127.60927975    70.55922818
 H      6   5   1     2.064711380806   112.13340192   244.83271966
 H      6   5   1     2.060863569926   113.16139441   123.71896896
 H      9   7   1     2.046412004250   116.47481442   179.76700295
 H     10   8   1     2.046419252561   116.45780824   179.78631778
 H     15  11   2     2.038757261919   125.09848097   180.00420488
 H     16  12   3     2.038739843848   125.09944828   180.00572083
 H     17  15  11     2.039039781691   127.96205293   180.02317060
 H     18  16  12     2.039056392086   127.96119491   180.02286464
 H     19  13   2     2.046793760768   116.47961750   180.08384249
 H     20  14   3     2.046795205569   116.45786284   180.08863448
 H     23  21   4     2.038894634535   125.24249032   179.99600471
 H     24  23  21     2.038869573241   127.92239530   180.01162826
 Mg     3   1   2     3.859777355904    46.01341093     0.00000000

---------------------
BASIS SET INFORMATION
---------------------
There are 4 groups of distinct atoms

 Group   1 Type N   : 11s6p2d1f contracted to 5s3p2d1f pattern {62111/411/11/1}
 Group   2 Type C   : 11s6p2d1f contracted to 5s3p2d1f pattern {62111/411/11/1}
 Group   3 Type H   : 5s1p contracted to 3s1p pattern {311/1}
 Group   4 Type Mg  : 14s8p3d contracted to 5s4p3d pattern {73211/5111/111}

Atom   0N    basis set group =>   1
Atom   1N    basis set group =>   1
Atom   2N    basis set group =>   1
Atom   3N    basis set group =>   1
Atom   4C    basis set group =>   2
Atom   5C    basis set group =>   2
Atom   6C    basis set group =>   2
Atom   7C    basis set group =>   2
Atom   8C    basis set group =>   2
Atom   9C    basis set group =>   2
Atom  10C    basis set group =>   2
Atom  11C    basis set group =>   2
Atom  12C    basis set group =>   2
Atom  13C    basis set group =>   2
Atom  14C    basis set group =>   2
Atom  15C    basis set group =>   2
Atom  16C    basis set group =>   2
Atom  17C    basis set group =>   2
Atom  18C    basis set group =>   2
Atom  19C    basis set group =>   2
Atom  20C    basis set group =>   2
Atom  21C    basis set group =>   2
Atom  22C    basis set group =>   2
Atom  23C    basis set group =>   2
Atom  24H    basis set group =>   3
Atom  25H    basis set group =>   3
Atom  26H    basis set group =>   3
Atom  27H    basis set group =>   3
Atom  28H    basis set group =>   3
Atom  29H    basis set group =>   3
Atom  30H    basis set group =>   3
Atom  31H    basis set group =>   3
Atom  32H    basis set group =>   3
Atom  33H    basis set group =>   3
Atom  34H    basis set group =>   3
Atom  35H    basis set group =>   3
Atom  36H    basis set group =>   3
Atom  37H    basis set group =>   3
Atom  38Mg   basis set group =>   4
---------------------------------
AUXILIARY/J BASIS SET INFORMATION
---------------------------------
There are 4 groups of distinct atoms

 Group   1 Type N   : 12s5p4d2f1g contracted to 6s4p3d1f1g pattern {711111/2111/211/2/1}
 Group   2 Type C   : 12s5p4d2f1g contracted to 6s4p3d1f1g pattern {711111/2111/211/2/1}
 Group   3 Type H   : 5s2p1d contracted to 3s1p1d pattern {311/2/1}
 Group   4 Type Mg  : 14s5p5d2f1g contracted to 8s4p4d1f1g pattern {71111111/2111/2111/2/1}

Atom   0N    basis set group =>   1
Atom   1N    basis set group =>   1
Atom   2N    basis set group =>   1
Atom   3N    basis set group =>   1
Atom   4C    basis set group =>   2
Atom   5C    basis set group =>   2
Atom   6C    basis set group =>   2
Atom   7C    basis set group =>   2
Atom   8C    basis set group =>   2
Atom   9C    basis set group =>   2
Atom  10C    basis set group =>   2
Atom  11C    basis set group =>   2
Atom  12C    basis set group =>   2
Atom  13C    basis set group =>   2
Atom  14C    basis set group =>   2
Atom  15C    basis set group =>   2
Atom  16C    basis set group =>   2
Atom  17C    basis set group =>   2
Atom  18C    basis set group =>   2
Atom  19C    basis set group =>   2
Atom  20C    basis set group =>   2
Atom  21C    basis set group =>   2
Atom  22C    basis set group =>   2
Atom  23C    basis set group =>   2
Atom  24H    basis set group =>   3
Atom  25H    basis set group =>   3
Atom  26H    basis set group =>   3
Atom  27H    basis set group =>   3
Atom  28H    basis set group =>   3
Atom  29H    basis set group =>   3
Atom  30H    basis set group =>   3
Atom  31H    basis set group =>   3
Atom  32H    basis set group =>   3
Atom  33H    basis set group =>   3
Atom  34H    basis set group =>   3
Atom  35H    basis set group =>   3
Atom  36H    basis set group =>   3
Atom  37H    basis set group =>   3
Atom  38Mg   basis set group =>   4


           ************************************************************
           *        Program running with 4 parallel MPI-processes     *
           *              working on a common directory               *
           ************************************************************
------------------------------------------------------------------------------
                             ORCA STARTUP CALCULATIONS
                           -- RI-GTO INTEGRALS CHOSEN --
------------------------------------------------------------------------------
------------------------------------------------------------------------------
                   ___                                                        
                  /   \      - P O W E R E D   B Y -                         
                 /     \                                                     
                 |  |  |   _    _      __       _____    __    __             
                 |  |  |  | |  | |    /  \     |  _  \  |  |  /  |          
                  \  \/   | |  | |   /    \    | | | |  |  | /  /          
                 / \  \   | |__| |  /  /\  \   | |_| |  |  |/  /          
                |  |  |   |  __  | /  /__\  \  |    /   |      \           
                |  |  |   | |  | | |   __   |  |    \   |  |\   \          
                \     /   | |  | | |  |  |  |  | |\  \  |  | \   \       
                 \___/    |_|  |_| |__|  |__|  |_| \__\ |__|  \__/        
                                                                              
                      - O R C A' S   B I G   F R I E N D -                    
                                      &                                       
                       - I N T E G R A L  F E E D E R -                       
                                                                              
 v1 FN, 2020, v2 2021, v3 2022-2024                                           
------------------------------------------------------------------------------


----------------------
SHARK INTEGRAL PACKAGE
----------------------

Number of atoms                             ...     39
Number of basis functions                   ...    860
Number of shells                            ...    332
Maximum angular momentum                    ...      3
Integral batch strategy                     ... SHARK/LIBINT Hybrid
RI-J (if used) integral strategy            ... SPLIT-RIJ (Revised 2003 algorithm where possible)
Printlevel                                  ...      1
Contraction scheme used                     ... SEGMENTED contraction
Prescreening option                         ... SCHWARTZ
   Thresh                                   ... 2.500e-11
   Tcut                                     ... 2.500e-12
   Tpresel                                  ... 2.500e-12 
Coulomb Range Separation                    ... NOT USED
Exchange Range Separation                   ... NOT USED
Multipole approximations                    ... NOT USED
Finite Nucleus Model                        ... NOT USED
CABS basis                                  ... NOT available
Auxiliary Coulomb fitting basis             ... AVAILABLE
   # of basis functions in Aux-J            ...   1386
   # of shells in Aux-J                     ...    448
   Maximum angular momentum in Aux-J        ...      4
Auxiliary J/K fitting basis                 ... NOT available
Auxiliary Correlation fitting basis         ... NOT available
Auxiliary 'external' fitting basis          ... NOT available

Checking pre-screening integrals            ... done (  0.0 sec) Dimension = 332
   => SHARK Basis and OBASIS are compatible. Storing Pre-screening
Shell pair information
Shell pair cut-off parameter TPreSel        ...   2.5e-12
Total number of shell pairs                 ...     55278
Shell pairs after pre-screening             ...     38985
Total number of primitive shell pairs       ...    174360
Primitive shell pairs kept                  ...     80636
          la=0 lb=0:   9326 shell pairs
          la=1 lb=0:  11131 shell pairs
          la=1 lb=1:   3288 shell pairs
          la=2 lb=0:   5767 shell pairs
          la=2 lb=1:   3529 shell pairs
          la=2 lb=2:    978 shell pairs
          la=3 lb=0:   2472 shell pairs
          la=3 lb=1:   1540 shell pairs
          la=3 lb=2:    784 shell pairs
          la=3 lb=3:    170 shell pairs

Checking whether 4 symmetric matrices of dimension 860 fit in memory
:Max Core in MB      =   3000.00
 MB in use           =     50.97
 MB left             =   2949.03
 MB needed           =     11.30
 Data fit in memory  = YES
Calculating RI/J V-Matrix + Cholesky decomp.... done (  0.2 sec)
Calculating Nuclear repulsion               ... done (  0.0 sec) ENN=   2155.857692955848 Eh

Diagonalization of the overlap matrix:
Smallest eigenvalue                        ... 1.000e-05
Time for diagonalization                   ...    0.200 sec
Threshold for overlap eigenvalues          ... 1.000e-07
Number of eigenvalues below threshold      ... 0
Time for construction of square roots      ...    0.111 sec
Total time needed                          ...    0.318 sec

-------------------
DFT GRID GENERATION
-------------------

General Integration Accuracy     IntAcc      ... 4.959
Radial Grid Type                 RadialGrid  ... OptM3 with GC (2021)
Angular Grid (max. ang.)         AngularGrid ... 6 (Lebedev-590)
Angular grid pruning method      GridPruning ... 4 (adaptive)
Weight generation scheme         WeightScheme... mBecke (2022)
Basis function cutoff            BFCut       ... 1.0000e-11
Integration weight cutoff        WCut        ... 1.0000e-14
Partially contracted basis set               ... off
Rotationally invariant grid construction     ... off
Angular grids for H and He will be reduced by one unit

Total number of grid points                  ...   473102
Total number of batches                      ...     7410
Average number of points per batch           ...       63
Average number of grid points per atom       ...    12131

--------------------
COSX GRID GENERATION
--------------------

GRIDX 1
-------
General Integration Accuracy     IntAcc      ... 4.020
Radial Grid Type                 RadialGrid  ... OptM3 with GC (2021)
Angular Grid (max. ang.)         AngularGrid ... 2 (Lebedev-110)
Angular grid pruning method      GridPruning ... 4 (adaptive)
Weight generation scheme         WeightScheme... mBecke (2022)
Basis function cutoff            BFCut       ... 1.0000e-11
Integration weight cutoff        WCut        ... 1.0000e-14
Partially contracted basis set               ... on
Rotationally invariant grid construction     ... off
Angular grids for H and He will be reduced by one unit

Total number of grid points                  ...    54054
Total number of batches                      ...      445
Average number of points per batch           ...      121
Average number of grid points per atom       ...     1386
UseSFitting                                  ... on

GRIDX 2
-------
General Integration Accuracy     IntAcc      ... 4.338
Radial Grid Type                 RadialGrid  ... OptM3 with GC (2021)
Angular Grid (max. ang.)         AngularGrid ... 3 (Lebedev-194)
Angular grid pruning method      GridPruning ... 4 (adaptive)
Weight generation scheme         WeightScheme... mBecke (2022)
Basis function cutoff            BFCut       ... 1.0000e-11
Integration weight cutoff        WCut        ... 1.0000e-14
Partially contracted basis set               ... on
Rotationally invariant grid construction     ... off
Angular grids for H and He will be reduced by one unit

Total number of grid points                  ...   119051
Total number of batches                      ...      950
Average number of points per batch           ...      125
Average number of grid points per atom       ...     3053
UseSFitting                                  ... on

GRIDX 3
-------
General Integration Accuracy     IntAcc      ... 4.871
Radial Grid Type                 RadialGrid  ... OptM3 with GC (2021)
Angular Grid (max. ang.)         AngularGrid ... 4 (Lebedev-302)
Angular grid pruning method      GridPruning ... 4 (adaptive)
Weight generation scheme         WeightScheme... mBecke (2022)
Basis function cutoff            BFCut       ... 1.0000e-11
Integration weight cutoff        WCut        ... 1.0000e-14
Partially contracted basis set               ... on
Rotationally invariant grid construction     ... off
Angular grids for H and He will be reduced by one unit

Total number of grid points                  ...   219016
Total number of batches                      ...     1726
Average number of points per batch           ...      126
Average number of grid points per atom       ...     5616
UseSFitting                                  ... on
Grids setup in  14.9 sec
Initializing property integral containers    ... done (  0.0 sec)

SHARK setup successfully completed in  16.3 seconds

Maximum memory used throughout the entire STARTUP-calculation: 154.4 MB


           ************************************************************
           *        Program running with 4 parallel MPI-processes     *
           *              working on a common directory               *
           ************************************************************
-------------------------------------------------------------------------------
                                 ORCA GUESS
                   Start orbitals & Density for SCF / CASSCF
-------------------------------------------------------------------------------

------------
SCF SETTINGS
------------
Hamiltonian:
 Density Functional     Method          .... DFT(GTOs)
 Exchange Functional    Exchange        .... PBE
   PBE kappa parameter   XKappa         ....  0.804000
   PBE mue parameter    XMuePBE         ....  0.219520
 Correlation Functional Correlation     .... PBE
   PBE beta parameter  CBetaPBE         ....  0.066725
 LDA part of GGA corr.  LDAOpt          .... PW91-LDA
 Gradients option       PostSCFGGA      .... off
 Hybrid DFT is turned on
   Fraction HF Exchange ScalHFX         ....  0.250000
   Scaling of DF-GGA-X  ScalDFX         ....  0.750000
   Scaling of DF-GGA-C  ScalDFC         ....  1.000000
   Scaling of DF-LDA-C  ScalLDAC        ....  1.000000
   Perturbative correction              ....  0.000000
   NL short-range parameter             ....  6.900000
 RI-approximation to the Coulomb term is turned on
   Number of AuxJ basis functions       .... 1386
   RIJ-COSX (HFX calculated with COS-X)).... on


General Settings:
 Integral files         IntName         .... tddft
 Hartree-Fock type      HFTyp           .... RHF
 Total Charge           Charge          ....    0
 Multiplicity           Mult            ....    1
 Number of Electrons    NEL             ....  174
 Basis Dimension        Dim             ....  860
 Nuclear Repulsion      ENuc            ....   2155.8576929558 Eh

Convergence Acceleration:
 AO-DIIS                CNVDIIS         .... on
   Start iteration      DIISMaxIt       ....    12
   Startup error        DIISStart       ....  0.200000
   # of expansion vecs  DIISMaxEq       ....     5
   Bias factor          DIISBfac        ....   1.050
   Max. coefficient     DIISMaxC        ....  10.000
 MO-DIIS                CNVKDIIS        .... off
 Trust-Rad. Augm. Hess. CNVTRAH         .... auto
   Auto Start mean grad. ratio tolernc. ....  1.125000
   Auto Start start iteration           ....    50
   Auto Start num. interpolation iter.  ....    10
   Max. Number of Micro iterations      ....    24
   Max. Number of Macro iterations      .... Maxiter - #DIIS iter
   Number of Davidson start vectors     ....     2
   Converg. threshold    (grad. norm)   ....   1.000e-05
   Grad. Scal. Fac. for Micro threshold ....   0.100
   Minimum threshold for Micro iter.    ....   1.000e-02
   NR start threshold (gradient norm)   ....   1.000e-04
   Initial trust radius                 ....   0.400
   Minimum AH scaling param. (alpha)    ....   1.000
   Maximum AH scaling param. (alpha)    .... 1000.000
   Quad. conv. algorithm                .... NR
   White noise on init. David. guess    .... on
   Maximum white noise                  ....   0.010
   Pseudo random numbers                .... off
   Inactive MOs                         .... canonical
   Orbital update algorithm             .... Taylor
   Preconditioner                       .... Diag
   Full preconditioner red. dimension   ....   250
 SOSCF                 CNVSOSCF           .... on
   Start iteration     SOSCFMaxIt         ....   150
   Startup grad/error  SOSCFStart         ....  0.003300
   Hessian update      SOSCFHessUp        .... L-BFGS
   Autom. constraints  SOSCFAutoConstrain .... off
 Level Shifting         CNVShift        .... on
   Level shift para.    LevelShift      ....    0.2500
   Turn off err/grad.   ShiftErr        ....    0.0010
 Zerner damping         CNVZerner       .... off
 Static damping         CNVDamp         .... on
   Fraction old density DampFac         ....    0.7000
   Max. Damping (<1)    DampMax         ....    0.9800
   Min. Damping (>=0)   DampMin         ....    0.0000
   Turn off err/grad.   DampErr         ....    0.1000

SCF Procedure:
 Maximum # iterations   MaxIter         ....   125
 SCF integral mode      SCFMode         .... Direct
   Integral package                     .... SHARK and LIBINT hybrid scheme
 Reset frequency        DirectResetFreq ....    20
 Integral Threshold     Thresh          ....  2.500e-11 Eh
 Primitive CutOff       TCut            ....  2.500e-12 Eh

Convergence Tolerance:
 Convergence Check Mode ConvCheckMode   .... Total+1el-Energy
 Convergence forced     ConvForced      .... 1
 Energy Change          TolE            ....  1.000e-08 Eh
 1-El. energy change                    ....  1.000e-05 Eh
 Orbital Gradient       TolG            ....  1.000e-05
 Orbital Rotation angle TolX            ....  1.000e-05
 DIIS Error             TolErr          ....  5.000e-07

------------------------------
INITIAL GUESS: MODEL POTENTIAL
------------------------------
Loading Hartree-Fock densities                     ... done
Calculating cut-offs                               ... done
Initializing the effective Hamiltonian             ... done
Setting up the integral package (SHARK)            ... done
Starting the Coulomb interaction                   ... done (   1.7 sec)
Making the grid                                    ... done (   0.6 sec)
Mapping shells                                     ... done
Starting the XC term evaluation                    ... done (   1.0 sec)
  promolecular density results
     # of electrons  =    173.997675708
     EX              =   -148.716356810
     EC              =     -5.920044363
     EX+EC           =   -154.636401173
Transforming the Hamiltonian                       ... done (   0.1 sec)
Diagonalizing the Hamiltonian                      ... done (   0.2 sec)
Back transforming the eigenvectors                 ... done (   0.1 sec)
Now organizing SCF variables                       ... done
                      ------------------
                      INITIAL GUESS DONE (   3.7 sec)
                      ------------------
             **** ENERGY FILE WAS UPDATED (tddft.en.tmp) ****
Finished Guess after   4.2 sec
Maximum memory used throughout the entire GUESS-calculation: 86.1 MB


           ************************************************************
           *        Program running with 4 parallel MPI-processes     *
           *              working on a common directory               *
           ************************************************************

-------------------------------------------------------------------------------------------
                                      ORCA LEAN-SCF
                              memory conserving SCF solver
-------------------------------------------------------------------------------------------

----------------------------------------D-I-I-S--------------------------------------------
Iteration    Energy (Eh)           Delta-E    RMSDP     MaxDP     DIISErr   Damp  Time(sec)
-------------------------------------------------------------------------------------------
               ***  Starting incremental Fock matrix formation  ***
    1    -1188.3387740734019644     0.00e+00  1.74e-03  4.26e-02  2.25e-01  0.700  87.7
    2    -1188.5869285579406096    -2.48e-01  1.31e-03  3.04e-02  1.06e-01  0.700  40.4
                               ***Turning on AO-DIIS***
    3    -1188.6946668150508231    -1.08e-01  6.63e-04  1.78e-02  4.08e-02  0.700  39.5
    4    -1188.7582465676118773    -6.36e-02  1.31e-03  3.62e-02  2.47e-02  0.000  37.3
    5    -1188.8941938877746907    -1.36e-01  2.06e-04  5.04e-03  5.45e-03  0.000  39.0
                              *** Initializing SOSCF ***
---------------------------------------S-O-S-C-F--------------------------------------
Iteration    Energy (Eh)           Delta-E    RMSDP     MaxDP     MaxGrad    Time(sec)
--------------------------------------------------------------------------------------
    6    -1188.8949128083731921    -7.19e-04  9.81e-05  1.90e-03  1.73e-03    33.9
               *** Restarting incremental Fock matrix formation ***
    7    -1188.8949588935020074    -4.61e-05  8.06e-05  1.73e-03  2.01e-04   119.3
    8    -1188.8949611651087253    -2.27e-06  3.27e-05  6.75e-04  2.08e-04    60.8
    9    -1188.8949642759439485    -3.11e-06  2.62e-05  5.58e-04  1.65e-04    68.8
   10    -1188.8949645567327025    -2.81e-07  8.45e-06  1.75e-04  1.37e-04    68.4
   11    -1188.8949649875580690    -4.31e-07  1.04e-05  3.09e-04  5.35e-05    48.3
   12    -1188.8949650436279626    -5.61e-08  3.78e-06  9.20e-05  2.81e-05    52.6
   13    -1188.8949651648304098    -1.21e-07  8.04e-06  3.42e-04  8.46e-06    64.0
   14    -1188.8949651531365816     1.17e-08  3.63e-06  8.87e-05  7.39e-06    40.7
   15    -1188.8949651375287431     1.56e-08  6.81e-06  2.61e-04  3.07e-06    35.4
   16    -1188.8949651561561041    -1.86e-08  4.76e-06  2.15e-04  3.47e-06    41.3
   17    -1188.8949652157389210    -5.96e-08  5.76e-06  1.69e-04  8.08e-07    57.8
                  *** Gradient check signals convergence ***

               *****************************************************
               *                     SUCCESS                       *
               *           SCF CONVERGED AFTER  17 CYCLES          *
               *****************************************************

Recomputing exchange energy using gridx3       ... done (  173.792 sec)
Old exchange energy                            :    -37.860245204 Eh
New exchange energy                            :    -37.860244399 Eh
Exchange energy change after final integration :      0.000000805 Eh
Total energy after final integration           :  -1188.894964531 Eh
             **** ENERGY FILE WAS UPDATED (tddft.en.tmp) ****

----------------
TOTAL SCF ENERGY
----------------

Total Energy       :      -1188.89496453080415 Eh          -32351.47670 eV

Components:
Nuclear Repulsion  :       2155.85769295584805 Eh           58663.87024 eV
Electronic Energy  :      -3344.75265829181080 Eh          -91015.34696 eV
One Electron Energy:      -5908.29179506765013 Eh         -160772.79327 eV
Two Electron Energy:       2563.53913677583932 Eh           69757.44631 eV

Virial components:
Potential Energy   :      -2372.33004010197146 Eh          -64554.38227 eV
Kinetic Energy     :       1183.43507557116709 Eh           32202.90557 eV
Virial Ratio       :          2.00461359399628

DFT components:
N(Alpha)           :       86.999987284366 electrons
N(Beta)            :       86.999987284366 electrons
N(Total)           :      173.999974568732 electrons
E(X)               :     -113.292657925753 Eh       
E(C)               :       -5.927366711176 Eh       
E(XC)              :     -119.220024636929 Eh       

---------------
SCF CONVERGENCE
---------------

  Last Energy change         ...    5.9583e-08  Tolerance :   1.0000e-08
  Last MAX-Density change    ...    1.6910e-04  Tolerance :   1.0000e-07
  Last RMS-Density change    ...    5.7595e-06  Tolerance :   5.0000e-09
  Last DIIS Error            ...    1.7327e-03  Tolerance :   5.0000e-07
  Last Orbital Gradient      ...    8.0800e-07  Tolerance :   1.0000e-05
  Last Orbital Rotation      ...    3.4844e-06  Tolerance :   1.0000e-05


----------------
ORBITAL ENERGIES
----------------

  NO   OCC          E(Eh)            E(eV) 
   0   2.0000     -46.871847     -1275.4478 
   1   2.0000     -14.394808      -391.7026 
   2   2.0000     -14.369788      -391.0218 
   3   2.0000     -14.369781      -391.0216 
   4   2.0000     -14.369044      -391.0016 
   5   2.0000     -10.271175      -279.4929 
   6   2.0000     -10.271146      -279.4921 
   7   2.0000     -10.259729      -279.1814 
   8   2.0000     -10.259721      -279.1812 
   9   2.0000     -10.252109      -278.9741 
  10   2.0000     -10.252095      -278.9737 
  11   2.0000     -10.250566      -278.9321 
  12   2.0000     -10.250535      -278.9312 
  13   2.0000     -10.236376      -278.5459 
  14   2.0000     -10.236137      -278.5395 
  15   2.0000     -10.232851      -278.4500 
  16   2.0000     -10.232845      -278.4499 
  17   2.0000     -10.223564      -278.1973 
  18   2.0000     -10.223559      -278.1972 
  19   2.0000     -10.219636      -278.0904 
  20   2.0000     -10.219630      -278.0903 
  21   2.0000     -10.219574      -278.0888 
  22   2.0000     -10.219566      -278.0885 
  23   2.0000     -10.217687      -278.0374 
  24   2.0000     -10.216946      -278.0172 
  25   2.0000      -3.094758       -84.2126 
  26   2.0000      -1.821804       -49.5738 
  27   2.0000      -1.816012       -49.4162 
  28   2.0000      -1.815563       -49.4040 
  29   2.0000      -0.990941       -26.9649 
  30   2.0000      -0.980708       -26.6864 
  31   2.0000      -0.978528       -26.6271 
  32   2.0000      -0.969464       -26.3805 
  33   2.0000      -0.838393       -22.8138 
  34   2.0000      -0.812765       -22.1165 
  35   2.0000      -0.808699       -22.0058 
  36   2.0000      -0.802151       -21.8276 
  37   2.0000      -0.787111       -21.4184 
  38   2.0000      -0.784938       -21.3593 
  39   2.0000      -0.779187       -21.2028 
  40   2.0000      -0.758234       -20.6326 
  41   2.0000      -0.738334       -20.0911 
  42   2.0000      -0.678966       -18.4756 
  43   2.0000      -0.672139       -18.2898 
  44   2.0000      -0.632464       -17.2102 
  45   2.0000      -0.598233       -16.2787 
  46   2.0000      -0.590416       -16.0660 
  47   2.0000      -0.586234       -15.9522 
  48   2.0000      -0.585344       -15.9280 
  49   2.0000      -0.567039       -15.4299 
  50   2.0000      -0.551982       -15.0202 
  51   2.0000      -0.536822       -14.6077 
  52   2.0000      -0.531980       -14.4759 
  53   2.0000      -0.519330       -14.1317 
  54   2.0000      -0.514937       -14.0121 
  55   2.0000      -0.505944       -13.7674 
  56   2.0000      -0.497808       -13.5460 
  57   2.0000      -0.455637       -12.3985 
  58   2.0000      -0.451105       -12.2752 
  59   2.0000      -0.436890       -11.8884 
  60   2.0000      -0.434134       -11.8134 
  61   2.0000      -0.429485       -11.6869 
  62   2.0000      -0.427830       -11.6418 
  63   2.0000      -0.421214       -11.4618 
  64   2.0000      -0.419840       -11.4244 
  65   2.0000      -0.413279       -11.2459 
  66   2.0000      -0.400984       -10.9113 
  67   2.0000      -0.397833       -10.8256 
  68   2.0000      -0.396984       -10.8025 
  69   2.0000      -0.386337       -10.5128 
  70   2.0000      -0.383319       -10.4306 
  71   2.0000      -0.380914       -10.3652 
  72   2.0000      -0.378867       -10.3095 
  73   2.0000      -0.376857       -10.2548 
  74   2.0000      -0.375502       -10.2179 
  75   2.0000      -0.371245       -10.1021 
  76   2.0000      -0.328784        -8.9467 
  77   2.0000      -0.325840        -8.8666 
  78   2.0000      -0.325526        -8.8580 
  79   2.0000      -0.297163        -8.0862 
  80   2.0000      -0.288865        -7.8604 
  81   2.0000      -0.280694        -7.6381 
  82   2.0000      -0.266660        -7.2562 
  83   2.0000      -0.257959        -7.0194 
  84   2.0000      -0.254263        -6.9189 
  85   2.0000      -0.205991        -5.6053 
  86   2.0000      -0.191715        -5.2168 
  87   0.0000      -0.087757        -2.3880 
  88   0.0000      -0.065123        -1.7721 
  89   0.0000       0.003349         0.0911 
  90   0.0000       0.015022         0.4088 
  91   0.0000       0.024477         0.6661 
  92   0.0000       0.041321         1.1244 
  93   0.0000       0.046948         1.2775 
  94   0.0000       0.057573         1.5667 
  95   0.0000       0.061588         1.6759 
  96   0.0000       0.067335         1.8323 
  97   0.0000       0.072294         1.9672 
*Only the first 10 virtual orbitals were printed.

                    ********************************
                    * MULLIKEN POPULATION ANALYSIS *
                    ********************************

-----------------------
MULLIKEN ATOMIC CHARGES
-----------------------
   0 N :   -0.318813
   1 N :   -0.339125
   2 N :   -0.339036
   3 N :   -0.332459
   4 C :   -0.160642
   5 C :   -0.160522
   6 C :    0.212721
   7 C :    0.212738
   8 C :   -0.468206
   9 C :   -0.467757
  10 C :    0.366098
  11 C :    0.365531
  12 C :    0.340965
  13 C :    0.341105
  14 C :   -0.221033
  15 C :   -0.220905
  16 C :   -0.217653
  17 C :   -0.217788
  18 C :   -0.441533
  19 C :   -0.441443
  20 C :    0.343153
  21 C :    0.343076
  22 C :   -0.221264
  23 C :   -0.221357
  24 H :    0.110147
  25 H :    0.119715
  26 H :    0.110152
  27 H :    0.119734
  28 H :    0.110378
  29 H :    0.110449
  30 H :    0.115097
  31 H :    0.115066
  32 H :    0.116674
  33 H :    0.116697
  34 H :    0.113254
  35 H :    0.113260
  36 H :    0.114446
  37 H :    0.114416
  38 Mg:    0.664665
Sum of atomic charges:    0.0000000

--------------------------------
MULLIKEN REDUCED ORBITAL CHARGES
--------------------------------
  0 N s       :     3.651441  s :     3.651441
      pz      :     1.294425  p :     3.602044
      px      :     1.180135
      py      :     1.127484
      dz2     :     0.004337  d :     0.061731
      dxz     :     0.009512
      dyz     :     0.011366
      dx2y2   :     0.018934
      dxy     :     0.017582
      f0      :     0.000656  f :     0.003597
      f+1     :     0.000312
      f-1     :     0.000341
      f+2     :     0.000505
      f-2     :     0.000111
      f+3     :     0.000946
      f-3     :     0.000725

  1 N s       :     3.639619  s :     3.639619
      pz      :     1.372320  p :     3.636252
      px      :     1.113271
      py      :     1.150662
      dz2     :     0.004476  d :     0.059613
      dxz     :     0.010525
      dyz     :     0.009354
      dx2y2   :     0.018194
      dxy     :     0.017064
      f0      :     0.000670  f :     0.003641
      f+1     :     0.000388
      f-1     :     0.000352
      f+2     :     0.000579
      f-2     :     0.000090
      f+3     :     0.000710
      f-3     :     0.000852

  2 N s       :     3.639599  s :     3.639599
      pz      :     1.372330  p :     3.636186
      px      :     1.106792
      py      :     1.157064
      dz2     :     0.004478  d :     0.059611
      dxz     :     0.011070
      dyz     :     0.008809
      dx2y2   :     0.017911
      dxy     :     0.017344
      f0      :     0.000669  f :     0.003641
      f+1     :     0.000374
      f-1     :     0.000366
      f+2     :     0.000570
      f-2     :     0.000100
      f+3     :     0.000664
      f-3     :     0.000897

  3 N s       :     3.641336  s :     3.641336
      pz      :     1.352015  p :     3.626500
      px      :     1.159240
      py      :     1.115245
      dz2     :     0.004492  d :     0.060954
      dxz     :     0.009552
      dyz     :     0.011434
      dx2y2   :     0.018242
      dxy     :     0.017234
      f0      :     0.000666  f :     0.003670
      f+1     :     0.000354
      f-1     :     0.000375
      f+2     :     0.000616
      f-2     :     0.000094
      f+3     :     0.000876
      f-3     :     0.000689

  4 C s       :     3.107222  s :     3.107222
      pz      :     1.050754  p :     2.963564
      px      :     0.907983
      py      :     1.004827
      dz2     :     0.005108  d :     0.084153
      dxz     :     0.018216
      dyz     :     0.017455
      dx2y2   :     0.025218
      dxy     :     0.018158
      f0      :     0.000633  f :     0.005703
      f+1     :     0.000194
      f-1     :     0.001051
      f+2     :     0.000381
      f-2     :     0.000775
      f+3     :     0.001335
      f-3     :     0.001335

  5 C s       :     3.107308  s :     3.107308
      pz      :     1.050799  p :     2.963396
      px      :     1.001225
      py      :     0.911372
      dz2     :     0.005130  d :     0.084117
      dxz     :     0.017057
      dyz     :     0.018562
      dx2y2   :     0.024919
      dxy     :     0.018448
      f0      :     0.000636  f :     0.005702
      f+1     :     0.001073
      f-1     :     0.000169
      f+2     :     0.000317
      f-2     :     0.000838
      f+3     :     0.001076
      f-3     :     0.001593

  6 C s       :     3.142370  s :     3.142370
      pz      :     0.879022  p :     2.464216
      px      :     0.875067
      py      :     0.710127
      dz2     :     0.003047  d :     0.166648
      dxz     :     0.028649
      dyz     :     0.038833
      dx2y2   :     0.044049
      dxy     :     0.052071
      f0      :     0.001989  f :     0.014045
      f+1     :     0.000741
      f-1     :     0.001074
      f+2     :     0.001713
      f-2     :     0.001175
      f+3     :     0.005137
      f-3     :     0.002216

  7 C s       :     3.142517  s :     3.142517
      pz      :     0.878999  p :     2.464074
      px      :     0.729393
      py      :     0.855682
      dz2     :     0.003070  d :     0.166627
      dxz     :     0.034177
      dyz     :     0.033286
      dx2y2   :     0.044872
      dxy     :     0.051222
      f0      :     0.001988  f :     0.014044
      f+1     :     0.001070
      f-1     :     0.000746
      f+2     :     0.001489
      f-2     :     0.001398
      f+3     :     0.003445
      f-3     :     0.003907

  8 C s       :     3.369435  s :     3.369435
      pz      :     1.094109  p :     3.020774
      px      :     0.961566
      py      :     0.965099
      dz2     :     0.002796  d :     0.070712
      dxz     :     0.025152
      dyz     :     0.003480
      dx2y2   :     0.030030
      dxy     :     0.009254
      f0      :     0.001529  f :     0.007286
      f+1     :     0.000696
      f-1     :     0.000676
      f+2     :     0.000408
      f-2     :     0.000784
      f+3     :     0.002070
      f-3     :     0.001123

  9 C s       :     3.368982  s :     3.368982
      pz      :     1.094037  p :     3.020767
      px      :     0.961379
      py      :     0.965351
      dz2     :     0.002796  d :     0.070723
      dxz     :     0.003502
      dyz     :     0.025130
      dx2y2   :     0.030647
      dxy     :     0.008647
      f0      :     0.001529  f :     0.007286
      f+1     :     0.000681
      f-1     :     0.000692
      f+2     :     0.000429
      f-2     :     0.000763
      f+3     :     0.001224
      f-3     :     0.001968

 10 C s       :     3.097668  s :     3.097668
      pz      :     0.873943  p :     2.350986
      px      :     0.771225
      py      :     0.705818
      dz2     :     0.003794  d :     0.170614
      dxz     :     0.035621
      dyz     :     0.037727
      dx2y2   :     0.043290
      dxy     :     0.050183
      f0      :     0.002193  f :     0.014633
      f+1     :     0.000838
      f-1     :     0.001072
      f+2     :     0.001939
      f-2     :     0.001163
      f+3     :     0.004244
      f-3     :     0.003184

 11 C s       :     3.097957  s :     3.097957
      pz      :     0.873933  p :     2.351284
      px      :     0.696770
      py      :     0.780581
      dz2     :     0.003801  d :     0.170596
      dxz     :     0.039935
      dyz     :     0.033389
      dx2y2   :     0.042023
      dxy     :     0.051449
      f0      :     0.002192  f :     0.014631
      f+1     :     0.001111
      f-1     :     0.000800
      f+2     :     0.002375
      f-2     :     0.000726
      f+3     :     0.002219
      f-3     :     0.005207

 12 C s       :     3.084461  s :     3.084461
      pz      :     0.927951  p :     2.395799
      px      :     0.688372
      py      :     0.779476
      dz2     :     0.004574  d :     0.164425
      dxz     :     0.037996
      dyz     :     0.030307
      dx2y2   :     0.042081
      dxy     :     0.049466
      f0      :     0.002200  f :     0.014350
      f+1     :     0.001117
      f-1     :     0.000799
      f+2     :     0.002286
      f-2     :     0.000617
      f+3     :     0.002206
      f-3     :     0.005126

 13 C s       :     3.084274  s :     3.084274
      pz      :     0.927952  p :     2.395826
      px      :     0.767192
      py      :     0.700682
      dz2     :     0.004576  d :     0.164442
      dxz     :     0.032056
      dyz     :     0.036253
      dx2y2   :     0.042741
      dxy     :     0.048816
      f0      :     0.002200  f :     0.014352
      f+1     :     0.000831
      f-1     :     0.001085
      f+2     :     0.001798
      f-2     :     0.001106
      f+3     :     0.004209
      f-3     :     0.003124

 14 C s       :     3.251997  s :     3.251997
      pz      :     1.019070  p :     2.877727
      px      :     0.941324
      py      :     0.917333
      dz2     :     0.005167  d :     0.083557
      dxz     :     0.021241
      dyz     :     0.007615
      dx2y2   :     0.030090
      dxy     :     0.019443
      f0      :     0.001542  f :     0.007752
      f+1     :     0.000531
      f-1     :     0.000830
      f+2     :     0.000074
      f-2     :     0.001268
      f+3     :     0.002227
      f-3     :     0.001279

 15 C s       :     3.251905  s :     3.251905
      pz      :     1.019078  p :     2.877692
      px      :     0.926436
      py      :     0.932177
      dz2     :     0.005168  d :     0.083557
      dxz     :     0.009015
      dyz     :     0.019842
      dx2y2   :     0.031082
      dxy     :     0.018450
      f0      :     0.001542  f :     0.007752
      f+1     :     0.000795
      f-1     :     0.000567
      f+2     :     0.000387
      f-2     :     0.000955
      f+3     :     0.001888
      f-3     :     0.001618

 16 C s       :     3.262831  s :     3.262831
      pz      :     0.986564  p :     2.861251
      px      :     0.934672
      py      :     0.940015
      dz2     :     0.004941  d :     0.085785
      dxz     :     0.009418
      dyz     :     0.022954
      dx2y2   :     0.030089
      dxy     :     0.018383
      f0      :     0.001519  f :     0.007785
      f+1     :     0.000777
      f-1     :     0.000552
      f+2     :     0.000476
      f-2     :     0.000963
      f+3     :     0.001904
      f-3     :     0.001593

 17 C s       :     3.262961  s :     3.262961
      pz      :     0.986577  p :     2.861257
      px      :     0.947883
      py      :     0.926797
      dz2     :     0.004945  d :     0.085784
      dxz     :     0.024814
      dyz     :     0.007557
      dx2y2   :     0.029157
      dxy     :     0.019310
      f0      :     0.001519  f :     0.007786
      f+1     :     0.000517
      f-1     :     0.000813
      f+2     :     0.000100
      f-2     :     0.001339
      f+3     :     0.002218
      f-3     :     0.001279

 18 C s       :     3.404274  s :     3.404274
      pz      :     0.992441  p :     2.949204
      px      :     0.973578
      py      :     0.983185
      dz2     :     0.002872  d :     0.080917
      dxz     :     0.003289
      dyz     :     0.032122
      dx2y2   :     0.032598
      dxy     :     0.010036
      f0      :     0.001436  f :     0.007139
      f+1     :     0.000621
      f-1     :     0.000632
      f+2     :     0.000419
      f-2     :     0.000807
      f+3     :     0.001169
      f-3     :     0.002055

 19 C s       :     3.404191  s :     3.404191
      pz      :     0.992423  p :     2.949197
      px      :     0.983258
      py      :     0.973516
      dz2     :     0.002872  d :     0.080915
      dxz     :     0.032078
      dyz     :     0.003335
      dx2y2   :     0.032238
      dxy     :     0.010393
      f0      :     0.001436  f :     0.007139
      f+1     :     0.000628
      f-1     :     0.000625
      f+2     :     0.000429
      f-2     :     0.000796
      f+3     :     0.002055
      f-3     :     0.001168

 20 C s       :     3.086244  s :     3.086244
      pz      :     0.924185  p :     2.391703
      px      :     0.707151
      py      :     0.760367
      dz2     :     0.004337  d :     0.164394
      dxz     :     0.036204
      dyz     :     0.031663
      dx2y2   :     0.042737
      dxy     :     0.049453
      f0      :     0.002215  f :     0.014506
      f+1     :     0.001082
      f-1     :     0.000855
      f+2     :     0.001811
      f-2     :     0.001132
      f+3     :     0.003181
      f-3     :     0.004231

 21 C s       :     3.086393  s :     3.086393
      pz      :     0.924207  p :     2.391644
      px      :     0.772646
      py      :     0.694791
      dz2     :     0.004339  d :     0.164383
      dxz     :     0.030646
      dyz     :     0.037211
      dx2y2   :     0.041373
      dxy     :     0.050814
      f0      :     0.002214  f :     0.014505
      f+1     :     0.000815
      f-1     :     0.001122
      f+2     :     0.002309
      f-2     :     0.000634
      f+3     :     0.005201
      f-3     :     0.002210

 22 C s       :     3.255158  s :     3.255158
      pz      :     1.009609  p :     2.873521
      px      :     0.919683
      py      :     0.944229
      dz2     :     0.005063  d :     0.084751
      dxz     :     0.007480
      dyz     :     0.023627
      dx2y2   :     0.029468
      dxy     :     0.019113
      f0      :     0.001538  f :     0.007834
      f+1     :     0.000833
      f-1     :     0.000528
      f+2     :     0.000082
      f-2     :     0.001360
      f+3     :     0.001269
      f-3     :     0.002224

 23 C s       :     3.255282  s :     3.255282
      pz      :     1.009591  p :     2.873488
      px      :     0.935851
      py      :     0.928046
      dz2     :     0.005060  d :     0.084753
      dxz     :     0.022008
      dyz     :     0.009103
      dx2y2   :     0.030227
      dxy     :     0.018355
      f0      :     0.001538  f :     0.007834
      f+1     :     0.000560
      f-1     :     0.000801
      f+2     :     0.000438
      f-2     :     0.001004
      f+3     :     0.001627
      f-3     :     0.001865

 24 H s       :     0.867868  s :     0.867868
      pz      :     0.010681  p :     0.021985
      px      :     0.004508
      py      :     0.006796

 25 H s       :     0.858423  s :     0.858423
      pz      :     0.008594  p :     0.021862
      px      :     0.004498
      py      :     0.008770

 26 H s       :     0.867863  s :     0.867863
      pz      :     0.010701  p :     0.021986
      px      :     0.006935
      py      :     0.004349

 27 H s       :     0.858401  s :     0.858401
      pz      :     0.008578  p :     0.021865
      px      :     0.008898
      py      :     0.004389

 28 H s       :     0.866801  s :     0.866801
      pz      :     0.005819  p :     0.022820
      px      :     0.003604
      py      :     0.013398

 29 H s       :     0.866731  s :     0.866731
      pz      :     0.005819  p :     0.022820
      px      :     0.013344
      py      :     0.003657

 30 H s       :     0.862406  s :     0.862406
      pz      :     0.005076  p :     0.022496
      px      :     0.003688
      py      :     0.013732

 31 H s       :     0.862439  s :     0.862439
      pz      :     0.005077  p :     0.022495
      px      :     0.013195
      py      :     0.004224

 32 H s       :     0.860928  s :     0.860928
      pz      :     0.004862  p :     0.022399
      px      :     0.013253
      py      :     0.004283

 33 H s       :     0.860903  s :     0.860903
      pz      :     0.004863  p :     0.022400
      px      :     0.003728
      py      :     0.013810

 34 H s       :     0.864207  s :     0.864207
      pz      :     0.005149  p :     0.022539
      px      :     0.013703
      py      :     0.003687

 35 H s       :     0.864201  s :     0.864201
      pz      :     0.005149  p :     0.022539
      px      :     0.003670
      py      :     0.013720

 36 H s       :     0.863099  s :     0.863099
      pz      :     0.005028  p :     0.022454
      px      :     0.013717
      py      :     0.003710

 37 H s       :     0.863131  s :     0.863131
      pz      :     0.005028  p :     0.022453
      px      :     0.004253
      py      :     0.013172

 38 Mgs       :     4.572901  s :     4.572901
      pz      :     2.086682  p :     6.470584
      px      :     2.190513
      py      :     2.193389
      dz2     :     0.033382  d :     0.291850
      dxz     :     0.027766
      dyz     :     0.029447
      dx2y2   :     0.029223
      dxy     :     0.172032



                     *******************************
                     * LOEWDIN POPULATION ANALYSIS *
                     *******************************

----------------------
LOEWDIN ATOMIC CHARGES
----------------------
   0 N :    0.193648
   1 N :    0.170891
   2 N :    0.170872
   3 N :    0.179222
   4 C :   -0.197427
   5 C :   -0.197377
   6 C :   -0.194092
   7 C :   -0.194095
   8 C :   -0.130841
   9 C :   -0.130839
  10 C :   -0.196452
  11 C :   -0.196368
  12 C :   -0.204083
  13 C :   -0.204160
  14 C :   -0.121197
  15 C :   -0.121203
  16 C :   -0.109336
  17 C :   -0.109347
  18 C :   -0.074457
  19 C :   -0.074442
  20 C :   -0.207365
  21 C :   -0.207309
  22 C :   -0.120817
  23 C :   -0.120810
  24 H :    0.148570
  25 H :    0.145888
  26 H :    0.148559
  27 H :    0.145887
  28 H :    0.158540
  29 H :    0.158537
  30 H :    0.139502
  31 H :    0.139499
  32 H :    0.141188
  33 H :    0.141189
  34 H :    0.161452
  35 H :    0.161452
  36 H :    0.139535
  37 H :    0.139533
  38 Mg:    0.328051

-------------------------------
LOEWDIN REDUCED ORBITAL CHARGES
-------------------------------
  0 N s       :     2.979171  s :     2.979171
      pz      :     1.137202  p :     3.598698
      px      :     1.253663
      py      :     1.207832
      dz2     :     0.016475  d :     0.210146
      dxz     :     0.024201
      dyz     :     0.031248
      dx2y2   :     0.073913
      dxy     :     0.064309
      f0      :     0.001165  f :     0.018337
      f+1     :     0.001185
      f-1     :     0.001390
      f+2     :     0.003106
      f-2     :     0.000440
      f+3     :     0.006512
      f-3     :     0.004538

  1 N s       :     2.976754  s :     2.976754
      pz      :     1.204013  p :     3.632051
      px      :     1.184660
      py      :     1.243378
      dz2     :     0.016304  d :     0.201943
      dxz     :     0.030521
      dyz     :     0.023998
      dx2y2   :     0.069901
      dxy     :     0.061219
      f0      :     0.001141  f :     0.018361
      f+1     :     0.001351
      f-1     :     0.001243
      f+2     :     0.003496
      f-2     :     0.000301
      f+3     :     0.004704
      f-3     :     0.006125

  2 N s       :     2.976758  s :     2.976758
      pz      :     1.204035  p :     3.632072
      px      :     1.198771
      py      :     1.229267
      dz2     :     0.016308  d :     0.201938
      dxz     :     0.030311
      dyz     :     0.024211
      dx2y2   :     0.068970
      dxy     :     0.062139
      f0      :     0.001141  f :     0.018359
      f+1     :     0.001423
      f-1     :     0.001171
      f+2     :     0.003435
      f-2     :     0.000361
      f+3     :     0.004442
      f-3     :     0.006386

  3 N s       :     2.977976  s :     2.977976
      pz      :     1.187918  p :     3.619655
      px      :     1.238176
      py      :     1.193562
      dz2     :     0.016316  d :     0.204580
      dxz     :     0.025247
      dyz     :     0.032165
      dx2y2   :     0.069321
      dxy     :     0.061531
      f0      :     0.001123  f :     0.018568
      f+1     :     0.001197
      f-1     :     0.001376
      f+2     :     0.003698
      f-2     :     0.000318
      f+3     :     0.006271
      f-3     :     0.004585

  4 C s       :     2.766587  s :     2.766587
      pz      :     1.034077  p :     3.024570
      px      :     0.987903
      py      :     1.002590
      dz2     :     0.041788  d :     0.366139
      dxz     :     0.050520
      dyz     :     0.095109
      dx2y2   :     0.093061
      dxy     :     0.085660
      f0      :     0.004060  f :     0.040132
      f+1     :     0.003193
      f-1     :     0.004197
      f+2     :     0.004475
      f-2     :     0.005258
      f+3     :     0.009220
      f-3     :     0.009729

  5 C s       :     2.766598  s :     2.766598
      pz      :     1.034074  p :     3.024578
      px      :     1.001673
      py      :     0.988831
      dz2     :     0.041935  d :     0.366072
      dxz     :     0.094988
      dyz     :     0.050438
      dx2y2   :     0.088658
      dxy     :     0.090053
      f0      :     0.004072  f :     0.040128
      f+1     :     0.004216
      f-1     :     0.003156
      f+2     :     0.004405
      f-2     :     0.005338
      f+3     :     0.007459
      f-3     :     0.011482

  6 C s       :     2.712529  s :     2.712529
      pz      :     0.814450  p :     2.765687
      px      :     1.010239
      py      :     0.940998
      dz2     :     0.042426  d :     0.638562
      dxz     :     0.085747
      dyz     :     0.113197
      dx2y2   :     0.195032
      dxy     :     0.202160
      f0      :     0.005210  f :     0.077314
      f+1     :     0.004133
      f-1     :     0.006301
      f+2     :     0.011182
      f-2     :     0.006628
      f+3     :     0.030553
      f-3     :     0.013306

  7 C s       :     2.712543  s :     2.712543
      pz      :     0.814502  p :     2.765693
      px      :     0.934107
      py      :     1.017084
      dz2     :     0.042462  d :     0.638546
      dxz     :     0.101191
      dyz     :     0.097723
      dx2y2   :     0.192459
      dxy     :     0.204711
      f0      :     0.005209  f :     0.077313
      f+1     :     0.005984
      f-1     :     0.004457
      f+2     :     0.010200
      f-2     :     0.007609
      f+3     :     0.020598
      f-3     :     0.023257

  8 C s       :     2.746202  s :     2.746202
      pz      :     0.964022  p :     2.978316
      px      :     1.028375
      py      :     0.985919
      dz2     :     0.025350  d :     0.366333
      dxz     :     0.076210
      dyz     :     0.011489
      dx2y2   :     0.156004
      dxy     :     0.097280
      f0      :     0.003254  f :     0.039990
      f+1     :     0.004735
      f-1     :     0.003086
      f+2     :     0.002061
      f-2     :     0.005680
      f+3     :     0.012342
      f-3     :     0.008832

  9 C s       :     2.746216  s :     2.746216
      pz      :     0.964008  p :     2.978308
      px      :     0.983595
      py      :     1.030705
      dz2     :     0.025352  d :     0.366327
      dxz     :     0.011727
      dyz     :     0.075991
      dx2y2   :     0.153435
      dxy     :     0.099823
      f0      :     0.003255  f :     0.039988
      f+1     :     0.003063
      f-1     :     0.004757
      f+2     :     0.002165
      f-2     :     0.005577
      f+3     :     0.008956
      f-3     :     0.012215

 10 C s       :     2.697921  s :     2.697921
      pz      :     0.813547  p :     2.762586
      px      :     1.005950
      py      :     0.943089
      dz2     :     0.043662  d :     0.654867
      dxz     :     0.094166
      dyz     :     0.117252
      dx2y2   :     0.197579
      dxy     :     0.202207
      f0      :     0.005014  f :     0.081079
      f+1     :     0.004624
      f-1     :     0.006061
      f+2     :     0.012558
      f-2     :     0.007800
      f+3     :     0.026231
      f-3     :     0.018790

 11 C s       :     2.697940  s :     2.697940
      pz      :     0.813592  p :     2.762583
      px      :     0.942413
      py      :     1.006577
      dz2     :     0.043672  d :     0.654783
      dxz     :     0.122321
      dyz     :     0.089065
      dx2y2   :     0.193295
      dxy     :     0.206430
      f0      :     0.005013  f :     0.081063
      f+1     :     0.006322
      f-1     :     0.004364
      f+2     :     0.014938
      f-2     :     0.005418
      f+3     :     0.013432
      f-3     :     0.031577

 12 C s       :     2.695342  s :     2.695342
      pz      :     0.855350  p :     2.792455
      px      :     0.925153
      py      :     1.011952
      dz2     :     0.043566  d :     0.637378
      dxz     :     0.116752
      dyz     :     0.080450
      dx2y2   :     0.197599
      dxy     :     0.199011
      f0      :     0.005018  f :     0.078908
      f+1     :     0.006266
      f-1     :     0.004549
      f+2     :     0.014055
      f-2     :     0.004568
      f+3     :     0.013674
      f-3     :     0.030778

 13 C s       :     2.695327  s :     2.695327
      pz      :     0.855344  p :     2.792479
      px      :     1.012613
      py      :     0.924522
      dz2     :     0.043575  d :     0.637435
      dxz     :     0.084100
      dyz     :     0.113126
      dx2y2   :     0.198179
      dxy     :     0.198455
      f0      :     0.005019  f :     0.078919
      f+1     :     0.004832
      f-1     :     0.005984
      f+2     :     0.011303
      f-2     :     0.007324
      f+3     :     0.025934
      f-3     :     0.018523

 14 C s       :     2.762835  s :     2.762835
      pz      :     0.917748  p :     2.940741
      px      :     1.026927
      py      :     0.996067
      dz2     :     0.027432  d :     0.370998
      dxz     :     0.067999
      dyz     :     0.018304
      dx2y2   :     0.152891
      dxy     :     0.104372
      f0      :     0.003070  f :     0.046623
      f+1     :     0.003759
      f-1     :     0.003872
      f+2     :     0.000537
      f-2     :     0.008844
      f+3     :     0.017148
      f-3     :     0.009394

 15 C s       :     2.762827  s :     2.762827
      pz      :     0.917760  p :     2.940749
      px      :     1.008285
      py      :     1.014704
      dz2     :     0.027437  d :     0.371004
      dxz     :     0.022218
      dyz     :     0.064095
      dx2y2   :     0.152539
      dxy     :     0.104715
      f0      :     0.003070  f :     0.046624
      f+1     :     0.003915
      f-1     :     0.003716
      f+2     :     0.002297
      f-2     :     0.007086
      f+3     :     0.014312
      f-3     :     0.012229

 16 C s       :     2.763291  s :     2.763291
      pz      :     0.891092  p :     2.919465
      px      :     1.009495
      py      :     1.018878
      dz2     :     0.027310  d :     0.379372
[...]
     Transition      Energy     Energy  Wavelength fosc(P2)      P2        PX        PY        PZ   
                      (eV)      (cm-1)    (nm)                 (au**2)    (au)      (au)      (au)  
----------------------------------------------------------------------------------------------------
  0-1A  ->  1-1A    2.459454   19836.8   504.1   0.123131427   0.01669   0.08170  -0.10009   0.00098
  0-1A  ->  2-1A    2.584078   20842.0   479.8   0.000188781   0.00003   0.00402   0.00328   0.00001
  0-1A  ->  3-1A    3.766429   30378.3   329.2   0.010879354   0.00226  -0.03005   0.03682  -0.00061
  0-1A  ->  4-1A    3.799259   30643.1   326.3   0.000722375   0.00015   0.00946   0.00786   0.00002
  0-1A  ->  5-1A    3.963158   31965.0   312.8   0.017089135   0.00373  -0.03860   0.04736  -0.00002
  0-1A  ->  6-1A    3.989326   32176.1   310.8   0.000001011   0.00000   0.00043   0.00018   0.00002
  0-1A  ->  7-1A    4.295180   34643.0   288.7   0.014391288   0.00341  -0.04522  -0.03691  -0.00013
  0-1A  ->  8-1A    4.336219   34974.0   285.9   0.000439656   0.00011  -0.00650   0.00793  -0.00006
  0-1A  ->  9-1A    4.594386   37056.2   269.9   0.000068767   0.00002  -0.00188   0.00230  -0.00293
  0-1A  -> 10-1A    4.610696   37187.8   268.9   0.000410162   0.00010   0.00791   0.00645   0.00002
  0-1A  -> 11-1A    4.647880   37487.7   266.8   0.002469464   0.00063  -0.01586   0.01948  -0.00131
  0-1A  -> 12-1A    4.739032   38222.9   261.6   0.000183062   0.00005  -0.00536  -0.00437   0.00001
  0-1A  -> 13-1A    4.778510   38541.3   259.5   0.000090420   0.00002  -0.00373  -0.00314  -0.00000
  0-1A  -> 14-1A    4.814673   38833.0   257.5   0.009173183   0.00243   0.03121  -0.03821  -0.00044
  0-1A  -> 15-1A    4.963060   40029.8   249.8   0.000023630   0.00001   0.00198   0.00159   0.00001
  0-1A  -> 16-1A    5.060791   40818.0   245.0   0.000257138   0.00007  -0.00533   0.00651   0.00092
  0-1A  -> 17-1A    5.122431   41315.2   242.0   0.003129768   0.00088   0.01881  -0.02302   0.00019
  0-1A  -> 18-1A    5.143474   41484.9   241.1   0.000000766   0.00000   0.00035   0.00030   0.00001
  0-1A  -> 19-1A    5.209396   42016.6   238.0   0.011407124   0.00328  -0.03617   0.04435   0.00075
  0-1A  -> 20-1A    5.335801   43036.1   232.4   0.000708940   0.00021   0.01123   0.00908   0.00003
  0-1A  -> 21-1A    5.398942   43545.4   229.6   0.005956542   0.00177   0.00049  -0.00046  -0.04210
  0-1A  -> 22-1A    5.416402   43686.2   228.9   0.000000628   0.00000   0.00034   0.00025  -0.00010
  0-1A  -> 23-1A    5.457382   44016.8   227.2   0.008594331   0.00259   0.03213  -0.03939   0.00136
  0-1A  -> 24-1A    5.601645   45180.3   221.3   0.001624190   0.00050  -0.01736  -0.01415  -0.00003
  0-1A  -> 25-1A    5.718916   46126.2   216.8   0.000142542   0.00004  -0.00519  -0.00425  -0.00000
  0-1A  -> 26-1A    5.765111   46498.8   215.1   0.002451538   0.00078   0.01763  -0.02164  -0.00042
  0-1A  -> 27-1A    5.943151   47934.8   208.6   0.001355304   0.00044   0.01330  -0.01631   0.00114
  0-1A  -> 28-1A    5.949904   47989.2   208.4   0.000000157   0.00000   0.00016   0.00015   0.00003
  0-1A  -> 29-1A    5.998973   48385.0   206.7   0.014744362   0.00488   0.05413   0.04411   0.00002
  0-1A  -> 30-1A    6.005158   48434.9   206.5   0.005780593   0.00191  -0.00043   0.00059   0.04374

------------------------------------------------------------------------------------------
                     CD SPECTRUM VIA TRANSITION ELECTRIC DIPOLE MOMENTS    
------------------------------------------------------------------------------------------
     Transition      Energy     Energy  Wavelength    R        MX        MY        MZ   
                      (eV)      (cm-1)    (nm)   (1e40*cgs)   (au)      (au)      (au)  
------------------------------------------------------------------------------------------
  0-1A  ->  1-1A    2.459454   19836.8   504.1   -2.70988   0.00636  -0.00502  -0.94146
  0-1A  ->  2-1A    2.584078   20842.0   479.8   -0.10647   0.00129   0.00106   0.00028
  0-1A  ->  3-1A    3.766429   30378.3   329.2   -4.81708  -0.00560   0.00767  -0.25220
  0-1A  ->  4-1A    3.799259   30643.1   326.3    0.44247  -0.00112  -0.00094  -0.00039
  0-1A  ->  5-1A    3.963158   31965.0   312.8  -16.45673  -0.00798   0.00880   0.33476
  0-1A  ->  6-1A    3.989326   32176.1   310.8   -1.86304   0.00138   0.00102  -0.00058
  0-1A  ->  7-1A    4.295180   34643.0   288.7   -8.46274  -0.00407  -0.00324  -0.00021
  0-1A  ->  8-1A    4.336219   34974.0   285.9   -1.07755  -0.00284   0.00215   0.45613
  0-1A  ->  9-1A    4.594386   37056.2   269.9   27.95894  -0.19680   0.24115   0.03437
  0-1A  -> 10-1A    4.610696   37187.8   268.9   -0.00119   0.00182   0.00176  -0.00035
  0-1A  -> 11-1A    4.647880   37487.7   266.8  -16.11061   0.01844  -0.02357   0.34937
  0-1A  -> 12-1A    4.739032   38222.9   261.6    3.74129  -0.00584  -0.00485   0.00009
  0-1A  -> 13-1A    4.778510   38541.3   259.5   -4.85266   0.00623   0.00509  -0.00028
  0-1A  -> 14-1A    4.814673   38833.0   257.5   -0.68941   0.00137  -0.00124  -0.17155
  0-1A  -> 15-1A    4.963060   40029.8   249.8    3.25385  -0.00561  -0.00457   0.00002
  0-1A  -> 16-1A    5.060791   40818.0   245.0    5.75845  -0.01537   0.01877   0.01353
  0-1A  -> 17-1A    5.122431   41315.2   242.0   -6.97952  -0.00695   0.00835   0.04090
  0-1A  -> 18-1A    5.143474   41484.9   241.1   -4.92740  -0.20373  -0.16620  -0.00044
  0-1A  -> 19-1A    5.209396   42016.6   238.0   12.54840  -0.00316   0.00166   0.76567
  0-1A  -> 20-1A    5.335801   43036.1   232.4    0.16013   0.00341   0.00281  -0.00060
  0-1A  -> 21-1A    5.398942   43545.4   229.6   -0.49853  -0.01401   0.01677  -0.01443
  0-1A  -> 22-1A    5.416402   43686.2   228.9   -1.04054   0.07748   0.06323   0.00013
  0-1A  -> 23-1A    5.457382   44016.8   227.2    3.79153   0.00556  -0.00679  -0.01021
  0-1A  -> 24-1A    5.601645   45180.3   221.3    0.06537  -0.00170  -0.00143   0.00034
  0-1A  -> 25-1A    5.718916   46126.2   216.8    0.02287  -0.00524  -0.00449  -0.00023
  0-1A  -> 26-1A    5.765111   46498.8   215.1    5.15332   0.01265  -0.01504  -0.19849
  0-1A  -> 27-1A    5.943151   47934.8   208.6    0.03641   0.00398  -0.00461  -0.09623
  0-1A  -> 28-1A    5.949904   47989.2   208.4   -0.02179  -0.00516  -0.00419   0.00010
  0-1A  -> 29-1A    5.998973   48385.0   206.7   -3.79338  -0.01353  -0.01085  -0.00005
  0-1A  -> 30-1A    6.005158   48434.9   206.5    0.29836  -0.01340   0.01630  -0.00622

------------------------------------------------------------------------------------------
                     CD SPECTRUM VIA TRANSITION VELOCITY DIPOLE MOMENTS    
------------------------------------------------------------------------------------------
     Transition      Energy     Energy  Wavelength    R        MX        MY        MZ   
                      (eV)      (cm-1)    (nm)   (1e40*cgs)   (au)      (au)      (au)  
------------------------------------------------------------------------------------------
  0-1A  ->  1-1A    2.459454   19836.8   504.1    0.53247   0.00636  -0.00502  -0.94146
  0-1A  ->  2-1A    2.584078   20842.0   479.8    0.04292   0.00129   0.00106   0.00028
  0-1A  ->  3-1A    3.766429   30378.3   329.2    2.06028  -0.00560   0.00767  -0.25220
  0-1A  ->  4-1A    3.799259   30643.1   326.3   -0.06079  -0.00112  -0.00094  -0.00039
  0-1A  ->  5-1A    3.963158   31965.0   312.8    2.32165  -0.00798   0.00880   0.33476
  0-1A  ->  6-1A    3.989326   32176.1   310.8    0.00249   0.00138   0.00102  -0.00058
  0-1A  ->  7-1A    4.295180   34643.0   288.7    0.90614  -0.00407  -0.00324  -0.00021
  0-1A  ->  8-1A    4.336219   34974.0   285.9    0.02322  -0.00284   0.00215   0.45613
  0-1A  ->  9-1A    4.594386   37056.2   269.9    2.29839  -0.19680   0.24115   0.03437
  0-1A  -> 10-1A    4.610696   37187.8   268.9    0.07162   0.00182   0.00176  -0.00035
  0-1A  -> 11-1A    4.647880   37487.7   266.8   -3.33861   0.01844  -0.02357   0.34937
  0-1A  -> 12-1A    4.739032   38222.9   261.6    0.14210  -0.00584  -0.00485   0.00009
  0-1A  -> 13-1A    4.778510   38541.3   259.5   -0.10540   0.00623   0.00509  -0.00028
  0-1A  -> 14-1A    4.814673   38833.0   257.5    0.44202   0.00137  -0.00124  -0.17155
  0-1A  -> 15-1A    4.963060   40029.8   249.8   -0.04757  -0.00561  -0.00457   0.00002
  0-1A  -> 16-1A    5.060791   40818.0   245.0    0.54938  -0.01537   0.01877   0.01353
  0-1A  -> 17-1A    5.122431   41315.2   242.0   -0.78959  -0.00695   0.00835   0.04090
  0-1A  -> 18-1A    5.143474   41484.9   241.1   -0.30543  -0.20373  -0.16620  -0.00044
  0-1A  -> 19-1A    5.209396   42016.6   238.0    1.87199  -0.00316   0.00166   0.76567
  0-1A  -> 20-1A    5.335801   43036.1   232.4    0.15354   0.00341   0.00281  -0.00060
  0-1A  -> 21-1A    5.398942   43545.4   229.6    1.40847  -0.01401   0.01677  -0.01443
  0-1A  -> 22-1A    5.416402   43686.2   228.9    0.09960   0.07748   0.06323   0.00013
  0-1A  -> 23-1A    5.457382   44016.8   227.2    1.01545   0.00556  -0.00679  -0.01021
  0-1A  -> 24-1A    5.601645   45180.3   221.3    0.11400  -0.00170  -0.00143   0.00034
  0-1A  -> 25-1A    5.718916   46126.2   216.8    0.10376  -0.00524  -0.00449  -0.00023
  0-1A  -> 26-1A    5.765111   46498.8   215.1    1.40492   0.01265  -0.01504  -0.19849
  0-1A  -> 27-1A    5.943151   47934.8   208.6    0.03893   0.00398  -0.00461  -0.09623
  0-1A  -> 28-1A    5.949904   47989.2   208.4   -0.00321  -0.00516  -0.00419   0.00010
  0-1A  -> 29-1A    5.998973   48385.0   206.7   -2.58985  -0.01353  -0.01085  -0.00005
  0-1A  -> 30-1A    6.005158   48434.9   206.5   -0.54821  -0.01340   0.01630  -0.00622

Total run time:     4862.130 sec

           *** ORCA-CIS/TD-DFT FINISHED WITHOUT ERROR ***
-----------------------
CIS/TD-DFT TOTAL ENERGY
-----------------------

    E(SCF)  =  -1188.894964531 Eh
    DE(CIS) =      0.090383292 Eh (Root  1)
    ----------------------------- ---------
    E(tot)  =  -1188.804581238 Eh


Maximum memory used throughout the entire CIS-calculation: 2684.2 MB
=> NOW LEAVING ORCA_CIS

-------------------------   --------------------
FINAL SINGLE POINT ENERGY     -1188.804581238321
-------------------------   --------------------



           ************************************************************
           *        Program running with 4 parallel MPI-processes     *
           *              working on a common directory               *
           ************************************************************

------------------------------------------------------------------------------
                              ORCA PROPERTY CALCULATIONS
------------------------------------------------------------------------------

GBWName                                 ... tddft.gbw
Number of atoms                         ...     39
Number of basis functions               ...    860
Max core memory                         ...   3000 MB

Electric properties:
Dipole moment                           ... YES
Quadrupole moment                       ...  NO
Static polarizability (Dipole/Dipole)   ...  NO
Static polarizability (Dipole/Quad.)    ...  NO
Static polarizability (Quad./Quad.)     ...  NO
Static polarizability (Velocity)        ...  NO
Static hyperpolarizability              ...  NO

Atomic electric properties:
Dipole moment                           ...  NO
Quadrupole moment                       ...  NO
Static polarizability                   ...  NO

Choice of electric origin               ... Center of mass
Position of electric origin             ...     0.020726     0.037348     0.001110

General magnetic properties:
Magnetizability                         ...  NO

EPR properties:
g-Tensor (aka g-matrix)                 ...  NO
Zero-Field splitting spin-orbit         ...  NO
Zero-field splitting spin-spin          ...  NO
Hyperfine couplings                     ...  NO (   0 nuclei)
Quadrupole couplings                    ...  NO (   0 nuclei)
Contact density                         ...  NO (   0 nuclei)

NMR properties:
Chemical shifts                         ...  NO (   0 nuclei)
Spin-rotation constants                 ...  NO (   0 nuclei)
Spin-spin couplings                     ...  NO (   0 nuclei,    0 pairs)

Choice of magnetic origin               ... GIAO
Position of magnetic origin             ...     0.000000     0.000000     0.000000

Properties with geometric perturbations:
SCF Hessian                             ...  NO
IR spectrum                             ...  NO
VCD spectrum                            ...  NO
X-ray spectroscopy properties:
SCF XES/XAS/RIXS spectra                ...  NO

SCF SOC stabilization energy            ...  NO
Diagonal Born-Oppenheimer correction    ...  NO

-------------
DIPOLE MOMENT
-------------

Method             : SCF
Type of density    : Electron Density
Multiplicity       :   1
Irrep              :   0
Energy             : -1188.8949645308041454 Eh
Basis              : AO
                                X                 Y                 Z
Electronic contribution:     -5.643207184      -4.605537871      -0.011530882
Nuclear contribution   :      6.309094870       5.149182336       0.012909410
                        -----------------------------------------
Total Dipole Moment    :      0.665887686       0.543644465       0.001378527
                        -----------------------------------------
Magnitude (a.u.)       :      0.859626439
Magnitude (Debye)      :      2.184996763



--------------------
Rotational spectrum 
--------------------
 
Rotational constants in cm-1:             0.008906             0.008560             0.004372 
Rotational constants in MHz :           266.993354           256.633129           131.080005 

Dipole components along the rotational axes: 
x,y,z [a.u.] :     0.859626    -0.000469    -0.000212 
x,y,z [Debye]:     2.184996    -0.001193    -0.000538 

 

Dipole moment calculation done in   0.0 sec 

Maximum memory used throughout the entire PROP-calculation: 88.5 MB

--------------------------------
SUGGESTED CITATIONS FOR THIS RUN
--------------------------------

Below you find a list of papers that are relevant to this ORCA run
We neither can nor want to force you to cite these papers, but we appreciate if you do
You receive ORCA, which is the product of decades of hard work by many enthusiastic individuals, for free
The only thing we kindly ask in return is that you cite our papers,
We deeply appreciate it, if you show your appreciation for ORCA by not just citing the generic ORCA reference.

Please note that relegating all ORCA citations to the supporting information does *not* help us.
SI sections are not indexed - citations you put there will not count into any citation statistics
But we need these citations in order to attract the funding resources that allow us to do what we are doing

Therefore, if you are a happy ORCA user, please consider citing a few of the papers listed below in the main body of your paper

In addition to the list printed below, the program has created the file tddft.bibtex that contains the list in bibtex format
You can import this file easily into all common literature databanks and citation aid programs

It goes without saying that in many instances, there are alternative algorithms to achieve similar
results as the ones you have gotten from ORCA. It is, of course, also the case that in some instances
ORCA just re-implements algorithms worked out by others. We are fully aware of that and we are also
fully appreciative of our colleagues work. Hence this citation list should not be read as indicating
that the listed papers, which are focused on our own work, are the only ones worth citing. It simply
meant to make it easier for users to cite ORCA specific papers. It is not a substitute for doing your
own literature research and citing the relevant literature in a scientifically appropriate manner.

List of essential papers. We consider these as the minimum necessary citations

  1. Neese, F.
     Software update: the ORCA program system, version 6.0
     WIRES Comput. Molec. Sci. 2025 15(1), e70019
     doi.org/10.1002/wcms.70019

List of papers to cite with high priority. The work reported in these papers was absolutely
necessary for this run to complete.
Our perspective: the developers of density functionals and basis sets usually get cited in chemistry papers
Good! But without the algorithms to do something with them, the functionals or basis sets would not do anything.
Hence, in our opinion, the algorithm design and method developments papers are equally worthy of getting cited

  1. Neese, F.; Olbrich, G.
     Efficient use of the resolution of the identity approximation in time-dependent density functional calculations with hybrid density functionals
     Chem. Phys. Lett. 2002 362 , 170-178
     doi.org/10.1016/s0009-2614(02)01053-9
  2. Neese, F.
     An improvement of the resolution of the identity approximation for the formation of the Coulomb matrix
     J. Comp. Chem. 2003 24(14), 1740-1747
     doi.org/10.1002/jcc.10318
  3. Neese, F.; Wennmohs, F.; Hansen, A.; Becker, U.
     Efficient, approximate and parallel Hartree-Fock and hybrid DFT calculations. A 'chain-of-spheres' algorithm for the Hartree-Fock exchange
     Chem. Phys. 2009 356(1-3), 98-109
     doi.org/10.1016/j.chemphys.2008.10.036
  4. Helmich-Paris, B.; de Souza, B.; Neese, F.; Izsák, R.
     An improved chain of spheres for exchange algorithm
     J. Chem. Phys. 2021 155(10), 104109
     doi.org/10.1063/5.0058766
  5. Neese, F.
     The SHARK Integral Generation and Digestion System
     J. Comp. Chem. 2022 44(3), 381
     doi.org/10.1002/jcc.26942

List of suggested additional citations. These are papers that are important in the 'surrounding' of 
of this run, or papers that preceded the highly important papers. If you like your results we are grateful for a citation.

  1. Izsak, R.; Neese, F.
     An overlap fitted chain of spheres exchange method
     J. Chem. Phys. 2011 135 , 144105
     doi.org/10.1063/1.3646921
  2. Izsak, R.; Hansen, A.; Neese, F.
     The resolution of identity and chain of spheres approximations for the LPNO-CCSD singles Fock term
     Molec. Phys. 2012 110 , 2413-2417
     doi.org/10.1080/00268976.2012.687466
  3. Neese, F.
     The ORCA program system
     WIRES Comput. Molec. Sci. 2012 2(1), 73-78
     doi.org/10.1002/wcms.81
  4. Izsak, R.; Neese, F.; Klopper, W.
     Robust fitting techniques in the chain of spheres approximation to the Fock exchange: The role of the complementary space
     J. Chem. Phys. 2013 139 , 
     doi.org/10.1063/1.4819264
  5. Neese, F.
     Software update: the ORCA program system, version 4.0
     WIRES Comput. Molec. Sci. 2018 8(1), 1-6
     doi.org/10.1002/wcms.1327
  6. Neese, F.; Wennmohs, F.; Becker, U.; Riplinger, C.
     The ORCA quantum chemistry program package
     J. Chem. Phys. 2020 152(22), 224108
     doi.org/10.1063/5.0004608
  7. Neese, F.
     Software update: The ORCA program system—Version 5.0
     WIRES Comput. Molec. Sci. 2022 12(1), e1606
     doi.org/10.1002/wcms.1606

List of optional additional citations

  1. Neese, F.
     Approximate second-order SCF convergence for spin unrestricted wavefunctions
     Chem. Phys. Lett. 2000 325(1-3), 93-98
     doi.org/10.1016/s0009-2614(00)00662-x

Timings for individual modules:

Sum of individual times          ...     6029.716 sec (= 100.495 min)
Startup calculation              ...       16.556 sec (=   0.276 min)   0.3 %
SCF iterations                   ...     1148.997 sec (=  19.150 min)  19.1 %
Property integrals               ...        1.034 sec (=   0.017 min)   0.0 %
Property calculations            ...        0.644 sec (=   0.011 min)   0.0 %
CIS module                       ...     4862.485 sec (=  81.041 min)  80.6 %
                             ****ORCA TERMINATED NORMALLY****
TOTAL RUN TIME: 0 days 1 hours 40 minutes 30 seconds 487 msec
