
                                 *****************
                                 * O   R   C   A *
                                 *****************

                                            #,                                       
                                            ###                                      
                                            ####                                     
                                            #####                                    
                                            ######                                   
                                           ########,                                 
                                     ,,################,,,,,                         
                               ,,#################################,,                 
                          ,,##########################################,,             
                       ,#########################################, ''#####,          
                    ,#############################################,,   '####,        
                  ,##################################################,,,,####,       
                ,###########''''           ''''###############################       
              ,#####''   ,,,,##########,,,,          '''####'''          '####       
            ,##' ,,,,###########################,,,                        '##       
           ' ,,###''''                  '''############,,,                           
         ,,##''                                '''############,,,,        ,,,,,,###''
      ,#''                                            '''#######################'''  
     '                                                          ''''####''''         
             ,#######,   #######,   ,#######,      ##                                
            ,#'     '#,  ##    ##  ,#'     '#,    #''#        ,####,    ,#,          
            ##       ##  ##   ,#'  ##            #'  '#       #'       ,# #          
            ##       ##  #######   ##           ,######,      #####,      #          
            '#,     ,#'  ##    ##  '#,     ,#' ,#      #,     #,   #      #          
             '#######'   ##     ##  '#######'  #'      '#     '####' #    #          



                #########################################################
                #                        -***-                          #
                #          Department of theory and spectroscopy        #
                #                                                       #
                #                      Frank Neese                      #
                #                                                       #
                #     Directorship, Architecture, Infrastructure        #
                #                    SHARK, DRIVERS                     #
                #        Core code/Algorithms in most modules           #
                #                                                       #
                #        Max Planck Institute fuer Kohlenforschung      #
                #                Kaiser Wilhelm Platz 1                 #
                #                 D-45470 Muelheim/Ruhr                 #
                #                      Germany                          #
                #                                                       #
                #                  All rights reserved                  #
                #                        -***-                          #
                #########################################################


                         Program Version 6.1.1  -  RELEASE   -
                                (GIT: $487d211c$)
                          ($2025-11-21 10:33:24 +0100$)


 With contributions from (in alphabetic order):
[Max-Planck-Institut fuer Kohlenforschung]                               
  Daniel Aravena         : Magnetic Suceptibility                        
  Michael Atanasov       : Ab Initio Ligand Field Theory (pilot matlab implementation)
  Alexander A. Auer      : GIAO ZORA, VPT2 properties, NMR spectrum      
  Ute Becker             : All parallelization in ORCA, NUMFREQ, NUMCALC 
  Giovanni Bistoni       : ED, misc. LED, open-shell LED, HFLD           
  Dmytro Bykov           : pre 5.0 version of the SCF Hessian            
  Marcos Casanova-Páez   : Triplet and SCS-CIS(D). UHF-(DLPNO)-IP/EA/STEOM-CCSD. UHF-CVS-IP/STEOM-CCSD   
  Vijay G. Chilkuri      : MRCI spin determinant printing, contributions to CSF-ICE 
  Pauline Colinet        : FMM embedding                                 
  Dipayan Datta          : RHF DLPNO-CCSD density                        
  Achintya Kumar Dutta   : EOM-CC, STEOM-CC                              
  Nicolas Foglia         : Exact transition moments, OPA infrastructure, MCD improvements    
  Dmitry Ganyushin       : Spin-Orbit,Spin-Spin,Magnetic field MRCI      
  Miquel Garcia-Rates    : C-PCM and meta-GGA Hessian, CCSD/C-PCM, Gaussian charge scheme 
  Tiago L. C. Gouveia    : GS-ROHF, GS-ROCIS                             
  Yang Guo               : DLPNO-NEVPT2, F12-NEVPT2, CIM, IAO-localization        
  Andreas Hansen         : Spin unrestricted coupled pair/coupled cluster methods 
  Ingolf Harden          : AUTO-CI MPn and infrastructure                
  Benjamin Helmich-Paris : MC-RPA, TRAH-(SCF,CASSCF), AVAS, COSX integrals, SCF dyn. polar., MC-PDFT, srDFT 
  Lee Huntington         : MR-EOM, pCC                                   
  Robert Izsak           : Overlap fitted RIJCOSX, COSX-SCS-MP3, EOM     
  Riya Kayal             : Wick's Theorem for AUTO-CI, AUTO-CI UHF-CCSDT 
  Emily Kempfer          : AUTO-CI RHF CISDT and CCSDT, approximate NEVPT4
  Christian Kollmar      : KDIIS, OOCD, Brueckner-CCSD(T), CCSD density, CASPT2, CASPT2-K, improved NEVPT2 
  Axel Koslowski         : Symmetry handling                             
  Simone Kossmann        : meta-GGA functionals, TD-DFT gradient, OOMP2, (MP2 Hessian; deprecated post 5.0) 
  Lucas Lang             : DCDCAS, Hyperfine gauge corrections, ICE-SOC+SSC
  Marvin Lechner         : AUTO-CI (C++ implementation), FIC-MRCC        
  Spencer Leger          : CASSCF response                               
  Dagmar Lenk            : GEPOL surface, SMD, ORCA-2-JSON               
  Dimitrios Liakos       : Extrapolation schemes; Compound Job, Property file
  Dimitrios Manganas     : Further ROCIS development; embedding schemes. LFT, Crystal Embedding 
  Dimitrios Pantazis     : SARC Basis sets                               
  Anastasios Papadopoulos: AUTO-CI, single reference methods and gradients 
  Taras Petrenko         : pre 6.0 DFT Hessian and TD-DFT gradient,  ECA, NRVS 
  Petra Pikulova         : Analytic Raman intensities                    
  Peter Pinski           : DLPNO-MP2, DLPNO-MP2 Gradient                 
  Shashank Vittal Rao    : ES-AILFT, MagRelax                            
  Christoph Reimann      : Effective Core Potentials                     
  Marius Retegan         : Local ZFS, SOC                                
  Christoph Riplinger    : Optimizer, TS searches, QM/MM, DLPNO-CCSD(T), (RO)-DLPNO pert. Triples 
  Michael Roemelt        : Original ROCIS implementation, recursive CI coupling coefficients
  Masaaki Saitow         : Open-shell DLPNO-CCSD energy and density      
  Barbara Sandhoefer     : DKH picture change effects                    
  Yorick L. A. Schmerwitz: GMF and freeze-and-release deltaSCF, NEB S-IDPP initial path                    
  Kantharuban Sivalingam : CASSCF convergence/infrastructure, NEVPT2, NEVPT3, NEVPT4(SD), FIC-MRCI and CEPA variants
  Bernardo de Souza      : ESD, SOC TD-DFT                               
  Georgi L. Stoychev     : AutoAux, RI-MP2 NMR, DLPNO-MP2 response, X2C  
  Van Anh Tran           : RI-MP2 g-tensors                              
  Willem Van den Heuvel  : Paramagnetic NMR                              
  Zikuan Wang            : NOTCH, Electric field optimization            
  Frank Wennmohs         : Technical directorship and infrastructure     
  Hang Xu                : AUTO-CI-Response properties                   
                                                                         
[FACCTs GmbH]                                                            
  Markus Bursch, Nicolas Foglia, Miquel Garcia-Rates, Ingolf Harden, Hagen Neugebauer, Anastasios Papadopoulos, 
  Christoph Riplinger, Bernardo de Souza, Georgi L. Stoychev                                                    
                                                                 
  APM, various basis sets, CI-OPT, improved COSX, DLPNO-Multilevel,           
  DOCKER, DRACO, updates on ESD, Fragmentator, GOAT, IRC, LR-CPCM, L-BFGS, MBIS, meta-GGA TD-DFT gradient, ML-optimized integration grids, 
  MM, NACMEs, nearIR, NEB, NEB-TS, NL-DFT gradient (VV10), 2- and 3-layer-ONIOM, interface openCOSMO-RS, QMMM,   
  Crystal-QMMM, RESP, rigid body optimization, SF, symmetry and pop. for TD-DFT, various functionals, SOLVATOR                                   
                                                                         
[Other institutions]                                                     
  V. Asgeirsson          : NEB                                           
  Christoph Bannwarth    : sTDA-DFT, sTD-DFT, PBEh-3c, B97-3c, D3        
  Giovanni Bistoni       : ETS/NOCV, ADLD/ADEX, COVALED                  
  Martin Brehm           : Molecular dynamics                            
  Ronald Cardenas        : ETS/NOCV                                      
  Martina Colucci        : COVALED                                       
  Sebastian Ehlert       : rSCAN, r2SCAN, r2SCAN-3c, D4, dhf basis sets  
  Marvin Friede          : D4 for Fr, Ra, Ac-Lr                          
  Lars Goerigk           : TD-DFT with DH, B97 family of functionals     
  Stefan Grimme          : VdW corrections, initial TS optimization, DFT functionals, gCP, sTDA/sTD-DF 
  Waldemar Hujo          : DFT-NL                                        
  H. Jonsson             : NEB                                           
  Holger Kruse           : gCP                                           
  Marcel Mueller         : wB97X-3c, vDZP basis set                      
  Hagen Neugebauer       : wr2SCAN, Native XTB                           
  Gianluca Regni         : ADLD/ADEX                                     
  Tobias Risthaus        : pre 6.0 range-separated hybrid DFT and stability analysis
  Lukas Wittmann         : regularized MP2, r2SCAN double-hybrids, wr2SCAN        
                                                                         
We gratefully acknowledge several colleagues who have allowed us to      
interface, adapt or use parts of their codes:                            
  Ed Valeev, F. Pavosevic, A. Kumar             : LibInt (2-el integral package), F12 methods 
  Garnet Chan, S. Sharma, J. Yang, R. Olivares  : DMRG                   
  Ulf Ekstrom                                   : XCFun DFT Library      
  Mihaly Kallay                                 : mrcc  (arbitrary order and MRCC methods)
  Frank Weinhold                                : gennbo (NPA and NBO analysis)           
  Simon Mueller                                 : openCOSMO-RS                            
  Christopher J. Cramer and Donald G. Truhlar   : smd solvation model                     
  S Lehtola, MJT Oliveira, MAL Marques          : LibXC Library                           
  Liviu Ungur et al                             : ANISO software                          


 Your calculation uses the libint2 library for the computation of 2-el integrals
 For citations please refer to: http://libint.valeyev.net

 Your ORCA version has been built with support for libXC version: 7.0.0
 For citations please refer to: https://libxc.gitlab.io

 This ORCA versions uses:
   CBLAS   interface :  Fast vector & matrix operations
   LAPACKE interface :  Fast linear algebra routines
   SCALAPACK package :  Parallel linear algebra routines
   Shared memory     :  Shared parallel matrices
   BLAS/LAPACK       :  OpenBLAS 0.3.29  USE64BITINT DYNAMIC_ARCH NO_AFFINITY Haswell SINGLE_THREADED
        Core in use  :  Haswell
   Copyright (c) 2011-2014, The OpenBLAS Project


  ***********************************
  * Starting time: Sun Jul  5 20:36:01 2026
  * Host name:     steezy
  * Process ID:    1294988
  * Working dir.:  /home/jannes/chlorophyll-ladder/007-mg-core-ladder/mgporphin/03_tddft_ch2cl2/camb3lyp
  ***********************************

NOTE: MaxCore=3000 MB was set to SCF,MP2,MDCI,CIPSI,MRCI,RASCI and CIS
      => If you want to overwrite this, your respective input block should be placed after the MaxCore statement


***************************************
The coordinates will be read from file: /home/jannes/chlorophyll-ladder/007-mg-core-ladder/mgporphin/01_opt/mgporphin_opt_b3lypd4_tzvp.xyz
***************************************


XCFun DFT library Copyright 2009-2010 Ulf Ekstrom and contributors.
See http://admol.org/xcfun for more information.
This is free software; see the source code for copying conditions.
There is ABSOLUTELY NO WARRANTY; not even for MERCHANTABILITY or FITNESS FOR A PARTICULAR PURPOSE.
For details see the documentation.
Scientific users of this library should cite U. Ekstrom, L. Visscher, R. Bast, A. J. Thorvaldsen and K. Ruud;
J.Chem.Theor.Comp. 2010, DOI: 10.1021/ct100117s
XCFun Version 0.99 

================================================================================

----- Orbital basis set information -----
Your calculation utilizes the basis: def2-TZVP
   F. Weigend and R. Ahlrichs, Phys. Chem. Chem. Phys. 7, 3297 (2005).

----- AuxJ basis set information -----
Your calculation utilizes the auxiliary basis: def2/J
   H-Rn: F. Weigend, Phys. Chem. Chem. Phys. 8, 1057 (2006).
   Fr-Lr: K. Eichkorn, F. Weigend, O. Treutler, R. Ahlrichs; Theor. Chem. Acc. 97, 119 (1997).

================================================================================
                                        WARNINGS
                       Please study these warnings very carefully!
================================================================================


WARNING: CIS/ROCIS methods need fully converged wavefunctions
  ===> : Setting SCFConvForced true
         You can overwrite this default with %scf ConvForced false 


================================================================================
                                       INPUT FILE
================================================================================
NAME = tddft.inp
|  1> %pal nprocs 4 end
|  2> %maxcore 3000
|  3> ! CAM-B3LYP def2-TZVP def2/J RIJCOSX DefGrid3 TightSCF CPCM(CH2Cl2)
|  4> %tddft
|  5>   nroots 30
|  6>   tda false
|  7>   triplets false
|  8> end
|  9> * xyzfile 0 1 /home/jannes/chlorophyll-ladder/007-mg-core-ladder/mgporphin/01_opt/mgporphin_opt_b3lypd4_tzvp.xyz
| 10> 
| 11>                          ****END OF INPUT****
================================================================================

                       ****************************
                       * Single Point Calculation *
                       ****************************

---------------------------------
CARTESIAN COORDINATES (ANGSTROEM)
---------------------------------
  N     -2.126632    2.522518    3.528336
  H      1.688951   -2.244306    3.936854
  C     -4.367453    3.014298    3.517091
  C     -0.399300   -1.569210    3.904114
  N      0.091157    0.660020    3.674254
  C      0.955251   -1.456037    3.870452
  H     -0.988023   -2.467894    4.003531
  C      2.861647    1.841375    3.512926
  N     -0.259245    4.727154    3.281236
  C     -1.123334    6.843238    3.085343
  C      2.534867    0.494152    3.650974
  C      2.674027    4.023168    3.301567
  N      1.958546    2.864658    3.427339
  C      4.083452    3.721259    3.307939
  C     -0.935449   -0.237004    3.780431
  C      1.256233   -0.053833    3.726030
  C     -2.842123    1.364011    3.654087
  C     -3.029725    3.545804    3.442713
  C     -4.251542    1.665928    3.647704
  C     -2.289528    0.090486    3.770544
  C     -2.702948    4.893026    3.304662
  C      4.199367    2.372883    3.438500
  C     -1.424318    5.441018    3.229591
  C      0.231221    6.956420    3.051755
  C      2.121440    5.296697    3.185130
  C      0.767360    5.624187    3.175204
  H     -5.271397    3.601806    3.474297
  H     -5.042401    0.936910    3.732428
  H     -2.986818   -0.732582    3.863624
  H      3.363051   -0.201104    3.706153
  H      5.103317    1.785376    3.481270
  H      4.874295    4.450291    3.223211
  H      2.818737    6.119763    3.092108
  H      0.819955    7.855111    2.952489
  H     -3.531147    5.588265    3.249501
  H     -1.857042    7.631509    3.019026
  Mg    -0.084042    2.693585    3.477789

----------------------------
CARTESIAN COORDINATES (A.U.)
----------------------------
  NO LB      ZA    FRAG     MASS         X           Y           Z
   0 N     7.0000    0    14.007   -4.018753    4.766868    6.667589
   1 H     1.0000    0     1.008    3.191655   -4.241124    7.439576
   2 C     6.0000    0    12.011   -8.253290    5.696197    6.646338
   3 C     6.0000    0    12.011   -0.754567   -2.965378    7.377707
   4 N     7.0000    0    14.007    0.172263    1.247257    6.943333
   5 C     6.0000    0    12.011    1.805164   -2.751510    7.314095
   6 H     1.0000    0     1.008   -1.867093   -4.663643    7.565577
   7 C     6.0000    0    12.011    5.407728    3.479694    6.638469
   8 N     7.0000    0    14.007   -0.489901    8.933026    6.200637
   9 C     6.0000    0    12.011   -2.122794   12.931846    5.830453
  10 C     6.0000    0    12.011    4.790204    0.933812    6.899342
  11 C     6.0000    0    12.011    5.053178    7.602686    6.239058
  12 N     7.0000    0    14.007    3.701116    5.413420    6.476731
  13 C     6.0000    0    12.011    7.716607    7.032160    6.251099
  14 C     6.0000    0    12.011   -1.767742   -0.447872    7.143980
  15 C     6.0000    0    12.011    2.373936   -0.101729    7.041177
  16 C     6.0000    0    12.011   -5.370834    2.577607    6.905224
  17 C     6.0000    0    12.011   -5.725351    6.700598    6.505785
  18 C     6.0000    0    12.011   -8.034249    3.148147    6.893162
  19 C     6.0000    0    12.011   -4.326581    0.170994    7.125295
  20 C     6.0000    0    12.011   -5.107832    9.246479    6.244906
  21 C     6.0000    0    12.011    7.935654    4.484099    6.497823
  22 C     6.0000    0    12.011   -2.691571   10.282033    6.103042
  23 C     6.0000    0    12.011    0.436944   13.145729    5.766981
  24 C     6.0000    0    12.011    4.008940   10.009307    6.019023
  25 C     6.0000    0    12.011    1.450100   10.628173    6.000267
  26 H     1.0000    0     1.008   -9.961497    6.806428    6.565470
  27 H     1.0000    0     1.008   -9.528758    1.770503    7.053266
  28 H     1.0000    0     1.008   -5.644268   -1.384379    7.301191
  29 H     1.0000    0     1.008    6.355246   -0.380031    7.003613
  30 H     1.0000    0     1.008    9.643871    3.373872    6.578646
  31 H     1.0000    0     1.008    9.211083    8.409831    6.090987
  32 H     1.0000    0     1.008    5.326641   11.564676    5.843236
  33 H     1.0000    0     1.008    1.549490   14.844008    5.579396
  34 H     1.0000    0     1.008   -6.672901   10.560290    6.140667
  35 H     1.0000    0     1.008   -3.509300   14.421462    5.705132
  36 Mg   12.0000    0    24.305   -0.158817    5.090138    6.572068

--------------------------------
INTERNAL COORDINATES (ANGSTROEM)
--------------------------------
 N      0   0   0     0.000000000000     0.00000000     0.00000000
 H      1   0   0     6.119491276487     0.00000000     0.00000000
 C      1   2   0     2.294177409054   140.92453006     0.00000000
 C      2   1   3     2.194906869500    33.50915004     0.03654954
 N      4   2   1     2.294090550086    95.56469348     0.04751811
 C      2   1   3     1.078931462307     4.27284844     0.40083788
 H      4   2   1     1.078939583961   105.16341269   180.06430126
 C      5   4   2     3.016162461030   125.61516112   359.95655471
 N      1   2   6     2.899761601367   101.32570715   180.34880946
 C      9   1   2     2.294087441504   117.77531267   179.96469761
 C      8   5   4     1.393144250589    53.16437800     0.06876310
 C      8   5   4     2.200021689544   108.37491839   180.08468447
 N     12   8   5     1.367433868161    36.44673543     0.00000000
 C     12   8   5     1.441412676383    73.05033634   180.01204037
 C      5   4   2     1.367422885977    36.31868910   180.00102268
 C      5   4   2     1.367357644410    70.79572404     0.00000000
 C      1   2   6     1.367434647900    70.13306991     0.35586623
 C      1   2   6     1.367487791728   177.24111910     0.97900926
 C      3   1   2     1.359631242567    72.76301102   359.95357395
 C     17   1   2     1.393122060686   125.07310744     0.00000000
 C     18   1  17     1.393143327356   125.09478022   180.00966439
 C     14  12   8     1.359631880754   106.94820236     0.00000000
 C      9   1   2     1.367356903781    81.45605938   180.00111785
 C     10   9   1     1.359689963047    72.76177076   180.05889371
 C     12   8   5     1.393121008199   161.52060847   359.96153148
 C      9   1   2     1.367416327023   171.42924741     0.34052806
 H      3   1   2     1.078940742119   159.26701397   179.95498931
 H     19   3   1     1.078936604777   127.96204490   180.00155066
 H     20  17   1     1.082736356593   116.52889429   179.96077396
 H     11   8   5     1.082734663195   116.52549896   180.00584317
 H     22  14  12     1.078943065563   127.96985474   179.99900777
 H     14  12   8     1.078934265943   125.08876244   180.00062158
 H     25  12   8     1.082734522723   116.52871416   180.07456094
 H     24  10   9     1.078937518569   127.96698994   179.97965206
 H     21  18   1     1.082734010826   116.52436251   179.96628297
 H     10   9   1     1.078932341162   159.27697815     0.03817484
 Mg    13  12   8     2.050360529877   126.45537008   180.01043791

---------------------------
INTERNAL COORDINATES (A.U.)
---------------------------
 N      0   0   0     0.000000000000     0.00000000     0.00000000
 H      1   0   0    11.564162591480     0.00000000     0.00000000
 C      1   2   0     4.335367005742   140.92453006     0.00000000
 C      2   1   3     4.147772872818    33.50915004     0.03654954
 N      4   2   1     4.335202866080    95.56469348     0.04751811
 C      2   1   3     2.038884981031     4.27284844     0.40083788
 H      4   2   1     2.038900328733   105.16341269   180.06430126
 C      5   4   2     5.699721026761   125.61516112   359.95655471
 N      1   2   6     5.479755280244   101.32570715   180.34880946
 C      9   1   2     4.335196991710   117.77531267   179.96469761
 C      8   5   4     2.632661098659    53.16437800     0.06876310
 C      8   5   4     4.157438481924   108.37491839   180.08468447
 N     12   8   5     2.584075517072    36.44673543     0.00000000
 C     12   8   5     2.723875204326    73.05033634   180.01204037
 C      5   4   2     2.584054763752    36.31868910   180.00102268
 C      5   4   2     2.583931475058    70.79572404     0.00000000
 C      1   2   6     2.584076990566    70.13306991     0.35586623
 C      1   2   6     2.584177417846   177.24111910     0.97900926
 C      3   1   2     2.569330691574    72.76301102   359.95357395
 C     17   1   2     2.632619165820   125.07310744     0.00000000
 C     18   1  17     2.632659354002   125.09478022   180.00966439
 C     14  12   8     2.569331897574   106.94820236     0.00000000
 C      9   1   2     2.583930075473    81.45605938   180.00111785
 C     10   9   1     2.569441657201    72.76177076   180.05889371
 C     12   8   5     2.632617176909   161.52060847   359.96153148
 C      9   1   2     2.584042369125   171.42924741     0.34052806
 H      3   1   2     2.038902517335   159.26701397   179.95498931
 H     19   3   1     2.038894698891   127.96204490   180.00155066
 H     20  17   1     2.046075189201   116.52889429   179.96077396
 H     11   8   5     2.046071989142   116.52549896   180.00584317
 H     22  14  12     2.038906908008   127.96985474   179.99900777
 H     14  12   8     2.038890279135   125.08876244   180.00062158
 H     25  12   8     2.046071723688   116.52871416   180.07456094
 H     24  10   9     2.038896425708   127.96698994   179.97965206
 H     21  18   1     2.046070756344   116.52436251   179.96628297
 H     10   9   1     2.038886641826   159.27697815     0.03817484
 Mg    13  12   8     3.874619877269   126.45537008   180.01043791

---------------------
BASIS SET INFORMATION
---------------------
There are 4 groups of distinct atoms

 Group   1 Type N   : 11s6p2d1f contracted to 5s3p2d1f pattern {62111/411/11/1}
 Group   2 Type H   : 5s1p contracted to 3s1p pattern {311/1}
 Group   3 Type C   : 11s6p2d1f contracted to 5s3p2d1f pattern {62111/411/11/1}
 Group   4 Type Mg  : 14s8p3d contracted to 5s4p3d pattern {73211/5111/111}

Atom   0N    basis set group =>   1
Atom   1H    basis set group =>   2
Atom   2C    basis set group =>   3
Atom   3C    basis set group =>   3
Atom   4N    basis set group =>   1
Atom   5C    basis set group =>   3
Atom   6H    basis set group =>   2
Atom   7C    basis set group =>   3
Atom   8N    basis set group =>   1
Atom   9C    basis set group =>   3
Atom  10C    basis set group =>   3
Atom  11C    basis set group =>   3
Atom  12N    basis set group =>   1
Atom  13C    basis set group =>   3
Atom  14C    basis set group =>   3
Atom  15C    basis set group =>   3
Atom  16C    basis set group =>   3
Atom  17C    basis set group =>   3
Atom  18C    basis set group =>   3
Atom  19C    basis set group =>   3
Atom  20C    basis set group =>   3
Atom  21C    basis set group =>   3
Atom  22C    basis set group =>   3
Atom  23C    basis set group =>   3
Atom  24C    basis set group =>   3
Atom  25C    basis set group =>   3
Atom  26H    basis set group =>   2
Atom  27H    basis set group =>   2
Atom  28H    basis set group =>   2
Atom  29H    basis set group =>   2
Atom  30H    basis set group =>   2
Atom  31H    basis set group =>   2
Atom  32H    basis set group =>   2
Atom  33H    basis set group =>   2
Atom  34H    basis set group =>   2
Atom  35H    basis set group =>   2
Atom  36Mg   basis set group =>   4
---------------------------------
AUXILIARY/J BASIS SET INFORMATION
---------------------------------
There are 4 groups of distinct atoms

 Group   1 Type N   : 12s5p4d2f1g contracted to 6s4p3d1f1g pattern {711111/2111/211/2/1}
 Group   2 Type H   : 5s2p1d contracted to 3s1p1d pattern {311/2/1}
 Group   3 Type C   : 12s5p4d2f1g contracted to 6s4p3d1f1g pattern {711111/2111/211/2/1}
 Group   4 Type Mg  : 14s5p5d2f1g contracted to 8s4p4d1f1g pattern {71111111/2111/2111/2/1}

Atom   0N    basis set group =>   1
Atom   1H    basis set group =>   2
Atom   2C    basis set group =>   3
Atom   3C    basis set group =>   3
Atom   4N    basis set group =>   1
Atom   5C    basis set group =>   3
Atom   6H    basis set group =>   2
Atom   7C    basis set group =>   3
Atom   8N    basis set group =>   1
Atom   9C    basis set group =>   3
Atom  10C    basis set group =>   3
Atom  11C    basis set group =>   3
Atom  12N    basis set group =>   1
Atom  13C    basis set group =>   3
Atom  14C    basis set group =>   3
Atom  15C    basis set group =>   3
Atom  16C    basis set group =>   3
Atom  17C    basis set group =>   3
Atom  18C    basis set group =>   3
Atom  19C    basis set group =>   3
Atom  20C    basis set group =>   3
Atom  21C    basis set group =>   3
Atom  22C    basis set group =>   3
Atom  23C    basis set group =>   3
Atom  24C    basis set group =>   3
Atom  25C    basis set group =>   3
Atom  26H    basis set group =>   2
Atom  27H    basis set group =>   2
Atom  28H    basis set group =>   2
Atom  29H    basis set group =>   2
Atom  30H    basis set group =>   2
Atom  31H    basis set group =>   2
Atom  32H    basis set group =>   2
Atom  33H    basis set group =>   2
Atom  34H    basis set group =>   2
Atom  35H    basis set group =>   2
Atom  36Mg   basis set group =>   4


           ************************************************************
           *        Program running with 4 parallel MPI-processes     *
           *              working on a common directory               *
           ************************************************************
------------------------------------------------------------------------------
                             ORCA STARTUP CALCULATIONS
                           -- RI-GTO INTEGRALS CHOSEN --
------------------------------------------------------------------------------
------------------------------------------------------------------------------
                   ___                                                        
                  /   \      - P O W E R E D   B Y -                         
                 /     \                                                     
                 |  |  |   _    _      __       _____    __    __             
                 |  |  |  | |  | |    /  \     |  _  \  |  |  /  |          
                  \  \/   | |  | |   /    \    | | | |  |  | /  /          
                 / \  \   | |__| |  /  /\  \   | |_| |  |  |/  /          
                |  |  |   |  __  | /  /__\  \  |    /   |      \           
                |  |  |   | |  | | |   __   |  |    \   |  |\   \          
                \     /   | |  | | |  |  |  |  | |\  \  |  | \   \       
                 \___/    |_|  |_| |__|  |__|  |_| \__\ |__|  \__/        
                                                                              
                      - O R C A' S   B I G   F R I E N D -                    
                                      &                                       
                       - I N T E G R A L  F E E D E R -                       
                                                                              
 v1 FN, 2020, v2 2021, v3 2022-2024                                           
------------------------------------------------------------------------------


----------------------
SHARK INTEGRAL PACKAGE
----------------------

Number of atoms                             ...     37
Number of basis functions                   ...    848
Number of shells                            ...    324
Maximum angular momentum                    ...      3
Integral batch strategy                     ... SHARK/LIBINT Hybrid
RI-J (if used) integral strategy            ... SPLIT-RIJ (Revised 2003 algorithm where possible)
Printlevel                                  ...      1
Contraction scheme used                     ... SEGMENTED contraction
Prescreening option                         ... SCHWARTZ
   Thresh                                   ... 2.500e-11
   Tcut                                     ... 2.500e-12
   Tpresel                                  ... 2.500e-12 
Coulomb Range Separation                    ... NOT USED
Exchange Range Separation                   ... Long Range
   Mu parameter                             ... 3.300e-01
   Scaling (regular/separated)              ... 1.900e-01 4.600e-01
Robust (split-)RI terms used:
  metric    (central integrals)             ... YES
  density   (r.h.s.  integrals)             ... YES
  potential (l.h.s.  integrals)             ... YES
Multipole approximations                    ... NOT USED
Finite Nucleus Model                        ... NOT USED
CABS basis                                  ... NOT available
Auxiliary Coulomb fitting basis             ... AVAILABLE
   # of basis functions in Aux-J            ...   1364
   # of shells in Aux-J                     ...    438
   Maximum angular momentum in Aux-J        ...      4
Auxiliary J/K fitting basis                 ... NOT available
Auxiliary Correlation fitting basis         ... NOT available
Auxiliary 'external' fitting basis          ... NOT available

Checking pre-screening integrals            ... done (  0.0 sec) Dimension = 324
   => SHARK Basis and OBASIS are compatible. Storing Pre-screening
Shell pair information
Shell pair cut-off parameter TPreSel        ...   2.5e-12
Total number of shell pairs                 ...     52650
Shell pairs after pre-screening             ...     37452
Total number of primitive shell pairs       ...    167352
Primitive shell pairs kept                  ...     77858
          la=0 lb=0:   8711 shell pairs
          la=1 lb=0:  10604 shell pairs
          la=1 lb=1:   3186 shell pairs
          la=2 lb=0:   5583 shell pairs
          la=2 lb=1:   3500 shell pairs
          la=2 lb=2:    986 shell pairs
          la=3 lb=0:   2388 shell pairs
          la=3 lb=1:   1536 shell pairs
          la=3 lb=2:    788 shell pairs
          la=3 lb=3:    170 shell pairs

Checking whether 4 symmetric matrices of dimension 848 fit in memory
:Max Core in MB      =   3000.00
 MB in use           =     49.24
 MB left             =   2950.76
 MB needed           =     10.99
 Data fit in memory  = YES
Calculating RI/J V-Matrix + Cholesky decomp.... done (  0.2 sec)
Calculating Nuclear repulsion               ... done (  0.0 sec) ENN=   2121.711186967779 Eh

Diagonalization of the overlap matrix:
Smallest eigenvalue                        ... 1.003e-05
Time for diagonalization                   ...    0.189 sec
Threshold for overlap eigenvalues          ... 1.000e-07
Number of eigenvalues below threshold      ... 0
Time for construction of square roots      ...    0.100 sec
Total time needed                          ...    0.297 sec

-------------------
DFT GRID GENERATION
-------------------

General Integration Accuracy     IntAcc      ... 4.959
Radial Grid Type                 RadialGrid  ... OptM3 with GC (2021)
Angular Grid (max. ang.)         AngularGrid ... 6 (Lebedev-590)
Angular grid pruning method      GridPruning ... 4 (adaptive)
Weight generation scheme         WeightScheme... mBecke (2022)
Basis function cutoff            BFCut       ... 1.0000e-11
Integration weight cutoff        WCut        ... 1.0000e-14
Partially contracted basis set               ... off
Rotationally invariant grid construction     ... off
Angular grids for H and He will be reduced by one unit

Total number of grid points                  ...   456655
Total number of batches                      ...     7152
Average number of points per batch           ...       63
Average number of grid points per atom       ...    12342

--------------------
COSX GRID GENERATION
--------------------

GRIDX 1
-------
General Integration Accuracy     IntAcc      ... 4.020
Radial Grid Type                 RadialGrid  ... OptM3 with GC (2021)
Angular Grid (max. ang.)         AngularGrid ... 2 (Lebedev-110)
Angular grid pruning method      GridPruning ... 4 (adaptive)
Weight generation scheme         WeightScheme... mBecke (2022)
Basis function cutoff            BFCut       ... 1.0000e-11
Integration weight cutoff        WCut        ... 1.0000e-14
Partially contracted basis set               ... on
Rotationally invariant grid construction     ... off
Angular grids for H and He will be reduced by one unit

Total number of grid points                  ...    52690
Total number of batches                      ...      428
Average number of points per batch           ...      123
Average number of grid points per atom       ...     1424
UseSFitting                                  ... on

GRIDX 2
-------
General Integration Accuracy     IntAcc      ... 4.338
Radial Grid Type                 RadialGrid  ... OptM3 with GC (2021)
Angular Grid (max. ang.)         AngularGrid ... 3 (Lebedev-194)
Angular grid pruning method      GridPruning ... 4 (adaptive)
Weight generation scheme         WeightScheme... mBecke (2022)
Basis function cutoff            BFCut       ... 1.0000e-11
Integration weight cutoff        WCut        ... 1.0000e-14
Partially contracted basis set               ... on
Rotationally invariant grid construction     ... off
Angular grids for H and He will be reduced by one unit

Total number of grid points                  ...   116101
Total number of batches                      ...      923
Average number of points per batch           ...      125
Average number of grid points per atom       ...     3138
UseSFitting                                  ... on

GRIDX 3
-------
General Integration Accuracy     IntAcc      ... 4.871
Radial Grid Type                 RadialGrid  ... OptM3 with GC (2021)
Angular Grid (max. ang.)         AngularGrid ... 4 (Lebedev-302)
Angular grid pruning method      GridPruning ... 4 (adaptive)
Weight generation scheme         WeightScheme... mBecke (2022)
Basis function cutoff            BFCut       ... 1.0000e-11
Integration weight cutoff        WCut        ... 1.0000e-14
Partially contracted basis set               ... on
Rotationally invariant grid construction     ... off
Angular grids for H and He will be reduced by one unit

Total number of grid points                  ...   212436
Total number of batches                      ...     1675
Average number of points per batch           ...      126
Average number of grid points per atom       ...     5742
UseSFitting                                  ... on
Grids setup in  14.5 sec
Initializing property integral containers    ... done (  0.0 sec)

SHARK setup successfully completed in  15.8 seconds

Maximum memory used throughout the entire STARTUP-calculation: 148.4 MB


           ************************************************************
           *        Program running with 4 parallel MPI-processes     *
           *              working on a common directory               *
           ************************************************************
-------------------------------------------------------------------------------
                                 ORCA GUESS
                   Start orbitals & Density for SCF / CASSCF
-------------------------------------------------------------------------------

------------
SCF SETTINGS
------------
Hamiltonian:
 Density Functional     Method          .... DFT(GTOs)
 Exchange Functional    Exchange        .... WB88
 Correlation Functional Correlation     .... LYP
 LDA part of GGA corr.  LDAOpt          .... VWN-5
 Gradients option       PostSCFGGA      .... off
 Hybrid DFT is turned on
   Fraction HF Exchange ScalHFX         ....  0.190000
   Scaling of DF-GGA-X  ScalDFX         ....  0.350000
   Scaling of DF-GGA-C  ScalDFC         ....  0.810000
   Scaling of DF-LDA-C  ScalLDAC        ....  1.000000
   Perturbative correction              ....  0.000000
 Long-range corrected/Screened/Range-Separated Hybrid DFT is turned on
   Amount of maximum screened exact exchange              ....  0.460000
   Range separation parameter mu (erf(mu*r12)/r12)        ....  0.330000
 RI-approximation to the Coulomb term is turned on
   Number of AuxJ basis functions       .... 1364
   RIJ-COSX (HFX calculated with COS-X)).... on


General Settings:
 Integral files         IntName         .... tddft
 Hartree-Fock type      HFTyp           .... RHF
 Total Charge           Charge          ....    0
 Multiplicity           Mult            ....    1
 Number of Electrons    NEL             ....  172
 Basis Dimension        Dim             ....  848
 Nuclear Repulsion      ENuc            ....   2121.7111869678 Eh

Convergence Acceleration:
 AO-DIIS                CNVDIIS         .... on
   Start iteration      DIISMaxIt       ....    12
   Startup error        DIISStart       ....  0.200000
   # of expansion vecs  DIISMaxEq       ....     5
   Bias factor          DIISBfac        ....   1.050
   Max. coefficient     DIISMaxC        ....  10.000
 MO-DIIS                CNVKDIIS        .... off
 Trust-Rad. Augm. Hess. CNVTRAH         .... auto
   Auto Start mean grad. ratio tolernc. ....  1.125000
   Auto Start start iteration           ....    50
   Auto Start num. interpolation iter.  ....    10
   Max. Number of Micro iterations      ....    24
   Max. Number of Macro iterations      .... Maxiter - #DIIS iter
   Number of Davidson start vectors     ....     2
   Converg. threshold    (grad. norm)   ....   1.000e-05
   Grad. Scal. Fac. for Micro threshold ....   0.100
   Minimum threshold for Micro iter.    ....   1.000e-02
   NR start threshold (gradient norm)   ....   1.000e-04
   Initial trust radius                 ....   0.400
   Minimum AH scaling param. (alpha)    ....   1.000
   Maximum AH scaling param. (alpha)    .... 1000.000
   Quad. conv. algorithm                .... NR
   White noise on init. David. guess    .... on
   Maximum white noise                  ....   0.010
   Pseudo random numbers                .... off
   Inactive MOs                         .... canonical
   Orbital update algorithm             .... Taylor
   Preconditioner                       .... Diag
   Full preconditioner red. dimension   ....   250
 SOSCF                 CNVSOSCF           .... on
   Start iteration     SOSCFMaxIt         ....   150
   Startup grad/error  SOSCFStart         ....  0.003300
   Hessian update      SOSCFHessUp        .... L-BFGS
   Autom. constraints  SOSCFAutoConstrain .... off
 Level Shifting         CNVShift        .... on
   Level shift para.    LevelShift      ....    0.2500
   Turn off err/grad.   ShiftErr        ....    0.0010
 Zerner damping         CNVZerner       .... off
 Static damping         CNVDamp         .... on
   Fraction old density DampFac         ....    0.7000
   Max. Damping (<1)    DampMax         ....    0.9800
   Min. Damping (>=0)   DampMin         ....    0.0000
   Turn off err/grad.   DampErr         ....    0.1000

SCF Procedure:
 Maximum # iterations   MaxIter         ....   125
 SCF integral mode      SCFMode         .... Direct
   Integral package                     .... SHARK and LIBINT hybrid scheme
 Reset frequency        DirectResetFreq ....    20
 Integral Threshold     Thresh          ....  2.500e-11 Eh
 Primitive CutOff       TCut            ....  2.500e-12 Eh

Convergence Tolerance:
 Convergence Check Mode ConvCheckMode   .... Total+1el-Energy
 Convergence forced     ConvForced      .... 1
 Energy Change          TolE            ....  1.000e-08 Eh
 1-El. energy change                    ....  1.000e-05 Eh
 Orbital Gradient       TolG            ....  1.000e-05
 Orbital Rotation angle TolX            ....  1.000e-05
 DIIS Error             TolErr          ....  5.000e-07

------------------------------
INITIAL GUESS: MODEL POTENTIAL
------------------------------
Loading Hartree-Fock densities                     ... done
Calculating cut-offs                               ... done
Initializing the effective Hamiltonian             ... done
Setting up the integral package (SHARK)            ... done
Starting the Coulomb interaction                   ... done (   1.6 sec)
Making the grid                                    ... done (   0.6 sec)
Mapping shells                                     ... done
Starting the XC term evaluation                    ... done (   0.9 sec)
  promolecular density results
     # of electrons  =    171.995110955
     EX              =   -148.115499445
     EC              =     -5.855479608
     EX+EC           =   -153.970979052
Transforming the Hamiltonian                       ... done (   0.1 sec)
Diagonalizing the Hamiltonian                      ... done (   0.2 sec)
Back transforming the eigenvectors                 ... done (   0.1 sec)
Now organizing SCF variables                       ... done
                      ------------------
                      INITIAL GUESS DONE (   3.5 sec)
                      ------------------
             **** ENERGY FILE WAS UPDATED (tddft.en.tmp) ****
Finished Guess after   3.9 sec
Maximum memory used throughout the entire GUESS-calculation: 83.5 MB


           ************************************************************
           *        Program running with 4 parallel MPI-processes     *
           *              working on a common directory               *
           ************************************************************

-------------------------------------------------------------------------------------------
                                      ORCA LEAN-SCF
                              memory conserving SCF solver
-------------------------------------------------------------------------------------------

--------------------
CPCM SOLVATION MODEL
--------------------
CPCM parameters:
  Epsilon                                         ...       8.9990
  Refrac                                          ...       1.4242
  Rsolv                                           ...       1.3000
  Surface type                                    ... GAUSSIAN VDW
  Discretization scheme                           ... Constant charge density
    Threshold for H atoms                         ...       5.0000 (charges/Ang^2)
    Threshold for non-H atoms                     ...       5.0000 (charges/Ang^2)
  Epsilon function type                           ...         CPCM
Solvent:                                          ... DICHLOROMETHANE
Radii:
  Scheme                                          ... Element-dependent radii
  Radius for N  used is    3.5149 Bohr (=   1.8600 Ang.)
  Radius for H  used is    2.4944 Bohr (=   1.3200 Ang.)
  Radius for C  used is    3.8550 Bohr (=   2.0400 Ang.)
  Radius for Mg used is    3.9231 Bohr (=   2.0760 Ang.)
Calculating surface                               ...        done! (  0.0s)
Cavity surface points                             ...         3494
Cavity Volume                                     ...    2478.6237
Cavity Surface-area                               ...    1177.4362
Calculating surface distance matrix               ...        done! (  0.3s)
Performing Cholesky decomposition & store         ...        done! (  0.7s)
Overall time for CPCM initialization              ...                 1.0s

----------------------------------------D-I-I-S--------------------------------------------
Iteration    Energy (Eh)           Delta-E    RMSDP     MaxDP     DIISErr   Damp  Time(sec)
-------------------------------------------------------------------------------------------
               ***  Starting incremental Fock matrix formation  ***
    1    -1187.9302600636956413     0.00e+00  2.29e-03  5.15e-02  2.12e-01  0.700 139.7
    2    -1188.1315877308397830    -2.01e-01  1.79e-03  4.13e-02  1.10e-01  0.700  62.4
                               ***Turning on AO-DIIS***
    3    -1188.2314402417255224    -9.99e-02  1.11e-03  3.22e-02  4.46e-02  0.700  60.9
    4    -1188.2907902589317928    -5.94e-02  2.39e-03  7.30e-02  3.01e-02  0.000  66.8
    5    -1188.4176456718832924    -1.27e-01  2.09e-04  4.26e-03  3.76e-03  0.000  79.0
                              *** Initializing SOSCF ***
---------------------------------------S-O-S-C-F--------------------------------------
Iteration    Energy (Eh)           Delta-E    RMSDP     MaxDP     MaxGrad    Time(sec)
--------------------------------------------------------------------------------------
    6    -1188.4180429695056773    -3.97e-04  8.62e-05  2.11e-03  2.07e-03    51.9
               *** Restarting incremental Fock matrix formation ***
    7    -1188.4180928403716280    -4.99e-05  6.56e-05  2.40e-03  4.51e-04   172.7
    8    -1188.4181044297943117    -1.16e-05  2.68e-05  5.36e-04  2.05e-04   123.3
    9    -1188.4181054414843857    -1.01e-06  1.11e-05  4.05e-04  1.33e-04    89.8
   10    -1188.4181061953786411    -7.54e-07  4.84e-06  1.10e-04  3.54e-05   108.2
   11    -1188.4181061658596263     2.95e-08  4.01e-06  1.12e-04  1.62e-05    71.5
   12    -1188.4181062119232593    -4.61e-08  6.00e-06  1.45e-04  4.18e-06    94.9
   13    -1188.4181062346251565    -2.27e-08  5.85e-06  1.17e-04  2.22e-06    77.3
                  *** Gradient check signals convergence ***

               *****************************************************
               *                     SUCCESS                       *
               *           SCF CONVERGED AFTER  13 CYCLES          *
               *****************************************************

Recomputing exchange energy using gridx3       ... done (  325.869 sec)
Old exchange energy                            :    -42.092117688 Eh
New exchange energy                            :    -42.092119811 Eh
Exchange energy change after final integration :     -0.000002123 Eh
Total energy after final integration           :  -1188.418108363 Eh
             **** ENERGY FILE WAS UPDATED (tddft.en.tmp) ****

----------------
TOTAL SCF ENERGY
----------------

Total Energy       :      -1188.41810836267223 Eh          -32338.50079 eV

Components:
Nuclear Repulsion  :       2121.71118696777876 Eh           57734.69657 eV
Electronic Energy  :      -3310.11479867336175 Eh          -90072.80288 eV
One Electron Energy:      -5839.48531681773693 Eh         -158900.47381 eV
Two Electron Energy:       2529.37051814437518 Eh           68827.67093 eV
CPCM Dielectric    :         -0.01449453419878 Eh              -0.39442 eV

Virial components:
Potential Energy   :      -2371.67679519832700 Eh          -64536.60658 eV
Kinetic Energy     :       1183.25868683565477 Eh           32198.10579 eV
Virial Ratio       :          2.00436034958747

DFT components:
N(Alpha)           :       86.000002503721 electrons
N(Beta)            :       86.000002503721 electrons
N(Total)           :      172.000005007442 electrons
E(XC)              :     -114.998175160606 Eh       

CPCM Solvation Model Properties:
Surface-charge          :         -0.03928645833955
Corrected charge        :         -0.00000000000000
Outlying charge corr.   :          0.00007374273841 Eh               0.00201 eV
Free-energy (cav+disp)  :  This term is not implemented in the current solvation scheme

---------------
SCF CONVERGENCE
---------------

  Last Energy change         ...    2.2702e-08  Tolerance :   1.0000e-08
  Last MAX-Density change    ...    1.1681e-04  Tolerance :   1.0000e-07
  Last RMS-Density change    ...    5.8526e-06  Tolerance :   5.0000e-09
  Last DIIS Error            ...    2.0729e-03  Tolerance :   5.0000e-07
  Last Orbital Gradient      ...    2.2214e-06  Tolerance :   1.0000e-05
  Last Orbital Rotation      ...    3.9086e-06  Tolerance :   1.0000e-05


----------------
ORBITAL ENERGIES
----------------

  NO   OCC          E(Eh)            E(eV) 
   0   2.0000     -46.832533     -1274.3780 
   1   2.0000     -14.377736      -391.2381 
   2   2.0000     -14.377729      -391.2379 
   3   2.0000     -14.377719      -391.2376 
   4   2.0000     -14.377713      -391.2374 
   5   2.0000     -10.283446      -279.8268 
   6   2.0000     -10.283442      -279.8267 
   7   2.0000     -10.283434      -279.8265 
   8   2.0000     -10.283430      -279.8264 
   9   2.0000     -10.283396      -279.8254 
  10   2.0000     -10.283395      -279.8254 
  11   2.0000     -10.283387      -279.8252 
  12   2.0000     -10.283386      -279.8252 
  13   2.0000     -10.256901      -279.1045 
  14   2.0000     -10.256895      -279.1043 
  15   2.0000     -10.256894      -279.1043 
  16   2.0000     -10.256888      -279.1041 
  17   2.0000     -10.248579      -278.8780 
  18   2.0000     -10.248578      -278.8780 
  19   2.0000     -10.248575      -278.8779 
  20   2.0000     -10.248571      -278.8778 
  21   2.0000     -10.247838      -278.8578 
  22   2.0000     -10.247836      -278.8578 
  23   2.0000     -10.247833      -278.8577 
  24   2.0000     -10.247832      -278.8577 
  25   2.0000      -3.121127       -84.9302 
  26   2.0000      -1.868324       -50.8397 
  27   2.0000      -1.863014       -50.6952 
  28   2.0000      -1.863013       -50.6952 
  29   2.0000      -1.049919       -28.5698 
  30   2.0000      -1.041012       -28.3274 
  31   2.0000      -1.040994       -28.3269 
  32   2.0000      -1.031178       -28.0598 
  33   2.0000      -0.900979       -24.5169 
  34   2.0000      -0.873631       -23.7727 
  35   2.0000      -0.873630       -23.7727 
  36   2.0000      -0.853902       -23.2359 
  37   2.0000      -0.847790       -23.0695 
  38   2.0000      -0.847776       -23.0691 
  39   2.0000      -0.843778       -22.9604 
  40   2.0000      -0.821807       -22.3625 
  41   2.0000      -0.797778       -21.7086 
  42   2.0000      -0.733814       -19.9681 
  43   2.0000      -0.733805       -19.9679 
  44   2.0000      -0.672878       -18.3099 
  45   2.0000      -0.652534       -17.7563 
  46   2.0000      -0.647237       -17.6122 
  47   2.0000      -0.647230       -17.6120 
  48   2.0000      -0.643598       -17.5132 
  49   2.0000      -0.622102       -16.9282 
  50   2.0000      -0.614176       -16.7126 
  51   2.0000      -0.595628       -16.2078 
  52   2.0000      -0.595615       -16.2075 
  53   2.0000      -0.582073       -15.8390 
  54   2.0000      -0.567856       -15.4522 
  55   2.0000      -0.567855       -15.4521 
  56   2.0000      -0.515286       -14.0216 
  57   2.0000      -0.507238       -13.8027 
  58   2.0000      -0.504454       -13.7269 
  59   2.0000      -0.491846       -13.3838 
  60   2.0000      -0.491830       -13.3834 
  61   2.0000      -0.491264       -13.3680 
  62   2.0000      -0.491260       -13.3679 
  63   2.0000      -0.489433       -13.3181 
  64   2.0000      -0.477290       -12.9877 
  65   2.0000      -0.466400       -12.6914 
  66   2.0000      -0.456184       -12.4134 
  67   2.0000      -0.456170       -12.4130 
  68   2.0000      -0.451607       -12.2889 
  69   2.0000      -0.441295       -12.0082 
  70   2.0000      -0.441286       -12.0080 
  71   2.0000      -0.435485       -11.8501 
  72   2.0000      -0.435037       -11.8380 
  73   2.0000      -0.432958       -11.7814 
  74   2.0000      -0.395290       -10.7564 
  75   2.0000      -0.382013       -10.3951 
  76   2.0000      -0.381987       -10.3944 
  77   2.0000      -0.351104        -9.5540 
  78   2.0000      -0.345015        -9.3883 
  79   2.0000      -0.345013        -9.3883 
  80   2.0000      -0.325891        -8.8679 
  81   2.0000      -0.313740        -8.5373 
  82   2.0000      -0.313728        -8.5370 
  83   2.0000      -0.309513        -8.4223 
  84   2.0000      -0.238895        -6.5007 
  85   2.0000      -0.237691        -6.4679 
  86   0.0000      -0.062140        -1.6909 
  87   0.0000      -0.062127        -1.6905 
  88   0.0000       0.014688         0.3997 
  89   0.0000       0.038854         1.0573 
  90   0.0000       0.071700         1.9511 
  91   0.0000       0.087578         2.3831 
  92   0.0000       0.097628         2.6566 
  93   0.0000       0.097639         2.6569 
  94   0.0000       0.101649         2.7660 
  95   0.0000       0.101655         2.7662 
  96   0.0000       0.102873         2.7993 
*Only the first 10 virtual orbitals were printed.

                    ********************************
                    * MULLIKEN POPULATION ANALYSIS *
                    ********************************

-----------------------
MULLIKEN ATOMIC CHARGES
-----------------------
   0 N :   -0.365940
   1 H :    0.162306
   2 C :   -0.228751
   3 C :   -0.228561
   4 N :   -0.365881
   5 C :   -0.228783
   6 H :    0.162330
   7 C :    0.239356
   8 N :   -0.365878
   9 C :   -0.228637
  10 C :   -0.308432
  11 C :    0.238651
  12 N :   -0.365921
  13 C :   -0.228706
  14 C :    0.239314
  15 C :    0.238619
  16 C :    0.238560
  17 C :    0.239323
  18 C :   -0.228647
  19 C :   -0.308638
  20 C :   -0.308325
  21 C :   -0.228679
  22 C :    0.238426
  23 C :   -0.228665
  24 C :   -0.308646
  25 C :    0.239385
  26 H :    0.162333
  27 H :    0.162357
  28 H :    0.162680
  29 H :    0.162686
  30 H :    0.162313
  31 H :    0.162324
  32 H :    0.162686
  33 H :    0.162309
  34 H :    0.162693
  35 H :    0.162336
  36 Mg:    0.666102
Sum of atomic charges:    0.0000000

--------------------------------
MULLIKEN REDUCED ORBITAL CHARGES
--------------------------------
  0 N s       :     3.684819  s :     3.684819
      pz      :     1.364306  p :     3.623310
      px      :     1.252627
      py      :     1.006377
      dz2     :     0.004243  d :     0.054307
      dxz     :     0.005647
      dyz     :     0.013542
      dx2y2   :     0.015243
      dxy     :     0.015633
      f0      :     0.000628  f :     0.003504
      f+1     :     0.000305
      f-1     :     0.000394
      f+2     :     0.000101
      f-2     :     0.000575
      f+3     :     0.000600
      f-3     :     0.000902

  1 H s       :     0.815801  s :     0.815801
      pz      :     0.004587  p :     0.021893
      px      :     0.008150
      py      :     0.009156

  2 C s       :     3.280007  s :     3.280007
      pz      :     0.992634  p :     2.865852
      px      :     0.933282
      py      :     0.939936
      dz2     :     0.005303  d :     0.075261
      dxz     :     0.009510
      dyz     :     0.019315
      dx2y2   :     0.014240
      dxy     :     0.026894
      f0      :     0.001391  f :     0.007630
      f+1     :     0.000706
      f-1     :     0.000538
      f+2     :     0.000922
      f-2     :     0.000416
      f+3     :     0.002266
      f-3     :     0.001392

  3 C s       :     3.279784  s :     3.279784
      pz      :     0.992787  p :     2.865887
      px      :     0.939359
      py      :     0.933741
      dz2     :     0.004841  d :     0.075260
      dxz     :     0.019961
      dyz     :     0.009392
      dx2y2   :     0.014136
      dxy     :     0.026930
      f0      :     0.001435  f :     0.007630
      f+1     :     0.000438
      f-1     :     0.000723
      f+2     :     0.000974
      f-2     :     0.000413
      f+3     :     0.001366
      f-3     :     0.002279

  4 N s       :     3.684890  s :     3.684890
      pz      :     1.366387  p :     3.623168
      px      :     1.002995
      py      :     1.253785
      dz2     :     0.004062  d :     0.054318
      dxz     :     0.013783
      dyz     :     0.005562
      dx2y2   :     0.015198
      dxy     :     0.015714
      f0      :     0.000634  f :     0.003505
      f+1     :     0.000380
      f-1     :     0.000311
      f+2     :     0.000098
      f-2     :     0.000571
      f+3     :     0.000911
      f-3     :     0.000600

  5 C s       :     3.280107  s :     3.280107
      pz      :     0.992497  p :     2.865788
      px      :     0.953273
      py      :     0.920018
      dz2     :     0.005060  d :     0.075259
      dxz     :     0.017711
      dyz     :     0.011376
      dx2y2   :     0.014540
      dxy     :     0.026571
      f0      :     0.001423  f :     0.007630
      f+1     :     0.000487
      f-1     :     0.000697
      f+2     :     0.001236
      f-2     :     0.000135
      f+3     :     0.001464
      f-3     :     0.002188

  6 H s       :     0.815775  s :     0.815775
      pz      :     0.004637  p :     0.021895
      px      :     0.006381
      py      :     0.010877

  7 C s       :     3.143640  s :     3.143640
      pz      :     0.912383  p :     2.447919
      px      :     0.780084
      py      :     0.755452
      dz2     :     0.005087  d :     0.154567
      dxz     :     0.029548
      dyz     :     0.036707
      dx2y2   :     0.044699
      dxy     :     0.038525
      f0      :     0.002066  f :     0.014517
      f+1     :     0.000867
      f-1     :     0.001053
      f+2     :     0.000684
      f-2     :     0.002290
      f+3     :     0.003675
      f-3     :     0.003883

  8 N s       :     3.684878  s :     3.684878
      pz      :     1.366382  p :     3.623177
      px      :     1.002986
      py      :     1.253809
      dz2     :     0.004061  d :     0.054318
      dxz     :     0.013783
      dyz     :     0.005562
      dx2y2   :     0.015199
      dxy     :     0.015713
      f0      :     0.000634  f :     0.003505
      f+1     :     0.000380
      f-1     :     0.000311
      f+2     :     0.000098
      f-2     :     0.000571
      f+3     :     0.000911
      f-3     :     0.000600

  9 C s       :     3.279811  s :     3.279811
      pz      :     0.992504  p :     2.865936
      px      :     0.953319
      py      :     0.920113
      dz2     :     0.005058  d :     0.075260
      dxz     :     0.017711
      dyz     :     0.011377
      dx2y2   :     0.014541
      dxy     :     0.026573
      f0      :     0.001423  f :     0.007630
      f+1     :     0.000487
      f-1     :     0.000696
      f+2     :     0.001236
      f-2     :     0.000135
      f+3     :     0.001464
      f-3     :     0.002188

 10 C s       :     3.311650  s :     3.311650
      pz      :     1.007202  p :     2.919112
      px      :     0.968551
      py      :     0.943358
      dz2     :     0.003933  d :     0.070673
      dxz     :     0.013676
      dyz     :     0.017348
      dx2y2   :     0.009559
      dxy     :     0.026158
      f0      :     0.001335  f :     0.006997
      f+1     :     0.000547
      f-1     :     0.000602
      f+2     :     0.000774
      f-2     :     0.000437
      f+3     :     0.001810
      f-3     :     0.001492

 11 C s       :     3.143773  s :     3.143773
      pz      :     0.911904  p :     2.448469
      px      :     0.797037
      py      :     0.739529
      dz2     :     0.005149  d :     0.154589
      dxz     :     0.028461
      dyz     :     0.037760
      dx2y2   :     0.042771
      dxy     :     0.040448
      f0      :     0.002068  f :     0.014518
      f+1     :     0.000792
      f-1     :     0.001126
      f+2     :     0.001101
      f-2     :     0.001883
      f+3     :     0.002615
      f-3     :     0.004933

 12 N s       :     3.684823  s :     3.684823
      pz      :     1.364308  p :     3.623287
      px      :     1.252615
      py      :     1.006364
      dz2     :     0.004243  d :     0.054308
      dxz     :     0.005647
      dyz     :     0.013542
      dx2y2   :     0.015243
      dxy     :     0.015634
      f0      :     0.000628  f :     0.003504
      f+1     :     0.000305
      f-1     :     0.000394
      f+2     :     0.000101
      f-2     :     0.000575
      f+3     :     0.000600
      f-3     :     0.000902

 13 C s       :     3.279976  s :     3.279976
      pz      :     0.993067  p :     2.865842
      px      :     0.919237
      py      :     0.953539
      dz2     :     0.005081  d :     0.075258
      dxz     :     0.011736
      dyz     :     0.017338
      dx2y2   :     0.014662
      dxy     :     0.026440
      f0      :     0.001403  f :     0.007630
      f+1     :     0.000632
      f-1     :     0.000590
      f+2     :     0.001202
      f-2     :     0.000153
      f+3     :     0.002167
      f-3     :     0.001483

 14 C s       :     3.143583  s :     3.143583
      pz      :     0.912273  p :     2.448006
      px      :     0.754031
      py      :     0.781702
      dz2     :     0.004851  d :     0.154579
      dxz     :     0.037638
      dyz     :     0.028973
      dx2y2   :     0.044503
      dxy     :     0.038615
      f0      :     0.002094  f :     0.014518
      f+1     :     0.000996
      f-1     :     0.000884
      f+2     :     0.000708
      f-2     :     0.002260
      f+3     :     0.003904
      f-3     :     0.003672

 15 C s       :     3.143642  s :     3.143642
      pz      :     0.912718  p :     2.448628
      px      :     0.737848
      py      :     0.798062
      dz2     :     0.004763  d :     0.154592
      dxz     :     0.038811
      dyz     :     0.027852
      dx2y2   :     0.042618
      dxy     :     0.040549
      f0      :     0.002093  f :     0.014519
      f+1     :     0.001047
      f-1     :     0.000836
      f+2     :     0.001066
      f-2     :     0.001892
      f+3     :     0.004963
      f-3     :     0.002621

 16 C s       :     3.143800  s :     3.143800
      pz      :     0.911907  p :     2.448532
      px      :     0.797083
      py      :     0.739542
      dz2     :     0.005150  d :     0.154591
      dxz     :     0.028461
      dyz     :     0.037759
      dx2y2   :     0.042771
      dxy     :     0.040449
      f0      :     0.002068  f :     0.014518
      f+1     :     0.000792
      f-1     :     0.001126
      f+2     :     0.001101
      f-2     :     0.001883
      f+3     :     0.002615
      f-3     :     0.004933

 17 C s       :     3.143681  s :     3.143681
      pz      :     0.912392  p :     2.447909
      px      :     0.780029
      py      :     0.755488
      dz2     :     0.005089  d :     0.154568
      dxz     :     0.029548
      dyz     :     0.036707
      dx2y2   :     0.044702
      dxy     :     0.038523
      f0      :     0.002066  f :     0.014517
      f+1     :     0.000867
      f-1     :     0.001053
      f+2     :     0.000684
      f-2     :     0.002290
      f+3     :     0.003675
      f-3     :     0.003883

 18 C s       :     3.279853  s :     3.279853
      pz      :     0.993074  p :     2.865902
      px      :     0.919265
      py      :     0.953564
      dz2     :     0.005082  d :     0.075262
      dxz     :     0.011736
      dyz     :     0.017338
      dx2y2   :     0.014660
      dxy     :     0.026445
      f0      :     0.001403  f :     0.007630
      f+1     :     0.000632
      f-1     :     0.000590
      f+2     :     0.001202
      f-2     :     0.000153
      f+3     :     0.002167
      f-3     :     0.001484

 19 C s       :     3.311978  s :     3.311978
      pz      :     1.007845  p :     2.918991
      px      :     0.942607
      py      :     0.968539
      dz2     :     0.003564  d :     0.070673
      dxz     :     0.018015
      dyz     :     0.013385
      dx2y2   :     0.009594
      dxy     :     0.026115
      f0      :     0.001364  f :     0.006997
      f+1     :     0.000519
      f-1     :     0.000581
      f+2     :     0.000783
      f-2     :     0.000441
      f+3     :     0.001484
      f-3     :     0.001824

 20 C s       :     3.311457  s :     3.311457
      pz      :     1.007194  p :     2.919193
      px      :     0.968638
      py      :     0.943361
      dz2     :     0.003931  d :     0.070678
      dxz     :     0.013676
      dyz     :     0.017348
      dx2y2   :     0.009563
      dxy     :     0.026160
      f0      :     0.001335  f :     0.006997
      f+1     :     0.000547
      f-1     :     0.000602
      f+2     :     0.000774
      f-2     :     0.000437
      f+3     :     0.001810
      f-3     :     0.001492

 21 C s       :     3.279975  s :     3.279975
      pz      :     0.992633  p :     2.865816
      px      :     0.933244
      py      :     0.939939
      dz2     :     0.005303  d :     0.075258
      dxz     :     0.009510
      dyz     :     0.019315
      dx2y2   :     0.014242
      dxy     :     0.026889
      f0      :     0.001391  f :     0.007630
      f+1     :     0.000706
      f-1     :     0.000538
      f+2     :     0.000922
      f-2     :     0.000416
      f+3     :     0.002266
      f-3     :     0.001392

 22 C s       :     3.143686  s :     3.143686
      pz      :     0.912737  p :     2.448764
      px      :     0.737877
      py      :     0.798150
      dz2     :     0.004764  d :     0.154604
      dxz     :     0.038810
      dyz     :     0.027854
      dx2y2   :     0.042624
      dxy     :     0.040552
      f0      :     0.002093  f :     0.014519
      f+1     :     0.001047
      f-1     :     0.000836
      f+2     :     0.001066
      f-2     :     0.001892
      f+3     :     0.004963
      f-3     :     0.002621

 23 C s       :     3.279961  s :     3.279961
      pz      :     0.992784  p :     2.865813
      px      :     0.939341
      py      :     0.933688
      dz2     :     0.004841  d :     0.075261
      dxz     :     0.019960
      dyz     :     0.009392
      dx2y2   :     0.014137
      dxy     :     0.026930
      f0      :     0.001435  f :     0.007630
      f+1     :     0.000439
      f-1     :     0.000723
      f+2     :     0.000974
      f-2     :     0.000413
      f+3     :     0.001366
      f-3     :     0.002279

 24 C s       :     3.311952  s :     3.311952
      pz      :     1.007851  p :     2.919026
      px      :     0.942625
      py      :     0.968550
      dz2     :     0.003565  d :     0.070671
      dxz     :     0.018015
      dyz     :     0.013384
      dx2y2   :     0.009591
      dxy     :     0.026117
      f0      :     0.001364  f :     0.006996
      f+1     :     0.000519
      f-1     :     0.000581
      f+2     :     0.000783
      f-2     :     0.000441
      f+3     :     0.001484
      f-3     :     0.001825

 25 C s       :     3.143598  s :     3.143598
      pz      :     0.912273  p :     2.447924
      px      :     0.754013
      py      :     0.781638
      dz2     :     0.004848  d :     0.154574
      dxz     :     0.037638
      dyz     :     0.028975
      dx2y2   :     0.044504
      dxy     :     0.038610
      f0      :     0.002095  f :     0.014518
      f+1     :     0.000996
      f-1     :     0.000884
      f+2     :     0.000708
      f-2     :     0.002260
      f+3     :     0.003904
      f-3     :     0.003671

 26 H s       :     0.815773  s :     0.815773
      pz      :     0.004561  p :     0.021895
      px      :     0.010953
      py      :     0.006381

 27 H s       :     0.815751  s :     0.815751
      pz      :     0.004610  p :     0.021892
      px      :     0.009183
      py      :     0.008099

 28 H s       :     0.815161  s :     0.815161
      pz      :     0.005008  p :     0.022160
      px      :     0.007676
      py      :     0.009477

 29 H s       :     0.815154  s :     0.815154
      pz      :     0.004956  p :     0.022160
      px      :     0.009538
      py      :     0.007666

 30 H s       :     0.815793  s :     0.815793
      pz      :     0.004560  p :     0.021895
      px      :     0.010954
      py      :     0.006381

 31 H s       :     0.815783  s :     0.815783
      pz      :     0.004610  p :     0.021893
      px      :     0.009183
      py      :     0.008100

 32 H s       :     0.815154  s :     0.815154
      pz      :     0.005008  p :     0.022160
      px      :     0.007676
      py      :     0.009477

 33 H s       :     0.815795  s :     0.815795
      pz      :     0.004637  p :     0.021895
      px      :     0.006381
      py      :     0.010877

 34 H s       :     0.815147  s :     0.815147
      pz      :     0.004956  p :     0.022160
      px      :     0.009538
      py      :     0.007666

 35 H s       :     0.815771  s :     0.815771
      pz      :     0.004587  p :     0.021893
      px      :     0.008150
      py      :     0.009156

 36 Mgs       :     4.592492  s :     4.592492
      pz      :     2.082459  p :     6.463163
      px      :     2.190859
      py      :     2.189844
      dz2     :     0.034383  d :     0.278243
      dxz     :     0.024861
      dyz     :     0.026446
      dx2y2   :     0.179924
      dxy     :     0.012629



                     *******************************
                     * LOEWDIN POPULATION ANALYSIS *
                     *******************************

----------------------
LOEWDIN ATOMIC CHARGES
----------------------
   0 N :    0.174065
   1 H :    0.148598
   2 C :   -0.112955
   3 C :   -0.112945
   4 N :    0.174128
   5 C :   -0.112947
   6 H :    0.148601
   7 C :   -0.201982
   8 N :    0.174130
   9 C :   -0.112947
  10 C :   -0.083677
  11 C :   -0.202035
  12 N :    0.174065
  13 C :   -0.112938
  14 C :   -0.202025
  15 C :   -0.202063
  16 C :   -0.202036
  17 C :   -0.201983
  18 C :   -0.112940
  19 C :   -0.083680
  20 C :   -0.083675
  21 C :   -0.112957
  22 C :   -0.202064
  23 C :   -0.112944
  24 C :   -0.083680
  25 C :   -0.202029
  26 H :    0.148611
  27 H :    0.148607
  28 H :    0.167873
  29 H :    0.167868
  30 H :    0.148611
  31 H :    0.148607
  32 H :    0.167872
  33 H :    0.148601
  34 H :    0.167868
  35 H :    0.148598
  36 Mg:    0.297799

-------------------------------
LOEWDIN REDUCED ORBITAL CHARGES
-------------------------------
  0 N s       :     2.972422  s :     2.972422
      pz      :     1.196690  p :     3.635746
      px      :     1.331872
      py      :     1.107183
      dz2     :     0.016651  d :     0.199304
      dxz     :     0.011793
      dyz     :     0.042518
      dx2y2   :     0.059683
      dxy     :     0.068659
      f0      :     0.001124  f :     0.018464
      f+1     :     0.000896
      f-1     :     0.001746
      f+2     :     0.000369
      f-2     :     0.003456
      f+3     :     0.004199
      f-3     :     0.006673

  1 H s       :     0.790433  s :     0.790433
      pz      :     0.013602  p :     0.060968
      px      :     0.022217
      py      :     0.025150

  2 C s       :     2.762778  s :     2.762778
      pz      :     0.901264  p :     2.935333
      px      :     0.986395
      py      :     1.047674
      dz2     :     0.027460  d :     0.367992
      dxz     :     0.030922
      dyz     :     0.058067
      dx2y2   :     0.102269
      dxy     :     0.149274
      f0      :     0.002963  f :     0.046852
      f+1     :     0.003713
      f-1     :     0.003971
      f+2     :     0.007220
      f-2     :     0.002455
      f+3     :     0.017625
      f-3     :     0.008905

  3 C s       :     2.762789  s :     2.762789
      pz      :     0.900708  p :     2.935331
      px      :     1.049043
      py      :     0.985580
      dz2     :     0.026217  d :     0.367977
      dxz     :     0.059600
      dyz     :     0.030677
      dx2y2   :     0.102175
      dxy     :     0.149308
      f0      :     0.003029  f :     0.046848
      f+1     :     0.003922
      f-1     :     0.003651
      f+2     :     0.007361
      f-2     :     0.002335
      f+3     :     0.008867
      f-3     :     0.017685

  4 N s       :     2.972370  s :     2.972370
      pz      :     1.198619  p :     3.635692
      px      :     1.106416
      py      :     1.330658
      dz2     :     0.016145  d :     0.199342
      dxz     :     0.043012
      dyz     :     0.011514
      dx2y2   :     0.059719
      dxy     :     0.068952
      f0      :     0.001100  f :     0.018468
      f+1     :     0.001794
      f-1     :     0.000851
      f+2     :     0.000344
      f-2     :     0.003507
      f+3     :     0.006684
      f-3     :     0.004189

  5 C s       :     2.762797  s :     2.762797
      pz      :     0.900811  p :     2.935361
      px      :     1.046994
      py      :     0.987556
      dz2     :     0.026991  d :     0.367945
      dxz     :     0.050955
      dyz     :     0.038467
      dx2y2   :     0.102062
      dxy     :     0.149469
      f0      :     0.002997  f :     0.046845
      f+1     :     0.003911
      f-1     :     0.003724
      f+2     :     0.008856
      f-2     :     0.000805
      f+3     :     0.010315
      f-3     :     0.016237

  6 H s       :     0.790434  s :     0.790434
      pz      :     0.013722  p :     0.060965
      px      :     0.017964
      py      :     0.029279

  7 C s       :     2.696247  s :     2.696247
      pz      :     0.841222  p :     2.791970
      px      :     0.968679
      py      :     0.982069
      dz2     :     0.043855  d :     0.634055
      dxz     :     0.092575
      dyz     :     0.105425
      dx2y2   :     0.199679
      dxy     :     0.192522
      f0      :     0.004891  f :     0.079710
      f+1     :     0.005027
      f-1     :     0.005930
      f+2     :     0.004958
      f-2     :     0.014226
      f+3     :     0.022071
      f-3     :     0.022606

  8 N s       :     2.972368  s :     2.972368
      pz      :     1.198612  p :     3.635690
      px      :     1.106417
      py      :     1.330661
      dz2     :     0.016145  d :     0.199344
      dxz     :     0.043011
      dyz     :     0.011514
      dx2y2   :     0.059721
      dxy     :     0.068953
      f0      :     0.001100  f :     0.018468
      f+1     :     0.001794
      f-1     :     0.000851
      f+2     :     0.000344
      f-2     :     0.003507
      f+3     :     0.006684
      f-3     :     0.004189

  9 C s       :     2.762797  s :     2.762797
      pz      :     0.900809  p :     2.935361
      px      :     1.046993
      py      :     0.987560
      dz2     :     0.026989  d :     0.367944
      dxz     :     0.050953
      dyz     :     0.038467
      dx2y2   :     0.102064
      dxy     :     0.149472
      f0      :     0.002997  f :     0.046845
      f+1     :     0.003911
      f-1     :     0.003724
      f+2     :     0.008856
      f-2     :     0.000805
      f+3     :     0.010315
      f-3     :     0.016237

 10 C s       :     2.749377  s :     2.749377
      pz      :     0.897829  p :     2.928923
      px      :     1.013005
      py      :     1.018088
      dz2     :     0.025207  d :     0.365677
      dxz     :     0.042146
      dyz     :     0.053285
      dx2y2   :     0.095426
      dxy     :     0.149613
      f0      :     0.003131  f :     0.039700
      f+1     :     0.003659
      f-1     :     0.003984
      f+2     :     0.005826
      f-2     :     0.002231
      f+3     :     0.011328
      f-3     :     0.009541

 11 C s       :     2.696255  s :     2.696255
      pz      :     0.840861  p :     2.791982
      px      :     0.981816
      py      :     0.969305
      dz2     :     0.044180  d :     0.634080
      dxz     :     0.087009
      dyz     :     0.110825
      dx2y2   :     0.197751
      dxy     :     0.194314
      f0      :     0.004888  f :     0.079718
      f+1     :     0.004688
      f-1     :     0.006278
      f+2     :     0.007319
      f-2     :     0.011907
      f+3     :     0.014870
      f-3     :     0.029768

 12 N s       :     2.972421  s :     2.972421
      pz      :     1.196691  p :     3.635746
      px      :     1.331872
      py      :     1.107183
      dz2     :     0.016651  d :     0.199304
      dxz     :     0.011793
      dyz     :     0.042518
      dx2y2   :     0.059683
      dxy     :     0.068659
      f0      :     0.001124  f :     0.018464
      f+1     :     0.000896
      f-1     :     0.001746
      f+2     :     0.000369
      f-2     :     0.003456
      f+3     :     0.004199
      f-3     :     0.006673

 13 C s       :     2.762787  s :     2.762787
      pz      :     0.901236  p :     2.935343
      px      :     0.988426
      py      :     1.045681
      dz2     :     0.026690  d :     0.367960
      dxz     :     0.039550
      dyz     :     0.050247
      dx2y2   :     0.102285
      dxy     :     0.149188
      f0      :     0.002995  f :     0.046848
      f+1     :     0.003620
      f-1     :     0.004000
      f+2     :     0.008805
      f-2     :     0.000901
      f+3     :     0.016175
      f-3     :     0.010351

 14 C s       :     2.696236  s :     2.696236
      pz      :     0.840871  p :     2.791990
      px      :     0.983529
      py      :     0.967590
      dz2     :     0.043982  d :     0.634081
      dxz     :     0.106826
      dyz     :     0.090951
      dx2y2   :     0.199685
      dxy     :     0.192636
      f0      :     0.004913  f :     0.079718
      f+1     :     0.006157
      f-1     :     0.004790
      f+2     :     0.005030
      f-2     :     0.014096
      f+3     :     0.022716
      f-3     :     0.022016

 15 C s       :     2.696238  s :     2.696238
      pz      :     0.841223  p :     2.791984
      px      :     0.970407
      py      :     0.980354
      dz2     :     0.043647  d :     0.634112
      dxz     :     0.112472
[...]
  0-1A  ->  1-1A    2.294420   18505.7   540.4   0.005046105   0.00064  -0.02339  -0.00945   0.00133
  0-1A  ->  2-1A    2.294449   18506.0   540.4   0.005080970   0.00064  -0.00951   0.02340  -0.00216
  0-1A  ->  3-1A    3.353701   27049.4   369.7   1.482430504   0.27406  -0.04226  -0.51921   0.05183
  0-1A  ->  4-1A    3.353738   27049.7   369.7   1.482384075   0.27405  -0.52172   0.04289   0.00445
  0-1A  ->  5-1A    4.229465   34112.9   293.1   0.000000000   0.00000   0.00000  -0.00000   0.00000
  0-1A  ->  6-1A    4.280983   34528.5   289.6   0.000000000   0.00000   0.00001  -0.00001  -0.00000
  0-1A  ->  7-1A    4.305861   34729.1   287.9   0.046640940   0.01107   0.10486   0.00829  -0.00258
  0-1A  ->  8-1A    4.306401   34733.5   287.9   0.046607878   0.01106  -0.00851   0.10436  -0.01008
  0-1A  ->  9-1A    4.541972   36633.5   273.0   0.000000000   0.00000   0.00000   0.00000   0.00000
  0-1A  -> 10-1A    4.728528   38138.2   262.2   0.000000000   0.00000  -0.00000   0.00000   0.00000
  0-1A  -> 11-1A    4.871325   39289.9   254.5   0.000000000   0.00000  -0.00000  -0.00000  -0.00000
  0-1A  -> 12-1A    4.895545   39485.2   253.3   0.000000000   0.00000  -0.00001  -0.00000  -0.00001
  0-1A  -> 13-1A    4.938470   39831.5   251.1   0.228595250   0.06223   0.24650   0.03751  -0.00779
  0-1A  -> 14-1A    4.938562   39832.2   251.1   0.228667296   0.06225   0.03809  -0.24544   0.02363
  0-1A  -> 15-1A    5.049514   40727.1   245.5   0.000000012   0.00000  -0.00006  -0.00001   0.00000
  0-1A  -> 16-1A    5.049955   40730.6   245.5   0.000000016   0.00000  -0.00001   0.00007  -0.00001
  0-1A  -> 17-1A    5.167916   41682.1   239.9   0.000503553   0.00014  -0.00022  -0.00105  -0.01193
  0-1A  -> 18-1A    5.250339   42346.8   236.1   0.000000001   0.00000  -0.00000   0.00002  -0.00000
  0-1A  -> 19-1A    5.254186   42377.9   236.0   0.000000000   0.00000   0.00000   0.00000   0.00000
  0-1A  -> 20-1A    5.378466   43380.3   230.5   0.000000000   0.00000  -0.00000   0.00000   0.00000
  0-1A  -> 21-1A    5.698919   45964.9   217.6   0.000000001   0.00000  -0.00002   0.00001  -0.00000
  0-1A  -> 22-1A    5.726974   46191.2   216.5   0.000000000   0.00000  -0.00000   0.00000   0.00000
  0-1A  -> 23-1A    5.846667   47156.6   212.1   0.000000161   0.00000  -0.00023  -0.00003  -0.00001
  0-1A  -> 24-1A    5.890360   47509.0   210.5   0.000000000   0.00000  -0.00000  -0.00000  -0.00000
  0-1A  -> 25-1A    5.925613   47793.3   209.2   0.000000001   0.00000   0.00000  -0.00000  -0.00002
  0-1A  -> 26-1A    5.950553   47994.5   208.4   0.003338661   0.00110  -0.00055  -0.00319  -0.03293
  0-1A  -> 27-1A    5.961611   48083.6   208.0   0.000000775   0.00000   0.00004  -0.00002   0.00050
  0-1A  -> 28-1A    6.029571   48631.8   205.6   0.000000000   0.00000   0.00000  -0.00000  -0.00000
  0-1A  -> 29-1A    6.495002   52385.7   190.9   0.000000000   0.00000  -0.00000   0.00000  -0.00000
  0-1A  -> 30-1A    6.557958   52893.5   189.1   0.000000000   0.00000   0.00000   0.00000   0.00000

------------------------------------------------------------------------------------------
                     CD SPECTRUM VIA TRANSITION ELECTRIC DIPOLE MOMENTS    
------------------------------------------------------------------------------------------
     Transition      Energy     Energy  Wavelength    R        MX        MY        MZ   
                      (eV)      (cm-1)    (nm)   (1e40*cgs)   (au)      (au)      (au)  
------------------------------------------------------------------------------------------
  0-1A  ->  1-1A    2.294420   18505.7   540.4    0.00039  -0.00000  -0.00000   0.00002
  0-1A  ->  2-1A    2.294449   18506.0   540.4   -0.00022   0.00001  -0.00000  -0.00001
  0-1A  ->  3-1A    3.353701   27049.4   369.7   -0.01146   0.00001   0.00001   0.00000
  0-1A  ->  4-1A    3.353738   27049.7   369.7    0.00533  -0.00000   0.00000  -0.00001
  0-1A  ->  5-1A    4.229465   34112.9   293.1   -0.00122  -0.01923  -0.11453  -1.16094
  0-1A  ->  6-1A    4.280983   34528.5   289.6    0.00004  -0.00011  -0.00029  -0.00658
  0-1A  ->  7-1A    4.305861   34729.1   287.9    0.00352   0.00001   0.00004  -0.00001
  0-1A  ->  8-1A    4.306401   34733.5   287.9   -0.00339  -0.00000  -0.00001  -0.00000
  0-1A  ->  9-1A    4.541972   36633.5   273.0   -0.00000  -0.00007   0.00005  -0.00009
  0-1A  -> 10-1A    4.728528   38138.2   262.2    0.00001  -0.00023   0.00003   0.00028
  0-1A  -> 11-1A    4.871325   39289.9   254.5    0.00000   0.00007   0.00024  -0.00034
  0-1A  -> 12-1A    4.895545   39485.2   253.3   -0.00001   0.00023   0.00008   0.00006
  0-1A  -> 13-1A    4.938470   39831.5   251.1    0.01171   0.00000   0.00010  -0.00000
  0-1A  -> 14-1A    4.938562   39832.2   251.1   -0.01213  -0.00011   0.00000   0.00000
  0-1A  -> 15-1A    5.049514   40727.1   245.5   -0.00435  -0.02432   0.26420  -0.02587
  0-1A  -> 16-1A    5.049955   40730.6   245.5    0.00544  -0.26553  -0.02377   0.00672
  0-1A  -> 17-1A    5.167916   41682.1   239.9    0.00009   0.00001  -0.00000  -0.00000
  0-1A  -> 18-1A    5.250339   42346.8   236.1   -0.00000   0.00000   0.00001   0.00016
  0-1A  -> 19-1A    5.254186   42377.9   236.0   -0.00005  -0.00999  -0.06017  -0.60766
  0-1A  -> 20-1A    5.378466   43380.3   230.5    0.00000  -0.00009  -0.00005   0.00012
  0-1A  -> 21-1A    5.698919   45964.9   217.6   -0.00000   0.00000   0.00000   0.00002
  0-1A  -> 22-1A    5.726974   46191.2   216.5   -0.00000  -0.00019  -0.00011  -0.00000
  0-1A  -> 23-1A    5.846667   47156.6   212.1    0.00000   0.00000  -0.00001  -0.00007
  0-1A  -> 24-1A    5.890360   47509.0   210.5    0.00001   0.00038  -0.00020  -0.00054
  0-1A  -> 25-1A    5.925613   47793.3   209.2   -0.00000   0.00024   0.00043   0.00000
  0-1A  -> 26-1A    5.950553   47994.5   208.4   -0.00020   0.00000   0.00000   0.00000
  0-1A  -> 27-1A    5.961611   48083.6   208.0   -0.00002  -0.00000  -0.00000  -0.00002
  0-1A  -> 28-1A    6.029571   48631.8   205.6   -0.00047   0.00983   0.05807   0.59376
  0-1A  -> 29-1A    6.495002   52385.7   190.9    0.00000  -0.00038   0.00005  -0.00010
  0-1A  -> 30-1A    6.557958   52893.5   189.1   -0.00000   0.00016   0.00020  -0.00027

------------------------------------------------------------------------------------------
                     CD SPECTRUM VIA TRANSITION VELOCITY DIPOLE MOMENTS    
------------------------------------------------------------------------------------------
     Transition      Energy     Energy  Wavelength    R        MX        MY        MZ   
                      (eV)      (cm-1)    (nm)   (1e40*cgs)   (au)      (au)      (au)  
------------------------------------------------------------------------------------------
  0-1A  ->  1-1A    2.294420   18505.7   540.4    0.00037  -0.00000  -0.00000   0.00002
  0-1A  ->  2-1A    2.294449   18506.0   540.4   -0.00022   0.00001  -0.00000  -0.00001
  0-1A  ->  3-1A    3.353701   27049.4   369.7   -0.01139   0.00001   0.00001   0.00000
  0-1A  ->  4-1A    3.353738   27049.7   369.7    0.00530  -0.00000   0.00000  -0.00001
  0-1A  ->  5-1A    4.229465   34112.9   293.1    0.00031  -0.01923  -0.11453  -1.16094
  0-1A  ->  6-1A    4.280983   34528.5   289.6    0.00004  -0.00011  -0.00029  -0.00658
  0-1A  ->  7-1A    4.305861   34729.1   287.9    0.00353   0.00001   0.00004  -0.00001
  0-1A  ->  8-1A    4.306401   34733.5   287.9   -0.00341  -0.00000  -0.00001  -0.00000
  0-1A  ->  9-1A    4.541972   36633.5   273.0   -0.00000  -0.00007   0.00005  -0.00009
  0-1A  -> 10-1A    4.728528   38138.2   262.2    0.00001  -0.00023   0.00003   0.00028
  0-1A  -> 11-1A    4.871325   39289.9   254.5    0.00000   0.00007   0.00024  -0.00034
  0-1A  -> 12-1A    4.895545   39485.2   253.3   -0.00001   0.00023   0.00008   0.00006
  0-1A  -> 13-1A    4.938470   39831.5   251.1    0.01166   0.00000   0.00010  -0.00000
  0-1A  -> 14-1A    4.938562   39832.2   251.1   -0.01209  -0.00011   0.00000   0.00000
  0-1A  -> 15-1A    5.049514   40727.1   245.5   -0.00421  -0.02432   0.26420  -0.02587
  0-1A  -> 16-1A    5.049955   40730.6   245.5    0.00554  -0.26553  -0.02377   0.00672
  0-1A  -> 17-1A    5.167916   41682.1   239.9    0.00010   0.00001  -0.00000  -0.00000
  0-1A  -> 18-1A    5.250339   42346.8   236.1    0.00000   0.00000   0.00001   0.00016
  0-1A  -> 19-1A    5.254186   42377.9   236.0   -0.00031  -0.00999  -0.06017  -0.60766
  0-1A  -> 20-1A    5.378466   43380.3   230.5    0.00000  -0.00009  -0.00005   0.00012
  0-1A  -> 21-1A    5.698919   45964.9   217.6   -0.00000   0.00000   0.00000   0.00002
  0-1A  -> 22-1A    5.726974   46191.2   216.5   -0.00000  -0.00019  -0.00011  -0.00000
  0-1A  -> 23-1A    5.846667   47156.6   212.1    0.00000   0.00000  -0.00001  -0.00007
  0-1A  -> 24-1A    5.890360   47509.0   210.5    0.00001   0.00038  -0.00020  -0.00054
  0-1A  -> 25-1A    5.925613   47793.3   209.2   -0.00000   0.00024   0.00043   0.00000
  0-1A  -> 26-1A    5.950553   47994.5   208.4   -0.00022   0.00000   0.00000   0.00000
  0-1A  -> 27-1A    5.961611   48083.6   208.0   -0.00002  -0.00000  -0.00000  -0.00002
  0-1A  -> 28-1A    6.029571   48631.8   205.6   -0.00019   0.00983   0.05807   0.59376
  0-1A  -> 29-1A    6.495002   52385.7   190.9    0.00000  -0.00038   0.00005  -0.00010
  0-1A  -> 30-1A    6.557958   52893.5   189.1   -0.00000   0.00016   0.00020  -0.00027

Total run time:     6810.631 sec

           *** ORCA-CIS/TD-DFT FINISHED WITHOUT ERROR ***
-----------------------
CIS/TD-DFT TOTAL ENERGY
-----------------------

    E(SCF)  =  -1188.418108363 Eh
    DE(CIS) =      0.084318377 Eh (Root  1)
    ----------------------------- ---------
    E(tot)  =  -1188.333789985 Eh


Maximum memory used throughout the entire CIS-calculation: 2717.8 MB
=> NOW LEAVING ORCA_CIS

-------------------------   --------------------
FINAL SINGLE POINT ENERGY     -1188.333789985329
-------------------------   --------------------



           ************************************************************
           *        Program running with 4 parallel MPI-processes     *
           *              working on a common directory               *
           ************************************************************

------------------------------------------------------------------------------
                              ORCA PROPERTY CALCULATIONS
------------------------------------------------------------------------------

GBWName                                 ... tddft.gbw
Number of atoms                         ...     37
Number of basis functions               ...    848
Max core memory                         ...   3000 MB

Electric properties:
Dipole moment                           ... YES
Quadrupole moment                       ...  NO
Static polarizability (Dipole/Dipole)   ...  NO
Static polarizability (Dipole/Quad.)    ...  NO
Static polarizability (Quad./Quad.)     ...  NO
Static polarizability (Velocity)        ...  NO
Static hyperpolarizability              ...  NO

Atomic electric properties:
Dipole moment                           ...  NO
Quadrupole moment                       ...  NO
Static polarizability                   ...  NO

Choice of electric origin               ... Center of mass
Position of electric origin             ...    -0.158818     5.090151     6.572142

General magnetic properties:
Magnetizability                         ...  NO

EPR properties:
g-Tensor (aka g-matrix)                 ...  NO
Zero-Field splitting spin-orbit         ...  NO
Zero-field splitting spin-spin          ...  NO
Hyperfine couplings                     ...  NO (   0 nuclei)
Quadrupole couplings                    ...  NO (   0 nuclei)
Contact density                         ...  NO (   0 nuclei)

NMR properties:
Chemical shifts                         ...  NO (   0 nuclei)
Spin-rotation constants                 ...  NO (   0 nuclei)
Spin-spin couplings                     ...  NO (   0 nuclei,    0 pairs)

Choice of magnetic origin               ... GIAO
Position of magnetic origin             ...     0.000000     0.000000     0.000000

Properties with geometric perturbations:
SCF Hessian                             ...  NO
IR spectrum                             ...  NO
VCD spectrum                            ...  NO
X-ray spectroscopy properties:
SCF XES/XAS/RIXS spectra                ...  NO

SCF SOC stabilization energy            ...  NO
Diagonal Born-Oppenheimer correction    ...  NO

-------------
DIPOLE MOMENT
-------------

Method             : SCF
Type of density    : Electron Density
Multiplicity       :   1
Irrep              :   0
Energy             : -1188.4181083626722284 Eh
Basis              : AO
                                X                 Y                 Z
Electronic contribution:      0.000009539      -0.000031345      -0.000423814
Nuclear contribution   :     -0.000008108       0.000042856       0.000532868
                        -----------------------------------------
Total Dipole Moment    :      0.000001431       0.000011510       0.000109055
                        -----------------------------------------
Magnitude (a.u.)       :      0.000109670
Magnitude (Debye)      :      0.000278759



--------------------
Rotational spectrum 
--------------------
 
Rotational constants in cm-1:             0.008916             0.008916             0.004458 
Rotational constants in MHz :           267.307767           267.296540           133.651083 

Dipole components along the rotational axes: 
x,y,z [a.u.] :     0.000001    -0.000000     0.000110 
x,y,z [Debye]:     0.000002    -0.000001     0.000279 

 

Dipole moment calculation done in   0.1 sec 

Maximum memory used throughout the entire PROP-calculation: 86.1 MB

--------------------------------
SUGGESTED CITATIONS FOR THIS RUN
--------------------------------

Below you find a list of papers that are relevant to this ORCA run
We neither can nor want to force you to cite these papers, but we appreciate if you do
You receive ORCA, which is the product of decades of hard work by many enthusiastic individuals, for free
The only thing we kindly ask in return is that you cite our papers,
We deeply appreciate it, if you show your appreciation for ORCA by not just citing the generic ORCA reference.

Please note that relegating all ORCA citations to the supporting information does *not* help us.
SI sections are not indexed - citations you put there will not count into any citation statistics
But we need these citations in order to attract the funding resources that allow us to do what we are doing

Therefore, if you are a happy ORCA user, please consider citing a few of the papers listed below in the main body of your paper

In addition to the list printed below, the program has created the file tddft.bibtex that contains the list in bibtex format
You can import this file easily into all common literature databanks and citation aid programs

It goes without saying that in many instances, there are alternative algorithms to achieve similar
results as the ones you have gotten from ORCA. It is, of course, also the case that in some instances
ORCA just re-implements algorithms worked out by others. We are fully aware of that and we are also
fully appreciative of our colleagues work. Hence this citation list should not be read as indicating
that the listed papers, which are focused on our own work, are the only ones worth citing. It simply
meant to make it easier for users to cite ORCA specific papers. It is not a substitute for doing your
own literature research and citing the relevant literature in a scientifically appropriate manner.

List of essential papers. We consider these as the minimum necessary citations

  1. Neese, F.
     Software update: the ORCA program system, version 6.0
     WIRES Comput. Molec. Sci. 2025 15(1), e70019
     doi.org/10.1002/wcms.70019

List of papers to cite with high priority. The work reported in these papers was absolutely
necessary for this run to complete.
Our perspective: the developers of density functionals and basis sets usually get cited in chemistry papers
Good! But without the algorithms to do something with them, the functionals or basis sets would not do anything.
Hence, in our opinion, the algorithm design and method developments papers are equally worthy of getting cited

  1. Neese, F.; Olbrich, G.
     Efficient use of the resolution of the identity approximation in time-dependent density functional calculations with hybrid density functionals
     Chem. Phys. Lett. 2002 362 , 170-178
     doi.org/10.1016/s0009-2614(02)01053-9
  2. Neese, F.
     An improvement of the resolution of the identity approximation for the formation of the Coulomb matrix
     J. Comp. Chem. 2003 24(14), 1740-1747
     doi.org/10.1002/jcc.10318
  3. Neese, F.; Wennmohs, F.; Hansen, A.; Becker, U.
     Efficient, approximate and parallel Hartree-Fock and hybrid DFT calculations. A 'chain-of-spheres' algorithm for the Hartree-Fock exchange
     Chem. Phys. 2009 356(1-3), 98-109
     doi.org/10.1016/j.chemphys.2008.10.036
  4. Garcia-Rates, M.; Neese, F.
     Effect of the Solute Cavity on the Solvation Energy and its Derivatives within the Framework of the Gaussian Charge Scheme
     J. Comput. Chem. 2020 41 , 922-939
     doi.org/10.1002/jcc.26139
  5. Helmich-Paris, B.; de Souza, B.; Neese, F.; Izsák, R.
     An improved chain of spheres for exchange algorithm
     J. Chem. Phys. 2021 155(10), 104109
     doi.org/10.1063/5.0058766
  6. Neese, F.
     The SHARK Integral Generation and Digestion System
     J. Comp. Chem. 2022 44(3), 381
     doi.org/10.1002/jcc.26942

List of suggested additional citations. These are papers that are important in the 'surrounding' of 
of this run, or papers that preceded the highly important papers. If you like your results we are grateful for a citation.

  1. Izsak, R.; Neese, F.
     An overlap fitted chain of spheres exchange method
     J. Chem. Phys. 2011 135 , 144105
     doi.org/10.1063/1.3646921
  2. Izsak, R.; Hansen, A.; Neese, F.
     The resolution of identity and chain of spheres approximations for the LPNO-CCSD singles Fock term
     Molec. Phys. 2012 110 , 2413-2417
     doi.org/10.1080/00268976.2012.687466
  3. Neese, F.
     The ORCA program system
     WIRES Comput. Molec. Sci. 2012 2(1), 73-78
     doi.org/10.1002/wcms.81
  4. Izsak, R.; Neese, F.; Klopper, W.
     Robust fitting techniques in the chain of spheres approximation to the Fock exchange: The role of the complementary space
     J. Chem. Phys. 2013 139 , 
     doi.org/10.1063/1.4819264
  5. Neese, F.
     Software update: the ORCA program system, version 4.0
     WIRES Comput. Molec. Sci. 2018 8(1), 1-6
     doi.org/10.1002/wcms.1327
  6. Neese, F.; Wennmohs, F.; Becker, U.; Riplinger, C.
     The ORCA quantum chemistry program package
     J. Chem. Phys. 2020 152(22), 224108
     doi.org/10.1063/5.0004608
  7. Neese, F.
     Software update: The ORCA program system—Version 5.0
     WIRES Comput. Molec. Sci. 2022 12(1), e1606
     doi.org/10.1002/wcms.1606

List of optional additional citations

  1. Neese, F.
     Approximate second-order SCF convergence for spin unrestricted wavefunctions
     Chem. Phys. Lett. 2000 325(1-3), 93-98
     doi.org/10.1016/s0009-2614(00)00662-x

Timings for individual modules:

Sum of individual times          ...     8439.349 sec (= 140.656 min)
Startup calculation              ...       16.090 sec (=   0.268 min)   0.2 %
SCF iterations                   ...     1610.261 sec (=  26.838 min)  19.1 %
Property integrals               ...        0.945 sec (=   0.016 min)   0.0 %
Property calculations            ...        1.057 sec (=   0.018 min)   0.0 %
CIS module                       ...     6810.996 sec (= 113.517 min)  80.7 %
                             ****ORCA TERMINATED NORMALLY****
TOTAL RUN TIME: 0 days 2 hours 20 minutes 39 seconds 780 msec
