
                                 *****************
                                 * O   R   C   A *
                                 *****************

                                            #,                                       
                                            ###                                      
                                            ####                                     
                                            #####                                    
                                            ######                                   
                                           ########,                                 
                                     ,,################,,,,,                         
                               ,,#################################,,                 
                          ,,##########################################,,             
                       ,#########################################, ''#####,          
                    ,#############################################,,   '####,        
                  ,##################################################,,,,####,       
                ,###########''''           ''''###############################       
              ,#####''   ,,,,##########,,,,          '''####'''          '####       
            ,##' ,,,,###########################,,,                        '##       
           ' ,,###''''                  '''############,,,                           
         ,,##''                                '''############,,,,        ,,,,,,###''
      ,#''                                            '''#######################'''  
     '                                                          ''''####''''         
             ,#######,   #######,   ,#######,      ##                                
            ,#'     '#,  ##    ##  ,#'     '#,    #''#        ,####,    ,#,          
            ##       ##  ##   ,#'  ##            #'  '#       #'       ,# #          
            ##       ##  #######   ##           ,######,      #####,      #          
            '#,     ,#'  ##    ##  '#,     ,#' ,#      #,     #,   #      #          
             '#######'   ##     ##  '#######'  #'      '#     '####' #    #          



                #########################################################
                #                        -***-                          #
                #          Department of theory and spectroscopy        #
                #                                                       #
                #                      Frank Neese                      #
                #                                                       #
                #     Directorship, Architecture, Infrastructure        #
                #                    SHARK, DRIVERS                     #
                #        Core code/Algorithms in most modules           #
                #                                                       #
                #        Max Planck Institute fuer Kohlenforschung      #
                #                Kaiser Wilhelm Platz 1                 #
                #                 D-45470 Muelheim/Ruhr                 #
                #                      Germany                          #
                #                                                       #
                #                  All rights reserved                  #
                #                        -***-                          #
                #########################################################


                         Program Version 6.1.1  -  RELEASE   -
                                (GIT: $487d211c$)
                          ($2025-11-21 10:33:24 +0100$)


 With contributions from (in alphabetic order):
[Max-Planck-Institut fuer Kohlenforschung]                               
  Daniel Aravena         : Magnetic Suceptibility                        
  Michael Atanasov       : Ab Initio Ligand Field Theory (pilot matlab implementation)
  Alexander A. Auer      : GIAO ZORA, VPT2 properties, NMR spectrum      
  Ute Becker             : All parallelization in ORCA, NUMFREQ, NUMCALC 
  Giovanni Bistoni       : ED, misc. LED, open-shell LED, HFLD           
  Dmytro Bykov           : pre 5.0 version of the SCF Hessian            
  Marcos Casanova-Páez   : Triplet and SCS-CIS(D). UHF-(DLPNO)-IP/EA/STEOM-CCSD. UHF-CVS-IP/STEOM-CCSD   
  Vijay G. Chilkuri      : MRCI spin determinant printing, contributions to CSF-ICE 
  Pauline Colinet        : FMM embedding                                 
  Dipayan Datta          : RHF DLPNO-CCSD density                        
  Achintya Kumar Dutta   : EOM-CC, STEOM-CC                              
  Nicolas Foglia         : Exact transition moments, OPA infrastructure, MCD improvements    
  Dmitry Ganyushin       : Spin-Orbit,Spin-Spin,Magnetic field MRCI      
  Miquel Garcia-Rates    : C-PCM and meta-GGA Hessian, CCSD/C-PCM, Gaussian charge scheme 
  Tiago L. C. Gouveia    : GS-ROHF, GS-ROCIS                             
  Yang Guo               : DLPNO-NEVPT2, F12-NEVPT2, CIM, IAO-localization        
  Andreas Hansen         : Spin unrestricted coupled pair/coupled cluster methods 
  Ingolf Harden          : AUTO-CI MPn and infrastructure                
  Benjamin Helmich-Paris : MC-RPA, TRAH-(SCF,CASSCF), AVAS, COSX integrals, SCF dyn. polar., MC-PDFT, srDFT 
  Lee Huntington         : MR-EOM, pCC                                   
  Robert Izsak           : Overlap fitted RIJCOSX, COSX-SCS-MP3, EOM     
  Riya Kayal             : Wick's Theorem for AUTO-CI, AUTO-CI UHF-CCSDT 
  Emily Kempfer          : AUTO-CI RHF CISDT and CCSDT, approximate NEVPT4
  Christian Kollmar      : KDIIS, OOCD, Brueckner-CCSD(T), CCSD density, CASPT2, CASPT2-K, improved NEVPT2 
  Axel Koslowski         : Symmetry handling                             
  Simone Kossmann        : meta-GGA functionals, TD-DFT gradient, OOMP2, (MP2 Hessian; deprecated post 5.0) 
  Lucas Lang             : DCDCAS, Hyperfine gauge corrections, ICE-SOC+SSC
  Marvin Lechner         : AUTO-CI (C++ implementation), FIC-MRCC        
  Spencer Leger          : CASSCF response                               
  Dagmar Lenk            : GEPOL surface, SMD, ORCA-2-JSON               
  Dimitrios Liakos       : Extrapolation schemes; Compound Job, Property file
  Dimitrios Manganas     : Further ROCIS development; embedding schemes. LFT, Crystal Embedding 
  Dimitrios Pantazis     : SARC Basis sets                               
  Anastasios Papadopoulos: AUTO-CI, single reference methods and gradients 
  Taras Petrenko         : pre 6.0 DFT Hessian and TD-DFT gradient,  ECA, NRVS 
  Petra Pikulova         : Analytic Raman intensities                    
  Peter Pinski           : DLPNO-MP2, DLPNO-MP2 Gradient                 
  Shashank Vittal Rao    : ES-AILFT, MagRelax                            
  Christoph Reimann      : Effective Core Potentials                     
  Marius Retegan         : Local ZFS, SOC                                
  Christoph Riplinger    : Optimizer, TS searches, QM/MM, DLPNO-CCSD(T), (RO)-DLPNO pert. Triples 
  Michael Roemelt        : Original ROCIS implementation, recursive CI coupling coefficients
  Masaaki Saitow         : Open-shell DLPNO-CCSD energy and density      
  Barbara Sandhoefer     : DKH picture change effects                    
  Yorick L. A. Schmerwitz: GMF and freeze-and-release deltaSCF, NEB S-IDPP initial path                    
  Kantharuban Sivalingam : CASSCF convergence/infrastructure, NEVPT2, NEVPT3, NEVPT4(SD), FIC-MRCI and CEPA variants
  Bernardo de Souza      : ESD, SOC TD-DFT                               
  Georgi L. Stoychev     : AutoAux, RI-MP2 NMR, DLPNO-MP2 response, X2C  
  Van Anh Tran           : RI-MP2 g-tensors                              
  Willem Van den Heuvel  : Paramagnetic NMR                              
  Zikuan Wang            : NOTCH, Electric field optimization            
  Frank Wennmohs         : Technical directorship and infrastructure     
  Hang Xu                : AUTO-CI-Response properties                   
                                                                         
[FACCTs GmbH]                                                            
  Markus Bursch, Nicolas Foglia, Miquel Garcia-Rates, Ingolf Harden, Hagen Neugebauer, Anastasios Papadopoulos, 
  Christoph Riplinger, Bernardo de Souza, Georgi L. Stoychev                                                    
                                                                 
  APM, various basis sets, CI-OPT, improved COSX, DLPNO-Multilevel,           
  DOCKER, DRACO, updates on ESD, Fragmentator, GOAT, IRC, LR-CPCM, L-BFGS, MBIS, meta-GGA TD-DFT gradient, ML-optimized integration grids, 
  MM, NACMEs, nearIR, NEB, NEB-TS, NL-DFT gradient (VV10), 2- and 3-layer-ONIOM, interface openCOSMO-RS, QMMM,   
  Crystal-QMMM, RESP, rigid body optimization, SF, symmetry and pop. for TD-DFT, various functionals, SOLVATOR                                   
                                                                         
[Other institutions]                                                     
  V. Asgeirsson          : NEB                                           
  Christoph Bannwarth    : sTDA-DFT, sTD-DFT, PBEh-3c, B97-3c, D3        
  Giovanni Bistoni       : ETS/NOCV, ADLD/ADEX, COVALED                  
  Martin Brehm           : Molecular dynamics                            
  Ronald Cardenas        : ETS/NOCV                                      
  Martina Colucci        : COVALED                                       
  Sebastian Ehlert       : rSCAN, r2SCAN, r2SCAN-3c, D4, dhf basis sets  
  Marvin Friede          : D4 for Fr, Ra, Ac-Lr                          
  Lars Goerigk           : TD-DFT with DH, B97 family of functionals     
  Stefan Grimme          : VdW corrections, initial TS optimization, DFT functionals, gCP, sTDA/sTD-DF 
  Waldemar Hujo          : DFT-NL                                        
  H. Jonsson             : NEB                                           
  Holger Kruse           : gCP                                           
  Marcel Mueller         : wB97X-3c, vDZP basis set                      
  Hagen Neugebauer       : wr2SCAN, Native XTB                           
  Gianluca Regni         : ADLD/ADEX                                     
  Tobias Risthaus        : pre 6.0 range-separated hybrid DFT and stability analysis
  Lukas Wittmann         : regularized MP2, r2SCAN double-hybrids, wr2SCAN        
                                                                         
We gratefully acknowledge several colleagues who have allowed us to      
interface, adapt or use parts of their codes:                            
  Ed Valeev, F. Pavosevic, A. Kumar             : LibInt (2-el integral package), F12 methods 
  Garnet Chan, S. Sharma, J. Yang, R. Olivares  : DMRG                   
  Ulf Ekstrom                                   : XCFun DFT Library      
  Mihaly Kallay                                 : mrcc  (arbitrary order and MRCC methods)
  Frank Weinhold                                : gennbo (NPA and NBO analysis)           
  Simon Mueller                                 : openCOSMO-RS                            
  Christopher J. Cramer and Donald G. Truhlar   : smd solvation model                     
  S Lehtola, MJT Oliveira, MAL Marques          : LibXC Library                           
  Liviu Ungur et al                             : ANISO software                          


 Your calculation uses the libint2 library for the computation of 2-el integrals
 For citations please refer to: http://libint.valeyev.net

 Your ORCA version has been built with support for libXC version: 7.0.0
 For citations please refer to: https://libxc.gitlab.io

 This ORCA versions uses:
   CBLAS   interface :  Fast vector & matrix operations
   LAPACKE interface :  Fast linear algebra routines
   SCALAPACK package :  Parallel linear algebra routines
   Shared memory     :  Shared parallel matrices
   BLAS/LAPACK       :  OpenBLAS 0.3.29  USE64BITINT DYNAMIC_ARCH NO_AFFINITY Haswell SINGLE_THREADED
        Core in use  :  Haswell
   Copyright (c) 2011-2014, The OpenBLAS Project


  ***********************************
  * Starting time: Sun Jul  5 20:36:01 2026
  * Host name:     steezy
  * Process ID:    1294986
  * Working dir.:  /home/jannes/chlorophyll-ladder/007-mg-core-ladder/mgporphin/03_tddft_ch2cl2/tpss
  ***********************************

NOTE: MaxCore=3000 MB was set to SCF,MP2,MDCI,CIPSI,MRCI,RASCI and CIS
      => If you want to overwrite this, your respective input block should be placed after the MaxCore statement


***************************************
The coordinates will be read from file: /home/jannes/chlorophyll-ladder/007-mg-core-ladder/mgporphin/01_opt/mgporphin_opt_b3lypd4_tzvp.xyz
***************************************


================================================================================

----- Orbital basis set information -----
Your calculation utilizes the basis: def2-TZVP
   F. Weigend and R. Ahlrichs, Phys. Chem. Chem. Phys. 7, 3297 (2005).

----- AuxJ basis set information -----
Your calculation utilizes the auxiliary basis: def2/J
   H-Rn: F. Weigend, Phys. Chem. Chem. Phys. 8, 1057 (2006).
   Fr-Lr: K. Eichkorn, F. Weigend, O. Treutler, R. Ahlrichs; Theor. Chem. Acc. 97, 119 (1997).

================================================================================
                                        WARNINGS
                       Please study these warnings very carefully!
================================================================================



WARNING: Found flag for RIJCOSX approximation but no HF exchange needed!
  ===> : RIJCOSX  will be disabled and Split-RI-J is turned on

WARNING: CIS/ROCIS methods need fully converged wavefunctions
  ===> : Setting SCFConvForced true
         You can overwrite this default with %scf ConvForced false 


================================================================================
                                       INPUT FILE
================================================================================
NAME = tddft.inp
|  1> %pal nprocs 4 end
|  2> %maxcore 3000
|  3> ! TPSS def2-TZVP def2/J RIJCOSX DefGrid3 TightSCF CPCM(CH2Cl2)
|  4> %tddft
|  5>   nroots 30
|  6>   tda false
|  7>   triplets false
|  8> end
|  9> * xyzfile 0 1 /home/jannes/chlorophyll-ladder/007-mg-core-ladder/mgporphin/01_opt/mgporphin_opt_b3lypd4_tzvp.xyz
| 10> 
| 11>                          ****END OF INPUT****
================================================================================

                       ****************************
                       * Single Point Calculation *
                       ****************************

---------------------------------
CARTESIAN COORDINATES (ANGSTROEM)
---------------------------------
  N     -2.126632    2.522518    3.528336
  H      1.688951   -2.244306    3.936854
  C     -4.367453    3.014298    3.517091
  C     -0.399300   -1.569210    3.904114
  N      0.091157    0.660020    3.674254
  C      0.955251   -1.456037    3.870452
  H     -0.988023   -2.467894    4.003531
  C      2.861647    1.841375    3.512926
  N     -0.259245    4.727154    3.281236
  C     -1.123334    6.843238    3.085343
  C      2.534867    0.494152    3.650974
  C      2.674027    4.023168    3.301567
  N      1.958546    2.864658    3.427339
  C      4.083452    3.721259    3.307939
  C     -0.935449   -0.237004    3.780431
  C      1.256233   -0.053833    3.726030
  C     -2.842123    1.364011    3.654087
  C     -3.029725    3.545804    3.442713
  C     -4.251542    1.665928    3.647704
  C     -2.289528    0.090486    3.770544
  C     -2.702948    4.893026    3.304662
  C      4.199367    2.372883    3.438500
  C     -1.424318    5.441018    3.229591
  C      0.231221    6.956420    3.051755
  C      2.121440    5.296697    3.185130
  C      0.767360    5.624187    3.175204
  H     -5.271397    3.601806    3.474297
  H     -5.042401    0.936910    3.732428
  H     -2.986818   -0.732582    3.863624
  H      3.363051   -0.201104    3.706153
  H      5.103317    1.785376    3.481270
  H      4.874295    4.450291    3.223211
  H      2.818737    6.119763    3.092108
  H      0.819955    7.855111    2.952489
  H     -3.531147    5.588265    3.249501
  H     -1.857042    7.631509    3.019026
  Mg    -0.084042    2.693585    3.477789

----------------------------
CARTESIAN COORDINATES (A.U.)
----------------------------
  NO LB      ZA    FRAG     MASS         X           Y           Z
   0 N     7.0000    0    14.007   -4.018753    4.766868    6.667589
   1 H     1.0000    0     1.008    3.191655   -4.241124    7.439576
   2 C     6.0000    0    12.011   -8.253290    5.696197    6.646338
   3 C     6.0000    0    12.011   -0.754567   -2.965378    7.377707
   4 N     7.0000    0    14.007    0.172263    1.247257    6.943333
   5 C     6.0000    0    12.011    1.805164   -2.751510    7.314095
   6 H     1.0000    0     1.008   -1.867093   -4.663643    7.565577
   7 C     6.0000    0    12.011    5.407728    3.479694    6.638469
   8 N     7.0000    0    14.007   -0.489901    8.933026    6.200637
   9 C     6.0000    0    12.011   -2.122794   12.931846    5.830453
  10 C     6.0000    0    12.011    4.790204    0.933812    6.899342
  11 C     6.0000    0    12.011    5.053178    7.602686    6.239058
  12 N     7.0000    0    14.007    3.701116    5.413420    6.476731
  13 C     6.0000    0    12.011    7.716607    7.032160    6.251099
  14 C     6.0000    0    12.011   -1.767742   -0.447872    7.143980
  15 C     6.0000    0    12.011    2.373936   -0.101729    7.041177
  16 C     6.0000    0    12.011   -5.370834    2.577607    6.905224
  17 C     6.0000    0    12.011   -5.725351    6.700598    6.505785
  18 C     6.0000    0    12.011   -8.034249    3.148147    6.893162
  19 C     6.0000    0    12.011   -4.326581    0.170994    7.125295
  20 C     6.0000    0    12.011   -5.107832    9.246479    6.244906
  21 C     6.0000    0    12.011    7.935654    4.484099    6.497823
  22 C     6.0000    0    12.011   -2.691571   10.282033    6.103042
  23 C     6.0000    0    12.011    0.436944   13.145729    5.766981
  24 C     6.0000    0    12.011    4.008940   10.009307    6.019023
  25 C     6.0000    0    12.011    1.450100   10.628173    6.000267
  26 H     1.0000    0     1.008   -9.961497    6.806428    6.565470
  27 H     1.0000    0     1.008   -9.528758    1.770503    7.053266
  28 H     1.0000    0     1.008   -5.644268   -1.384379    7.301191
  29 H     1.0000    0     1.008    6.355246   -0.380031    7.003613
  30 H     1.0000    0     1.008    9.643871    3.373872    6.578646
  31 H     1.0000    0     1.008    9.211083    8.409831    6.090987
  32 H     1.0000    0     1.008    5.326641   11.564676    5.843236
  33 H     1.0000    0     1.008    1.549490   14.844008    5.579396
  34 H     1.0000    0     1.008   -6.672901   10.560290    6.140667
  35 H     1.0000    0     1.008   -3.509300   14.421462    5.705132
  36 Mg   12.0000    0    24.305   -0.158817    5.090138    6.572068

--------------------------------
INTERNAL COORDINATES (ANGSTROEM)
--------------------------------
 N      0   0   0     0.000000000000     0.00000000     0.00000000
 H      1   0   0     6.119491276487     0.00000000     0.00000000
 C      1   2   0     2.294177409054   140.92453006     0.00000000
 C      2   1   3     2.194906869500    33.50915004     0.03654954
 N      4   2   1     2.294090550086    95.56469348     0.04751811
 C      2   1   3     1.078931462307     4.27284844     0.40083788
 H      4   2   1     1.078939583961   105.16341269   180.06430126
 C      5   4   2     3.016162461030   125.61516112   359.95655471
 N      1   2   6     2.899761601367   101.32570715   180.34880946
 C      9   1   2     2.294087441504   117.77531267   179.96469761
 C      8   5   4     1.393144250589    53.16437800     0.06876310
 C      8   5   4     2.200021689544   108.37491839   180.08468447
 N     12   8   5     1.367433868161    36.44673543     0.00000000
 C     12   8   5     1.441412676383    73.05033634   180.01204037
 C      5   4   2     1.367422885977    36.31868910   180.00102268
 C      5   4   2     1.367357644410    70.79572404     0.00000000
 C      1   2   6     1.367434647900    70.13306991     0.35586623
 C      1   2   6     1.367487791728   177.24111910     0.97900926
 C      3   1   2     1.359631242567    72.76301102   359.95357395
 C     17   1   2     1.393122060686   125.07310744     0.00000000
 C     18   1  17     1.393143327356   125.09478022   180.00966439
 C     14  12   8     1.359631880754   106.94820236     0.00000000
 C      9   1   2     1.367356903781    81.45605938   180.00111785
 C     10   9   1     1.359689963047    72.76177076   180.05889371
 C     12   8   5     1.393121008199   161.52060847   359.96153148
 C      9   1   2     1.367416327023   171.42924741     0.34052806
 H      3   1   2     1.078940742119   159.26701397   179.95498931
 H     19   3   1     1.078936604777   127.96204490   180.00155066
 H     20  17   1     1.082736356593   116.52889429   179.96077396
 H     11   8   5     1.082734663195   116.52549896   180.00584317
 H     22  14  12     1.078943065563   127.96985474   179.99900777
 H     14  12   8     1.078934265943   125.08876244   180.00062158
 H     25  12   8     1.082734522723   116.52871416   180.07456094
 H     24  10   9     1.078937518569   127.96698994   179.97965206
 H     21  18   1     1.082734010826   116.52436251   179.96628297
 H     10   9   1     1.078932341162   159.27697815     0.03817484
 Mg    13  12   8     2.050360529877   126.45537008   180.01043791

---------------------------
INTERNAL COORDINATES (A.U.)
---------------------------
 N      0   0   0     0.000000000000     0.00000000     0.00000000
 H      1   0   0    11.564162591480     0.00000000     0.00000000
 C      1   2   0     4.335367005742   140.92453006     0.00000000
 C      2   1   3     4.147772872818    33.50915004     0.03654954
 N      4   2   1     4.335202866080    95.56469348     0.04751811
 C      2   1   3     2.038884981031     4.27284844     0.40083788
 H      4   2   1     2.038900328733   105.16341269   180.06430126
 C      5   4   2     5.699721026761   125.61516112   359.95655471
 N      1   2   6     5.479755280244   101.32570715   180.34880946
 C      9   1   2     4.335196991710   117.77531267   179.96469761
 C      8   5   4     2.632661098659    53.16437800     0.06876310
 C      8   5   4     4.157438481924   108.37491839   180.08468447
 N     12   8   5     2.584075517072    36.44673543     0.00000000
 C     12   8   5     2.723875204326    73.05033634   180.01204037
 C      5   4   2     2.584054763752    36.31868910   180.00102268
 C      5   4   2     2.583931475058    70.79572404     0.00000000
 C      1   2   6     2.584076990566    70.13306991     0.35586623
 C      1   2   6     2.584177417846   177.24111910     0.97900926
 C      3   1   2     2.569330691574    72.76301102   359.95357395
 C     17   1   2     2.632619165820   125.07310744     0.00000000
 C     18   1  17     2.632659354002   125.09478022   180.00966439
 C     14  12   8     2.569331897574   106.94820236     0.00000000
 C      9   1   2     2.583930075473    81.45605938   180.00111785
 C     10   9   1     2.569441657201    72.76177076   180.05889371
 C     12   8   5     2.632617176909   161.52060847   359.96153148
 C      9   1   2     2.584042369125   171.42924741     0.34052806
 H      3   1   2     2.038902517335   159.26701397   179.95498931
 H     19   3   1     2.038894698891   127.96204490   180.00155066
 H     20  17   1     2.046075189201   116.52889429   179.96077396
 H     11   8   5     2.046071989142   116.52549896   180.00584317
 H     22  14  12     2.038906908008   127.96985474   179.99900777
 H     14  12   8     2.038890279135   125.08876244   180.00062158
 H     25  12   8     2.046071723688   116.52871416   180.07456094
 H     24  10   9     2.038896425708   127.96698994   179.97965206
 H     21  18   1     2.046070756344   116.52436251   179.96628297
 H     10   9   1     2.038886641826   159.27697815     0.03817484
 Mg    13  12   8     3.874619877269   126.45537008   180.01043791

---------------------
BASIS SET INFORMATION
---------------------
There are 4 groups of distinct atoms

 Group   1 Type N   : 11s6p2d1f contracted to 5s3p2d1f pattern {62111/411/11/1}
 Group   2 Type H   : 5s1p contracted to 3s1p pattern {311/1}
 Group   3 Type C   : 11s6p2d1f contracted to 5s3p2d1f pattern {62111/411/11/1}
 Group   4 Type Mg  : 14s8p3d contracted to 5s4p3d pattern {73211/5111/111}

Atom   0N    basis set group =>   1
Atom   1H    basis set group =>   2
Atom   2C    basis set group =>   3
Atom   3C    basis set group =>   3
Atom   4N    basis set group =>   1
Atom   5C    basis set group =>   3
Atom   6H    basis set group =>   2
Atom   7C    basis set group =>   3
Atom   8N    basis set group =>   1
Atom   9C    basis set group =>   3
Atom  10C    basis set group =>   3
Atom  11C    basis set group =>   3
Atom  12N    basis set group =>   1
Atom  13C    basis set group =>   3
Atom  14C    basis set group =>   3
Atom  15C    basis set group =>   3
Atom  16C    basis set group =>   3
Atom  17C    basis set group =>   3
Atom  18C    basis set group =>   3
Atom  19C    basis set group =>   3
Atom  20C    basis set group =>   3
Atom  21C    basis set group =>   3
Atom  22C    basis set group =>   3
Atom  23C    basis set group =>   3
Atom  24C    basis set group =>   3
Atom  25C    basis set group =>   3
Atom  26H    basis set group =>   2
Atom  27H    basis set group =>   2
Atom  28H    basis set group =>   2
Atom  29H    basis set group =>   2
Atom  30H    basis set group =>   2
Atom  31H    basis set group =>   2
Atom  32H    basis set group =>   2
Atom  33H    basis set group =>   2
Atom  34H    basis set group =>   2
Atom  35H    basis set group =>   2
Atom  36Mg   basis set group =>   4
---------------------------------
AUXILIARY/J BASIS SET INFORMATION
---------------------------------
There are 4 groups of distinct atoms

 Group   1 Type N   : 12s5p4d2f1g contracted to 6s4p3d1f1g pattern {711111/2111/211/2/1}
 Group   2 Type H   : 5s2p1d contracted to 3s1p1d pattern {311/2/1}
 Group   3 Type C   : 12s5p4d2f1g contracted to 6s4p3d1f1g pattern {711111/2111/211/2/1}
 Group   4 Type Mg  : 14s5p5d2f1g contracted to 8s4p4d1f1g pattern {71111111/2111/2111/2/1}

Atom   0N    basis set group =>   1
Atom   1H    basis set group =>   2
Atom   2C    basis set group =>   3
Atom   3C    basis set group =>   3
Atom   4N    basis set group =>   1
Atom   5C    basis set group =>   3
Atom   6H    basis set group =>   2
Atom   7C    basis set group =>   3
Atom   8N    basis set group =>   1
Atom   9C    basis set group =>   3
Atom  10C    basis set group =>   3
Atom  11C    basis set group =>   3
Atom  12N    basis set group =>   1
Atom  13C    basis set group =>   3
Atom  14C    basis set group =>   3
Atom  15C    basis set group =>   3
Atom  16C    basis set group =>   3
Atom  17C    basis set group =>   3
Atom  18C    basis set group =>   3
Atom  19C    basis set group =>   3
Atom  20C    basis set group =>   3
Atom  21C    basis set group =>   3
Atom  22C    basis set group =>   3
Atom  23C    basis set group =>   3
Atom  24C    basis set group =>   3
Atom  25C    basis set group =>   3
Atom  26H    basis set group =>   2
Atom  27H    basis set group =>   2
Atom  28H    basis set group =>   2
Atom  29H    basis set group =>   2
Atom  30H    basis set group =>   2
Atom  31H    basis set group =>   2
Atom  32H    basis set group =>   2
Atom  33H    basis set group =>   2
Atom  34H    basis set group =>   2
Atom  35H    basis set group =>   2
Atom  36Mg   basis set group =>   4


           ************************************************************
           *        Program running with 4 parallel MPI-processes     *
           *              working on a common directory               *
           ************************************************************
------------------------------------------------------------------------------
                             ORCA STARTUP CALCULATIONS
                           -- RI-GTO INTEGRALS CHOSEN --
------------------------------------------------------------------------------
------------------------------------------------------------------------------
                   ___                                                        
                  /   \      - P O W E R E D   B Y -                         
                 /     \                                                     
                 |  |  |   _    _      __       _____    __    __             
                 |  |  |  | |  | |    /  \     |  _  \  |  |  /  |          
                  \  \/   | |  | |   /    \    | | | |  |  | /  /          
                 / \  \   | |__| |  /  /\  \   | |_| |  |  |/  /          
                |  |  |   |  __  | /  /__\  \  |    /   |      \           
                |  |  |   | |  | | |   __   |  |    \   |  |\   \          
                \     /   | |  | | |  |  |  |  | |\  \  |  | \   \       
                 \___/    |_|  |_| |__|  |__|  |_| \__\ |__|  \__/        
                                                                              
                      - O R C A' S   B I G   F R I E N D -                    
                                      &                                       
                       - I N T E G R A L  F E E D E R -                       
                                                                              
 v1 FN, 2020, v2 2021, v3 2022-2024                                           
------------------------------------------------------------------------------


----------------------
SHARK INTEGRAL PACKAGE
----------------------

Number of atoms                             ...     37
Number of basis functions                   ...    848
Number of shells                            ...    324
Maximum angular momentum                    ...      3
Integral batch strategy                     ... SHARK/LIBINT Hybrid
RI-J (if used) integral strategy            ... SPLIT-RIJ (Revised 2003 algorithm where possible)
Printlevel                                  ...      1
Contraction scheme used                     ... SEGMENTED contraction
Prescreening option                         ... SCHWARTZ
   Thresh                                   ... 2.500e-11
   Tcut                                     ... 2.500e-12
   Tpresel                                  ... 2.500e-12 
Coulomb Range Separation                    ... NOT USED
Exchange Range Separation                   ... NOT USED
Multipole approximations                    ... NOT USED
Finite Nucleus Model                        ... NOT USED
CABS basis                                  ... NOT available
Auxiliary Coulomb fitting basis             ... AVAILABLE
   # of basis functions in Aux-J            ...   1364
   # of shells in Aux-J                     ...    438
   Maximum angular momentum in Aux-J        ...      4
Auxiliary J/K fitting basis                 ... NOT available
Auxiliary Correlation fitting basis         ... NOT available
Auxiliary 'external' fitting basis          ... NOT available

Checking pre-screening integrals            ... done (  0.0 sec) Dimension = 324
   => SHARK Basis and OBASIS are compatible. Storing Pre-screening
Shell pair information
Shell pair cut-off parameter TPreSel        ...   2.5e-12
Total number of shell pairs                 ...     52650
Shell pairs after pre-screening             ...     37452
Total number of primitive shell pairs       ...    167352
Primitive shell pairs kept                  ...     77858
          la=0 lb=0:   8711 shell pairs
          la=1 lb=0:  10604 shell pairs
          la=1 lb=1:   3186 shell pairs
          la=2 lb=0:   5583 shell pairs
          la=2 lb=1:   3500 shell pairs
          la=2 lb=2:    986 shell pairs
          la=3 lb=0:   2388 shell pairs
          la=3 lb=1:   1536 shell pairs
          la=3 lb=2:    788 shell pairs
          la=3 lb=3:    170 shell pairs

Checking whether 4 symmetric matrices of dimension 848 fit in memory
:Max Core in MB      =   3000.00
 MB in use           =     49.24
 MB left             =   2950.76
 MB needed           =     10.99
 Data fit in memory  = YES
Calculating RI/J V-Matrix + Cholesky decomp.... done (  0.2 sec)
Calculating Nuclear repulsion               ... done (  0.0 sec) ENN=   2121.711186967779 Eh

Diagonalization of the overlap matrix:
Smallest eigenvalue                        ... 1.003e-05
Time for diagonalization                   ...    0.190 sec
Threshold for overlap eigenvalues          ... 1.000e-07
Number of eigenvalues below threshold      ... 0
Time for construction of square roots      ...    0.103 sec
Total time needed                          ...    0.300 sec

-------------------
DFT GRID GENERATION
-------------------

General Integration Accuracy     IntAcc      ... 4.959
Radial Grid Type                 RadialGrid  ... OptM3 with GC (2021)
Angular Grid (max. ang.)         AngularGrid ... 6 (Lebedev-590)
Angular grid pruning method      GridPruning ... 4 (adaptive)
Weight generation scheme         WeightScheme... mBecke (2022)
Basis function cutoff            BFCut       ... 1.0000e-11
Integration weight cutoff        WCut        ... 1.0000e-14
Partially contracted basis set               ... off
Rotationally invariant grid construction     ... off
Angular grids for H and He will be reduced by one unit

Total number of grid points                  ...   456655
Total number of batches                      ...     7152
Average number of points per batch           ...       63
Average number of grid points per atom       ...    12342
Grids setup in   8.4 sec
Initializing property integral containers    ... done (  0.0 sec)

SHARK setup successfully completed in   9.7 seconds

Maximum memory used throughout the entire STARTUP-calculation: 148.4 MB


           ************************************************************
           *        Program running with 4 parallel MPI-processes     *
           *              working on a common directory               *
           ************************************************************
-------------------------------------------------------------------------------
                                 ORCA GUESS
                   Start orbitals & Density for SCF / CASSCF
-------------------------------------------------------------------------------

------------
SCF SETTINGS
------------
Hamiltonian:
 Density Functional     Method          .... DFT(GTOs)
 Exchange Functional    Exchange        .... TPSS
 Correlation Functional Correlation     .... TPSS
 LDA part of GGA corr.  LDAOpt          .... PW91-LDA
 Gradients option       PostSCFGGA      .... off
   NL short-range parameter             ....  5.000000
 RI-approximation to the Coulomb term is turned on
   Number of AuxJ basis functions       .... 1364


General Settings:
 Integral files         IntName         .... tddft
 Hartree-Fock type      HFTyp           .... RHF
 Total Charge           Charge          ....    0
 Multiplicity           Mult            ....    1
 Number of Electrons    NEL             ....  172
 Basis Dimension        Dim             ....  848
 Nuclear Repulsion      ENuc            ....   2121.7111869678 Eh

Convergence Acceleration:
 AO-DIIS                CNVDIIS         .... on
   Start iteration      DIISMaxIt       ....    12
   Startup error        DIISStart       ....  0.200000
   # of expansion vecs  DIISMaxEq       ....     5
   Bias factor          DIISBfac        ....   1.050
   Max. coefficient     DIISMaxC        ....  10.000
 MO-DIIS                CNVKDIIS        .... off
 Trust-Rad. Augm. Hess. CNVTRAH         .... auto
   Auto Start mean grad. ratio tolernc. ....  1.125000
   Auto Start start iteration           ....    50
   Auto Start num. interpolation iter.  ....    10
   Max. Number of Micro iterations      ....    24
   Max. Number of Macro iterations      .... Maxiter - #DIIS iter
   Number of Davidson start vectors     ....     2
   Converg. threshold    (grad. norm)   ....   1.000e-05
   Grad. Scal. Fac. for Micro threshold ....   0.100
   Minimum threshold for Micro iter.    ....   1.000e-02
   NR start threshold (gradient norm)   ....   1.000e-04
   Initial trust radius                 ....   0.400
   Minimum AH scaling param. (alpha)    ....   1.000
   Maximum AH scaling param. (alpha)    .... 1000.000
   Quad. conv. algorithm                .... NR
   White noise on init. David. guess    .... on
   Maximum white noise                  ....   0.010
   Pseudo random numbers                .... off
   Inactive MOs                         .... canonical
   Orbital update algorithm             .... Taylor
   Preconditioner                       .... Diag
   Full preconditioner red. dimension   ....   250
 SOSCF                 CNVSOSCF           .... on
   Start iteration     SOSCFMaxIt         ....   150
   Startup grad/error  SOSCFStart         ....  0.003300
   Hessian update      SOSCFHessUp        .... L-BFGS
   Autom. constraints  SOSCFAutoConstrain .... off
 Level Shifting         CNVShift        .... on
   Level shift para.    LevelShift      ....    0.2500
   Turn off err/grad.   ShiftErr        ....    0.0010
 Zerner damping         CNVZerner       .... off
 Static damping         CNVDamp         .... on
   Fraction old density DampFac         ....    0.7000
   Max. Damping (<1)    DampMax         ....    0.9800
   Min. Damping (>=0)   DampMin         ....    0.0000
   Turn off err/grad.   DampErr         ....    0.1000

SCF Procedure:
 Maximum # iterations   MaxIter         ....   125
 SCF integral mode      SCFMode         .... Direct
   Integral package                     .... SHARK and LIBINT hybrid scheme
 Reset frequency        DirectResetFreq ....    20
 Integral Threshold     Thresh          ....  2.500e-11 Eh
 Primitive CutOff       TCut            ....  2.500e-12 Eh

Convergence Tolerance:
 Convergence Check Mode ConvCheckMode   .... Total+1el-Energy
 Convergence forced     ConvForced      .... 1
 Energy Change          TolE            ....  1.000e-08 Eh
 1-El. energy change                    ....  1.000e-05 Eh
 Orbital Gradient       TolG            ....  1.000e-05
 Orbital Rotation angle TolX            ....  1.000e-05
 DIIS Error             TolErr          ....  5.000e-07

------------------------------
INITIAL GUESS: MODEL POTENTIAL
------------------------------
Loading Hartree-Fock densities                     ... done
Calculating cut-offs                               ... done
Initializing the effective Hamiltonian             ... done
Setting up the integral package (SHARK)            ... done
Starting the Coulomb interaction                   ... done (   1.7 sec)
Making the grid                                    ... done (   0.6 sec)
Mapping shells                                     ... done
Starting the XC term evaluation                    ... done (   0.9 sec)
  promolecular density results
     # of electrons  =    171.995110955
     EX              =   -148.115499445
     EC              =     -5.855479608
     EX+EC           =   -153.970979052
Transforming the Hamiltonian                       ... done (   0.1 sec)
Diagonalizing the Hamiltonian                      ... done (   0.2 sec)
Back transforming the eigenvectors                 ... done (   0.1 sec)
Now organizing SCF variables                       ... done
                      ------------------
                      INITIAL GUESS DONE (   3.5 sec)
                      ------------------
             **** ENERGY FILE WAS UPDATED (tddft.en.tmp) ****
Finished Guess after   4.0 sec
Maximum memory used throughout the entire GUESS-calculation: 83.5 MB


           ************************************************************
           *        Program running with 4 parallel MPI-processes     *
           *              working on a common directory               *
           ************************************************************

-------------------------------------------------------------------------------------------
                                      ORCA LEAN-SCF
                              memory conserving SCF solver
-------------------------------------------------------------------------------------------

--------------------
CPCM SOLVATION MODEL
--------------------
CPCM parameters:
  Epsilon                                         ...       8.9990
  Refrac                                          ...       1.4242
  Rsolv                                           ...       1.3000
  Surface type                                    ... GAUSSIAN VDW
  Discretization scheme                           ... Constant charge density
    Threshold for H atoms                         ...       5.0000 (charges/Ang^2)
    Threshold for non-H atoms                     ...       5.0000 (charges/Ang^2)
  Epsilon function type                           ...         CPCM
Solvent:                                          ... DICHLOROMETHANE
Radii:
  Scheme                                          ... Element-dependent radii
  Radius for N  used is    3.5149 Bohr (=   1.8600 Ang.)
  Radius for H  used is    2.4944 Bohr (=   1.3200 Ang.)
  Radius for C  used is    3.8550 Bohr (=   2.0400 Ang.)
  Radius for Mg used is    3.9231 Bohr (=   2.0760 Ang.)
Calculating surface                               ...        done! (  0.0s)
Cavity surface points                             ...         3494
Cavity Volume                                     ...    2478.6237
Cavity Surface-area                               ...    1177.4362
Calculating surface distance matrix               ...        done! (  0.2s)
Performing Cholesky decomposition & store         ...        done! (  0.5s)
Overall time for CPCM initialization              ...                 0.8s

----------------------------------------D-I-I-S--------------------------------------------
Iteration    Energy (Eh)           Delta-E    RMSDP     MaxDP     DIISErr   Damp  Time(sec)
-------------------------------------------------------------------------------------------
               ***  Starting incremental Fock matrix formation  ***
    1    -1188.6857157893532531     0.00e+00  1.91e-03  4.29e-02  2.12e-01  0.700  20.6
Warning: op=0 Small HOMO/LUMO gap (   0.072) - skipping pre-diagonalization
         Will do a full diagonalization
    2    -1188.9100157384209524    -2.24e-01  1.61e-03  2.60e-02  8.91e-02  0.700  19.8
                               ***Turning on AO-DIIS***
    3    -1188.9976171318130582    -8.76e-02  9.26e-04  1.42e-02  2.74e-02  0.700  20.6
    4    -1189.0488954964507684    -5.13e-02  1.90e-03  4.54e-02  1.41e-02  0.000  19.6
    5    -1189.1612473256577687    -1.12e-01  3.04e-04  6.53e-03  5.02e-03  0.000  20.5
                              *** Initializing SOSCF ***
---------------------------------------S-O-S-C-F--------------------------------------
Iteration    Energy (Eh)           Delta-E    RMSDP     MaxDP     MaxGrad    Time(sec)
--------------------------------------------------------------------------------------
    6    -1189.1620912364937794    -8.44e-04  1.77e-04  4.44e-03  1.01e-03    18.7
               *** Restarting incremental Fock matrix formation ***
    7    -1189.1621415654435623    -5.03e-05  1.31e-04  3.75e-03  4.32e-04    25.1
    8    -1189.1621454191008525    -3.85e-06  5.10e-05  1.51e-03  5.11e-04    16.6
    9    -1189.1621534915198026    -8.07e-06  4.39e-05  1.17e-03  1.95e-04    16.2
   10    -1189.1621543564119747    -8.65e-07  9.88e-06  2.63e-04  1.05e-04    15.7
   11    -1189.1621547702866337    -4.14e-07  1.71e-05  4.60e-04  6.43e-05    15.7
   12    -1189.1621550005752397    -2.30e-07  9.53e-06  2.68e-04  2.07e-05    14.9
   13    -1189.1621549845990558     1.60e-08  9.54e-06  4.35e-04  9.41e-06    14.2
   14    -1189.1621550320719507    -4.75e-08  1.02e-05  3.18e-04  4.41e-06    13.9
   15    -1189.1621550426484646    -1.06e-08  7.72e-06  2.60e-04  3.20e-06    13.4
   16    -1189.1621550275249319     1.51e-08  1.00e-05  4.29e-04  1.64e-06    12.9
                  *** Gradient check signals convergence ***

               *****************************************************
               *                     SUCCESS                       *
               *           SCF CONVERGED AFTER  16 CYCLES          *
               *****************************************************

             **** ENERGY FILE WAS UPDATED (tddft.en.tmp) ****

----------------
TOTAL SCF ENERGY
----------------

Total Energy       :      -1189.16215505567743 Eh          -32358.74733 eV

Components:
Nuclear Repulsion  :       2121.71118696777876 Eh           57734.69657 eV
Electronic Energy  :      -3310.86016713565050 Eh          -90093.08539 eV
One Electron Energy:      -5839.86591904218312 Eh         -158910.83053 eV
Two Electron Energy:       2529.00575190653262 Eh           68817.74514 eV
CPCM Dielectric    :         -0.01317488780582 Eh              -0.35851 eV

Virial components:
Potential Energy   :      -2373.64853933458926 Eh          -64590.26046 eV
Kinetic Energy     :       1184.48638427891160 Eh           32231.51313 eV
Virial Ratio       :          2.00394750909662

DFT components:
N(Alpha)           :       86.000002190552 electrons
N(Beta)            :       86.000002190552 electrons
N(Total)           :      172.000004381103 electrons
E(X)               :     -152.069205477451 Eh       
E(C)               :       -5.876504561796 Eh       
E(XC)              :     -157.945710039247 Eh       

CPCM Solvation Model Properties:
Surface-charge          :         -0.03587501132387
Corrected charge        :         -0.00000000000000
Outlying charge corr.   :          0.00006149185528 Eh               0.00167 eV
Free-energy (cav+disp)  :  This term is not implemented in the current solvation scheme

---------------
SCF CONVERGENCE
---------------

  Last Energy change         ...   -1.5124e-08  Tolerance :   1.0000e-08
  Last MAX-Density change    ...    4.2873e-04  Tolerance :   1.0000e-07
  Last RMS-Density change    ...    1.0021e-05  Tolerance :   5.0000e-09
  Last DIIS Error            ...    1.0115e-03  Tolerance :   5.0000e-07
  Last Orbital Gradient      ...    1.6374e-06  Tolerance :   1.0000e-05
  Last Orbital Rotation      ...    4.0575e-06  Tolerance :   1.0000e-05


----------------
ORBITAL ENERGIES
----------------

  NO   OCC          E(Eh)            E(eV) 
   0   2.0000     -46.380410     -1262.0751 
   1   2.0000     -14.088778      -383.3751 
   2   2.0000     -14.088774      -383.3750 
   3   2.0000     -14.088767      -383.3748 
   4   2.0000     -14.088764      -383.3748 
   5   2.0000     -10.018368      -272.6137 
   6   2.0000     -10.018366      -272.6136 
   7   2.0000     -10.018360      -272.6134 
   8   2.0000     -10.018356      -272.6133 
   9   2.0000     -10.018352      -272.6132 
  10   2.0000     -10.018350      -272.6132 
  11   2.0000     -10.018344      -272.6130 
  12   2.0000     -10.018344      -272.6130 
  13   2.0000      -9.994672      -271.9688 
  14   2.0000      -9.994669      -271.9688 
  15   2.0000      -9.994667      -271.9687 
  16   2.0000      -9.994664      -271.9686 
  17   2.0000      -9.985762      -271.7264 
  18   2.0000      -9.985761      -271.7264 
  19   2.0000      -9.985758      -271.7263 
  20   2.0000      -9.985756      -271.7262 
  21   2.0000      -9.985231      -271.7119 
  22   2.0000      -9.985230      -271.7119 
  23   2.0000      -9.985228      -271.7119 
  24   2.0000      -9.985227      -271.7118 
  25   2.0000      -2.914091       -79.2964 
  26   2.0000      -1.679283       -45.6956 
  27   2.0000      -1.672367       -45.5074 
  28   2.0000      -1.672367       -45.5074 
  29   2.0000      -0.897970       -24.4350 
  30   2.0000      -0.889748       -24.2113 
  31   2.0000      -0.889727       -24.2107 
  32   2.0000      -0.880692       -23.9648 
  33   2.0000      -0.756634       -20.5891 
  34   2.0000      -0.731280       -19.8991 
  35   2.0000      -0.731278       -19.8991 
  36   2.0000      -0.712548       -19.3894 
  37   2.0000      -0.707456       -19.2508 
  38   2.0000      -0.707442       -19.2505 
  39   2.0000      -0.703848       -19.1527 
  40   2.0000      -0.684292       -18.6205 
  41   2.0000      -0.660375       -17.9697 
  42   2.0000      -0.602278       -16.3888 
  43   2.0000      -0.602271       -16.3886 
  44   2.0000      -0.546916       -14.8823 
  45   2.0000      -0.526265       -14.3204 
  46   2.0000      -0.523281       -14.2392 
  47   2.0000      -0.523274       -14.2390 
  48   2.0000      -0.520602       -14.1663 
  49   2.0000      -0.501305       -13.6412 
  50   2.0000      -0.491006       -13.3610 
  51   2.0000      -0.475430       -12.9371 
  52   2.0000      -0.475420       -12.9368 
  53   2.0000      -0.463197       -12.6042 
  54   2.0000      -0.450590       -12.2612 
  55   2.0000      -0.450589       -12.2611 
  56   2.0000      -0.403915       -10.9911 
  57   2.0000      -0.391638       -10.6570 
  58   2.0000      -0.391125       -10.6431 
  59   2.0000      -0.379793       -10.3347 
  60   2.0000      -0.379778       -10.3343 
  61   2.0000      -0.377958       -10.2848 
  62   2.0000      -0.377953       -10.2846 
  63   2.0000      -0.377137       -10.2624 
  64   2.0000      -0.367937       -10.0121 
  65   2.0000      -0.357564        -9.7298 
  66   2.0000      -0.348715        -9.4890 
  67   2.0000      -0.348703        -9.4887 
  68   2.0000      -0.340732        -9.2718 
  69   2.0000      -0.332623        -9.0511 
  70   2.0000      -0.332615        -9.0509 
  71   2.0000      -0.330445        -8.9919 
  72   2.0000      -0.324846        -8.8395 
  73   2.0000      -0.322795        -8.7837 
  74   2.0000      -0.297090        -8.0842 
  75   2.0000      -0.275182        -7.4881 
  76   2.0000      -0.275159        -7.4875 
  77   2.0000      -0.258909        -7.0453 
  78   2.0000      -0.258906        -7.0452 
  79   2.0000      -0.247909        -6.7460 
  80   2.0000      -0.235264        -6.4019 
  81   2.0000      -0.224720        -6.1149 
  82   2.0000      -0.224709        -6.1146 
  83   2.0000      -0.221154        -6.0179 
  84   2.0000      -0.186961        -5.0875 
  85   2.0000      -0.181361        -4.9351 
  86   0.0000      -0.104334        -2.8391 
  87   0.0000      -0.104325        -2.8388 
  88   0.0000      -0.052838        -1.4378 
  89   0.0000       0.003816         0.1038 
  90   0.0000       0.012502         0.3402 
  91   0.0000       0.023335         0.6350 
  92   0.0000       0.023346         0.6353 
  93   0.0000       0.026446         0.7196 
  94   0.0000       0.039263         1.0684 
  95   0.0000       0.053358         1.4520 
  96   0.0000       0.055292         1.5046 
*Only the first 10 virtual orbitals were printed.

                    ********************************
                    * MULLIKEN POPULATION ANALYSIS *
                    ********************************

-----------------------
MULLIKEN ATOMIC CHARGES
-----------------------
   0 N :   -0.371213
   1 H :    0.129648
   2 C :   -0.225336
   3 C :   -0.225444
   4 N :   -0.371244
   5 C :   -0.225639
   6 H :    0.129611
   7 C :    0.381120
   8 N :   -0.371255
   9 C :   -0.225668
  10 C :   -0.515297
  11 C :    0.382775
  12 N :   -0.371210
  13 C :   -0.225608
  14 C :    0.381699
  15 C :    0.382100
  16 C :    0.382624
  17 C :    0.381215
  18 C :   -0.225617
  19 C :   -0.516107
  20 C :   -0.515373
  21 C :   -0.225342
  22 C :    0.382132
  23 C :   -0.225445
  24 C :   -0.516342
  25 C :    0.381852
  26 H :    0.129594
  27 H :    0.129597
  28 H :    0.132144
  29 H :    0.132141
  30 H :    0.129588
  31 H :    0.129595
  32 H :    0.132122
  33 H :    0.129601
  34 H :    0.132134
  35 H :    0.129639
  36 Mg:    0.731206
Sum of atomic charges:    0.0000000

--------------------------------
MULLIKEN REDUCED ORBITAL CHARGES
--------------------------------
  0 N s       :     3.667841  s :     3.667841
      pz      :     1.343666  p :     3.641870
      px      :     1.262272
      py      :     1.035931
      dz2     :     0.004425  d :     0.057780
      dxz     :     0.005853
      dyz     :     0.013653
      dx2y2   :     0.016679
      dxy     :     0.017171
      f0      :     0.000640  f :     0.003722
      f+1     :     0.000300
      f-1     :     0.000421
      f+2     :     0.000110
      f-2     :     0.000610
      f+3     :     0.000685
      f-3     :     0.000956

  1 H s       :     0.850411  s :     0.850411
      pz      :     0.004766  p :     0.019941
      px      :     0.007213
      py      :     0.007962

  2 C s       :     3.316435  s :     3.316435
      pz      :     0.994624  p :     2.812267
      px      :     0.891098
      py      :     0.926545
      dz2     :     0.005461  d :     0.088580
      dxz     :     0.010223
      dyz     :     0.018392
      dx2y2   :     0.019268
      dxy     :     0.035237
      f0      :     0.001314  f :     0.008054
      f+1     :     0.000846
      f-1     :     0.000613
      f+2     :     0.001018
      f-2     :     0.000453
      f+3     :     0.002400
      f-3     :     0.001409

  3 C s       :     3.316448  s :     3.316448
      pz      :     0.994202  p :     2.812360
      px      :     0.926019
      py      :     0.892139
      dz2     :     0.005060  d :     0.088582
      dxz     :     0.019002
      dyz     :     0.010073
      dx2y2   :     0.019200
      dxy     :     0.035247
      f0      :     0.001363  f :     0.008054
      f+1     :     0.000524
      f-1     :     0.000853
      f+2     :     0.001068
      f-2     :     0.000445
      f+3     :     0.001383
      f-3     :     0.002418

  4 N s       :     3.667964  s :     3.667964
      pz      :     1.345643  p :     3.641765
      px      :     1.033043
      py      :     1.263080
      dz2     :     0.004261  d :     0.057792
      dxz     :     0.013877
      dyz     :     0.005753
      dx2y2   :     0.016651
      dxy     :     0.017249
      f0      :     0.000645  f :     0.003723
      f+1     :     0.000409
      f-1     :     0.000307
      f+2     :     0.000106
      f-2     :     0.000606
      f+3     :     0.000965
      f-3     :     0.000686

  5 C s       :     3.316697  s :     3.316697
      pz      :     0.994400  p :     2.812304
      px      :     0.922001
      py      :     0.895904
      dz2     :     0.005282  d :     0.088585
      dxz     :     0.016895
      dyz     :     0.011911
      dx2y2   :     0.017757
      dxy     :     0.036739
      f0      :     0.001347  f :     0.008053
      f+1     :     0.000592
      f-1     :     0.000811
      f+2     :     0.001332
      f-2     :     0.000166
      f+3     :     0.001546
      f-3     :     0.002259

  6 H s       :     0.850447  s :     0.850447
      pz      :     0.004803  p :     0.019942
      px      :     0.005917
      py      :     0.009222

  7 C s       :     3.059495  s :     3.059495
      pz      :     0.922276  p :     2.376434
      px      :     0.743862
      py      :     0.710295
      dz2     :     0.005749  d :     0.168198
      dxz     :     0.029343
      dyz     :     0.036233
      dx2y2   :     0.055434
      dxy     :     0.041440
      f0      :     0.001994  f :     0.014752
      f+1     :     0.000898
      f-1     :     0.001083
      f+2     :     0.000722
      f-2     :     0.002357
      f+3     :     0.003707
      f-3     :     0.003991

  8 N s       :     3.667971  s :     3.667971
      pz      :     1.345636  p :     3.641768
      px      :     1.033042
      py      :     1.263090
      dz2     :     0.004261  d :     0.057793
      dxz     :     0.013878
      dyz     :     0.005754
      dx2y2   :     0.016651
      dxy     :     0.017249
      f0      :     0.000645  f :     0.003723
      f+1     :     0.000409
      f-1     :     0.000307
      f+2     :     0.000106
      f-2     :     0.000606
      f+3     :     0.000965
      f-3     :     0.000686

  9 C s       :     3.316745  s :     3.316745
      pz      :     0.994405  p :     2.812287
      px      :     0.921988
      py      :     0.895894
      dz2     :     0.005282  d :     0.088583
      dxz     :     0.016895
      dyz     :     0.011911
      dx2y2   :     0.017757
      dxy     :     0.036738
      f0      :     0.001348  f :     0.008053
      f+1     :     0.000592
      f-1     :     0.000811
      f+2     :     0.001332
      f-2     :     0.000166
      f+3     :     0.001546
      f-3     :     0.002259

 10 C s       :     3.498296  s :     3.498296
      pz      :     1.003985  p :     2.924532
      px      :     0.963054
      py      :     0.957494
      dz2     :     0.003072  d :     0.084809
      dxz     :     0.013805
      dyz     :     0.017193
      dx2y2   :     0.010460
      dxy     :     0.040279
      f0      :     0.001250  f :     0.007659
      f+1     :     0.000690
      f-1     :     0.000719
      f+2     :     0.000845
      f-2     :     0.000542
      f+3     :     0.002038
      f-3     :     0.001574

 11 C s       :     3.059599  s :     3.059599
      pz      :     0.922008  p :     2.374598
      px      :     0.749320
      py      :     0.703269
      dz2     :     0.005846  d :     0.168272
      dxz     :     0.028512
      dyz     :     0.037031
      dx2y2   :     0.053347
      dxy     :     0.043537
      f0      :     0.001997  f :     0.014755
      f+1     :     0.000830
      f-1     :     0.001145
      f+2     :     0.001159
      f-2     :     0.001929
      f+3     :     0.002526
      f-3     :     0.005169

 12 N s       :     3.667838  s :     3.667838
      pz      :     1.343668  p :     3.641870
      px      :     1.262280
      py      :     1.035921
      dz2     :     0.004425  d :     0.057780
      dxz     :     0.005853
      dyz     :     0.013652
      dx2y2   :     0.016679
      dxy     :     0.017170
      f0      :     0.000640  f :     0.003722
      f+1     :     0.000300
      f-1     :     0.000421
      f+2     :     0.000110
      f-2     :     0.000610
      f+3     :     0.000685
      f-3     :     0.000956

 13 C s       :     3.316828  s :     3.316828
      pz      :     0.994543  p :     2.812134
      px      :     0.894921
      py      :     0.922671
      dz2     :     0.005248  d :     0.088592
      dxz     :     0.012377
      dyz     :     0.016496
      dx2y2   :     0.017848
      dxy     :     0.036624
      f0      :     0.001331  f :     0.008053
      f+1     :     0.000751
      f-1     :     0.000683
      f+2     :     0.001300
      f-2     :     0.000185
      f+3     :     0.002236
      f-3     :     0.001567

 14 C s       :     3.059271  s :     3.059271
      pz      :     0.922414  p :     2.376044
      px      :     0.708394
      py      :     0.745236
      dz2     :     0.005550  d :     0.168233
      dxz     :     0.037027
      dyz     :     0.028829
      dx2y2   :     0.055307
      dxy     :     0.041519
      f0      :     0.002024  f :     0.014754
      f+1     :     0.001035
      f-1     :     0.000903
      f+2     :     0.000748
      f-2     :     0.002327
      f+3     :     0.004015
      f-3     :     0.003702

 15 C s       :     3.059769  s :     3.059769
      pz      :     0.922554  p :     2.375111
      px      :     0.701188
      py      :     0.751370
      dz2     :     0.005526  d :     0.168264
      dxz     :     0.037950
      dyz     :     0.027960
      dx2y2   :     0.053204
      dxy     :     0.043624
      f0      :     0.002022  f :     0.014756
      f+1     :     0.001072
      f-1     :     0.000868
      f+2     :     0.001121
      f-2     :     0.001945
      f+3     :     0.005200
      f-3     :     0.002528

 16 C s       :     3.059704  s :     3.059704
      pz      :     0.922008  p :     2.374641
      px      :     0.749312
      py      :     0.703321
      dz2     :     0.005846  d :     0.168277
      dxz     :     0.028513
      dyz     :     0.037030
      dx2y2   :     0.053350
      dxy     :     0.043538
      f0      :     0.001997  f :     0.014755
      f+1     :     0.000830
      f-1     :     0.001145
      f+2     :     0.001159
      f-2     :     0.001929
      f+3     :     0.002526
      f-3     :     0.005169

 17 C s       :     3.059457  s :     3.059457
      pz      :     0.922276  p :     2.376378
      px      :     0.743851
      py      :     0.710251
      dz2     :     0.005749  d :     0.168197
      dxz     :     0.029343
      dyz     :     0.036233
      dx2y2   :     0.055433
      dxy     :     0.041440
      f0      :     0.001994  f :     0.014752
      f+1     :     0.000898
      f-1     :     0.001083
      f+2     :     0.000722
      f-2     :     0.002357
      f+3     :     0.003707
      f-3     :     0.003991

 18 C s       :     3.316859  s :     3.316859
      pz      :     0.994547  p :     2.812112
      px      :     0.894900
      py      :     0.922664
      dz2     :     0.005248  d :     0.088593
      dxz     :     0.012377
      dyz     :     0.016495
      dx2y2   :     0.017848
      dxy     :     0.036625
      f0      :     0.001331  f :     0.008053
      f+1     :     0.000751
      f-1     :     0.000683
      f+2     :     0.001300
      f-2     :     0.000185
      f+3     :     0.002236
      f-3     :     0.001567

 19 C s       :     3.498733  s :     3.498733
      pz      :     1.004105  p :     2.924898
      px      :     0.957272
      py      :     0.963520
      dz2     :     0.002726  d :     0.084817
      dxz     :     0.017980
      dyz     :     0.013365
      dx2y2   :     0.010503
      dxy     :     0.040243
      f0      :     0.001282  f :     0.007659
      f+1     :     0.000646
      f-1     :     0.000712
      f+2     :     0.000856
      f-2     :     0.000542
      f+3     :     0.001565
      f-3     :     0.002056

 20 C s       :     3.498398  s :     3.498398
      pz      :     1.003982  p :     2.924508
      px      :     0.963019
      py      :     0.957507
      dz2     :     0.003072  d :     0.084808
      dxz     :     0.013805
      dyz     :     0.017193
      dx2y2   :     0.010461
      dxy     :     0.040277
      f0      :     0.001250  f :     0.007659
      f+1     :     0.000690
      f-1     :     0.000719
      f+2     :     0.000845
      f-2     :     0.000542
      f+3     :     0.002038
      f-3     :     0.001574

 21 C s       :     3.316459  s :     3.316459
      pz      :     0.994623  p :     2.812249
      px      :     0.891071
      py      :     0.926555
      dz2     :     0.005461  d :     0.088579
      dxz     :     0.010222
      dyz     :     0.018392
      dx2y2   :     0.019268
      dxy     :     0.035237
      f0      :     0.001314  f :     0.008054
      f+1     :     0.000846
      f-1     :     0.000613
      f+2     :     0.001018
      f-2     :     0.000453
      f+3     :     0.002400
      f-3     :     0.001409

 22 C s       :     3.059775  s :     3.059775
      pz      :     0.922560  p :     2.375074
      px      :     0.701160
      py      :     0.751354
      dz2     :     0.005524  d :     0.168263
      dxz     :     0.037949
      dyz     :     0.027961
      dx2y2   :     0.053204
      dxy     :     0.043625
      f0      :     0.002022  f :     0.014756
      f+1     :     0.001072
      f-1     :     0.000868
      f+2     :     0.001121
      f-2     :     0.001945
      f+3     :     0.005200
      f-3     :     0.002528

 23 C s       :     3.316485  s :     3.316485
      pz      :     0.994200  p :     2.812326
      px      :     0.926008
      py      :     0.892118
      dz2     :     0.005060  d :     0.088580
      dxz     :     0.019001
      dyz     :     0.010073
      dx2y2   :     0.019200
      dxy     :     0.035247
      f0      :     0.001363  f :     0.008054
      f+1     :     0.000524
      f-1     :     0.000853
      f+2     :     0.001068
      f-2     :     0.000445
      f+3     :     0.001383
      f-3     :     0.002418

 24 C s       :     3.499032  s :     3.499032
      pz      :     1.004104  p :     2.924835
      px      :     0.957219
      py      :     0.963512
      dz2     :     0.002726  d :     0.084815
      dxz     :     0.017980
      dyz     :     0.013365
      dx2y2   :     0.010503
      dxy     :     0.040241
      f0      :     0.001282  f :     0.007659
      f+1     :     0.000646
      f-1     :     0.000712
      f+2     :     0.000856
      f-2     :     0.000542
      f+3     :     0.001565
      f-3     :     0.002056

 25 C s       :     3.059242  s :     3.059242
      pz      :     0.922422  p :     2.375922
      px      :     0.708311
      py      :     0.745189
      dz2     :     0.005546  d :     0.168230
      dxz     :     0.037027
      dyz     :     0.028831
      dx2y2   :     0.055306
      dxy     :     0.041520
      f0      :     0.002024  f :     0.014754
      f+1     :     0.001034
      f-1     :     0.000903
      f+2     :     0.000747
      f-2     :     0.002327
      f+3     :     0.004015
      f-3     :     0.003702

 26 H s       :     0.850464  s :     0.850464
      pz      :     0.004746  p :     0.019941
      px      :     0.009276
      py      :     0.005918

 27 H s       :     0.850462  s :     0.850462
      pz      :     0.004783  p :     0.019941
      px      :     0.007980
      py      :     0.007178

 28 H s       :     0.847522  s :     0.847522
      pz      :     0.005167  p :     0.020335
      px      :     0.006908
      py      :     0.008259

 29 H s       :     0.847525  s :     0.847525
      pz      :     0.005128  p :     0.020335
      px      :     0.008303
      py      :     0.006904

 30 H s       :     0.850471  s :     0.850471
      pz      :     0.004746  p :     0.019941
      px      :     0.009276
      py      :     0.005918

 31 H s       :     0.850464  s :     0.850464
      pz      :     0.004783  p :     0.019941
      px      :     0.007980
      py      :     0.007178

 32 H s       :     0.847544  s :     0.847544
      pz      :     0.005167  p :     0.020335
      px      :     0.006908
      py      :     0.008259

 33 H s       :     0.850457  s :     0.850457
      pz      :     0.004802  p :     0.019942
      px      :     0.005917
      py      :     0.009222

 34 H s       :     0.847531  s :     0.847531
      pz      :     0.005128  p :     0.020335
      px      :     0.008303
      py      :     0.006904

 35 H s       :     0.850420  s :     0.850420
      pz      :     0.004766  p :     0.019941
      px      :     0.007213
      py      :     0.007962

 36 Mgs       :     4.536912  s :     4.536912
      pz      :     2.081884  p :     6.450515
      px      :     2.184780
      py      :     2.183851
      dz2     :     0.031892  d :     0.281367
      dxz     :     0.027711
      dyz     :     0.028897
      dx2y2   :     0.165049
      dxy     :     0.027818



                     *******************************
                     * LOEWDIN POPULATION ANALYSIS *
                     *******************************

----------------------
LOEWDIN ATOMIC CHARGES
----------------------
   0 N :    0.180326
   1 H :    0.144185
   2 C :   -0.112293
   3 C :   -0.112286
   4 N :    0.180390
   5 C :   -0.112295
   6 H :    0.144185
   7 C :   -0.204564
   8 N :    0.180392
   9 C :   -0.112295
  10 C :   -0.079474
  11 C :   -0.204617
  12 N :    0.180326
  13 C :   -0.112285
  14 C :   -0.204600
  15 C :   -0.204649
  16 C :   -0.204618
  17 C :   -0.204564
  18 C :   -0.112288
  19 C :   -0.079479
  20 C :   -0.079474
  21 C :   -0.112295
  22 C :   -0.204650
  23 C :   -0.112284
  24 C :   -0.079480
  25 C :   -0.204604
  26 H :    0.144195
  27 H :    0.144193
  28 H :    0.164697
  29 H :    0.164694
  30 H :    0.144195
  31 H :    0.144193
  32 H :    0.164697
  33 H :    0.144185
  34 H :    0.164694
  35 H :    0.144185
  36 Mg:    0.319363

-------------------------------
LOEWDIN REDUCED ORBITAL CHARGES
-------------------------------
  0 N s       :     2.983159  s :     2.983159
      pz      :     1.186642  p :     3.615252
      px      :     1.322648
      py      :     1.105962
      dz2     :     0.016901  d :     0.202645
      dxz     :     0.012729
      dyz     :     0.042617
      dx2y2   :     0.061223
      dxy     :     0.069176
      f0      :     0.001201  f :     0.018617
      f+1     :     0.000889
      f-1     :     0.001729
      f+2     :     0.000368
      f-2     :     0.003557
      f+3     :     0.004212
      f-3     :     0.006662

  1 H s       :     0.794471  s :     0.794471
      pz      :     0.013988  p :     0.061344
      px      :     0.022254
      py      :     0.025102

  2 C s       :     2.767637  s :     2.767637
      pz      :     0.901986  p :     2.922599
      px      :     0.979266
      py      :     1.041347
      dz2     :     0.028218  d :     0.374937
      dxz     :     0.031836
      dyz     :     0.058029
      dx2y2   :     0.104633
      dxy     :     0.152221
      f0      :     0.003015  f :     0.047120
      f+1     :     0.003759
      f-1     :     0.003963
      f+2     :     0.007540
      f-2     :     0.002496
      f+3     :     0.017541
      f-3     :     0.008805

  3 C s       :     2.767650  s :     2.767650
      pz      :     0.901409  p :     2.922598
      px      :     1.042656
      py      :     0.978532
      dz2     :     0.027000  d :     0.374921
      dxz     :     0.059545
      dyz     :     0.031593
      dx2y2   :     0.104542
      dxy     :     0.152242
      f0      :     0.003088  f :     0.047116
      f+1     :     0.003902
      f-1     :     0.003699
      f+2     :     0.007685
      f-2     :     0.002375
      f+3     :     0.008760
      f-3     :     0.017607

  4 N s       :     2.983103  s :     2.983103
      pz      :     1.188510  p :     3.615203
      px      :     1.105275
      py      :     1.321417
      dz2     :     0.016420  d :     0.202683
      dxz     :     0.043094
      dyz     :     0.012436
      dx2y2   :     0.061272
      dxy     :     0.069460
      f0      :     0.001178  f :     0.018622
      f+1     :     0.001773
      f-1     :     0.000845
      f+2     :     0.000344
      f-2     :     0.003607
      f+3     :     0.006676
      f-3     :     0.004199

  5 C s       :     2.767660  s :     2.767660
      pz      :     0.901526  p :     2.922628
      px      :     1.039934
      py      :     0.981169
      dz2     :     0.027770  d :     0.374894
      dxz     :     0.051053
      dyz     :     0.039226
      dx2y2   :     0.104023
      dxy     :     0.152821
      f0      :     0.003054  f :     0.047112
      f+1     :     0.003908
      f-1     :     0.003758
      f+2     :     0.009220
      f-2     :     0.000806
      f+3     :     0.010236
      f-3     :     0.016131

  6 H s       :     0.794474  s :     0.794474
      pz      :     0.014104  p :     0.061340
      px      :     0.018134
      py      :     0.029102

  7 C s       :     2.700704  s :     2.700704
      pz      :     0.846816  p :     2.784299
      px      :     0.962699
      py      :     0.974784
      dz2     :     0.045240  d :     0.639928
      dxz     :     0.092696
      dyz     :     0.104368
      dx2y2   :     0.202326
      dxy     :     0.195299
      f0      :     0.004790  f :     0.079633
      f+1     :     0.005044
      f-1     :     0.005951
      f+2     :     0.005149
      f-2     :     0.014267
      f+3     :     0.021924
      f-3     :     0.022509

  8 N s       :     2.983100  s :     2.983100
      pz      :     1.188504  p :     3.615201
      px      :     1.105276
      py      :     1.321421
      dz2     :     0.016420  d :     0.202685
      dxz     :     0.043094
      dyz     :     0.012436
      dx2y2   :     0.061273
      dxy     :     0.069462
      f0      :     0.001178  f :     0.018622
      f+1     :     0.001773
      f-1     :     0.000845
      f+2     :     0.000344
      f-2     :     0.003607
      f+3     :     0.006676
      f-3     :     0.004199

  9 C s       :     2.767661  s :     2.767661
      pz      :     0.901524  p :     2.922628
      px      :     1.039933
      py      :     0.981172
      dz2     :     0.027768  d :     0.374894
      dxz     :     0.051051
      dyz     :     0.039226
      dx2y2   :     0.104025
      dxy     :     0.152824
      f0      :     0.003053  f :     0.047112
      f+1     :     0.003908
      f-1     :     0.003758
      f+2     :     0.009220
      f-2     :     0.000806
      f+3     :     0.010236
      f-3     :     0.016131

 10 C s       :     2.754872  s :     2.754872
      pz      :     0.893630  p :     2.912179
      px      :     1.006601
      py      :     1.011949
      dz2     :     0.025668  d :     0.372273
      dxz     :     0.042434
      dyz     :     0.053460
      dx2y2   :     0.097331
      dxy     :     0.153381
      f0      :     0.003184  f :     0.040149
      f+1     :     0.003672
      f-1     :     0.003984
      f+2     :     0.006060
      f-2     :     0.002334
      f+3     :     0.011375
      f-3     :     0.009541

 11 C s       :     2.700712  s :     2.700712
      pz      :     0.846440  p :     2.784291
      px      :     0.975919
      py      :     0.961932
      dz2     :     0.045538  d :     0.639976
      dxz     :     0.087496
      dyz     :     0.109441
      dx2y2   :     0.200159
      dxy     :     0.197342
      f0      :     0.004794  f :     0.079639
      f+1     :     0.004688
      f-1     :     0.006304
      f+2     :     0.007499
      f-2     :     0.011963
      f+3     :     0.014863
      f-3     :     0.029527

 12 N s       :     2.983159  s :     2.983159
      pz      :     1.186643  p :     3.615252
      px      :     1.322647
      py      :     1.105962
      dz2     :     0.016901  d :     0.202645
      dxz     :     0.012728
      dyz     :     0.042616
      dx2y2   :     0.061223
      dxy     :     0.069176
      f0      :     0.001201  f :     0.018617
      f+1     :     0.000889
      f-1     :     0.001729
      f+2     :     0.000368
      f-2     :     0.003557
      f+3     :     0.004212
      f-3     :     0.006662

 13 C s       :     2.767651  s :     2.767651
      pz      :     0.901934  p :     2.922608
      px      :     0.981975
      py      :     1.038699
      dz2     :     0.027453  d :     0.374911
      dxz     :     0.040326
      dyz     :     0.050352
      dx2y2   :     0.104235
      dxy     :     0.152545
      f0      :     0.003050  f :     0.047115
      f+1     :     0.003643
      f-1     :     0.004013
      f+2     :     0.009165
      f-2     :     0.000901
      f+3     :     0.016063
      f-3     :     0.010280

 14 C s       :     2.700691  s :     2.700691
      pz      :     0.846471  p :     2.784312
      px      :     0.976122
      py      :     0.961719
      dz2     :     0.045369  d :     0.639956
      dxz     :     0.105719
      dyz     :     0.091133
      dx2y2   :     0.202345
      dxy     :     0.195390
      f0      :     0.004821  f :     0.079641
      f+1     :     0.006169
      f-1     :     0.004798
      f+2     :     0.005224
      f-2     :     0.014144
      f+3     :     0.022612
      f-3     :     0.021874

 15 C s       :     2.700696  s :     2.700696
      pz      :     0.846816  p :     2.784294
      px      :     0.962911
      py      :     0.974568
      dz2     :     0.045076  d :     0.640010
      dxz     :     0.111008
      dyz     :     0.085992
      dx2y2   :     0.200383
      dxy     :     0.197551
      f0      :     0.004821  f :     0.079649
      f+1     :     0.006364
      f-1     :     0.004603
      f+2     :     0.007205
      f-2     :     0.012122
      f+3     :     0.029674
      f-3     :     0.014860

 16 C s       :     2.700712  s :     2.700712
      pz      :     0.846440  p :     2.784291
      px      :     0.975920
      py      :     0.961931
      dz2     :     0.045537  d :     0.639977
      dxz     :     0.087498
      dyz     :     0.109440
      dx2y2   :     0.200159
      dxy     :     0.197343
      f0      :     0.004794  f :     0.079639
      f+1     :     0.004688
      f-1     :     0.006304
      f+2     :     0.007499
      f-2     :     0.011964
      f+3     :     0.014864
      f-3     :     0.029527

 17 C s       :     2.700704  s :     2.700704
      pz      :     0.846817  p :     2.784299
      px      :     0.962699
      py      :     0.974784
      dz2     :     0.045241  d :     0.639928
      dxz     :     0.092695
      dyz     :     0.104368
      dx2y2   :     0.202326
      dxy     :     0.195299
      f0      :     0.004790  f :     0.079633
      f+1     :     0.005044
      f-1     :     0.005951
      f+2     :     0.005149
      f-2     :     0.014266
      f+3     :     0.021924
      f-3     :     0.022509

 18 C s       :     2.767650  s :     2.767650
      pz      :     0.901936  p :     2.922609
      px      :     0.981976
      py      :     1.038698
      dz2     :     0.027453  d :     0.374913
      dxz     :     0.040327
      dyz     :     0.050352
      dx2y2   :     0.104235
      dxy     :     0.152546
      f0      :     0.003050  f :     0.047116
      f+1     :     0.003643
      f-1     :     0.004013
      f+2     :     0.009165
      f-2     :     0.000902
      f+3     :     0.016063
      f-3     :     0.010280

 19 C s       :     2.754872  s :     2.754872
      pz      :     0.893453  p :     2.912182
      px      :     1.013129
      py      :     1.005600
      dz2     :     0.024870  d :     0.372276
      dxz     :     0.054852
      dyz     :     0.041610
      dx2y2   :     0.097522
      dxy     :     0.153422
      f0      :     0.003230  f :     0.040149
      f+1     :     0.003905
      f-1     :     0.003677
      f+2     :     0.006077
      f-2     :     0.002283
      f+3     :     0.009512
      f-3     :     0.011466

 20 C s       :     2.754872  s :     2.754872
      pz      :     0.893629  p :     2.912179
      px      :     1.006600
      py      :     1.011949
      dz2     :     0.025668  d :     0.372274
      dxz     :     0.042434
      dyz     :     0.053460
      dx2y2   :     0.097331
      dxy     :     0.153381
      f0      :     0.003184  f :     0.040149
      f+1     :     0.003672
      f-1     :     0.003984
      f+2     :     0.006060
      f-2     :     0.002334
      f+3     :     0.011375
      f-3     :     0.009541

 21 C s       :     2.767637  s :     2.767637
      pz      :     0.901985  p :     2.922599
      px      :     0.979266
      py      :     1.041348
      dz2     :     0.028218  d :     0.374938
      dxz     :     0.031836
      dyz     :     0.058028
      dx2y2   :     0.104634
      dxy     :     0.152222
      f0      :     0.003015  f :     0.047120
      f+1     :     0.003759
      f-1     :     0.003963
      f+2     :     0.007540
      f-2     :     0.002496
      f+3     :     0.017541
      f-3     :     0.008805

 22 C s       :     2.700696  s :     2.700696
      pz      :     0.846814  p :     2.784295
      px      :     0.962910
      py      :     0.974571
      dz2     :     0.045073  d :     0.640009
      dxz     :     0.111005
      dyz     :     0.085994
      dx2y2   :     0.200384
[...]
  0-1A  -> 26-1A    4.826755   38930.4   256.9   0.126433046   1.06917   1.02311   0.14637  -0.03153
  0-1A  -> 27-1A    4.826998   38932.4   256.9   0.126432288   1.06911   0.14867  -1.01854   0.09794
  0-1A  -> 28-1A    5.001333   40338.5   247.9   0.000378337   0.00309   0.00101   0.00533   0.05530
  0-1A  -> 29-1A    5.174933   41738.7   239.6   0.000000004   0.00000   0.00014  -0.00008  -0.00009
  0-1A  -> 30-1A    5.201829   41955.6   238.3   0.000000000   0.00000  -0.00001   0.00000   0.00001

----------------------------------------------------------------------------------------------------
                     ABSORPTION SPECTRUM VIA TRANSITION VELOCITY DIPOLE MOMENTS    
----------------------------------------------------------------------------------------------------
     Transition      Energy     Energy  Wavelength fosc(P2)      P2        PX        PY        PZ   
                      (eV)      (cm-1)    (nm)                 (au**2)    (au)      (au)      (au)  
----------------------------------------------------------------------------------------------------
  0-1A  ->  1-1A    2.304466   18586.8   538.0   0.000385559   0.00005  -0.00676  -0.00180   0.00028
  0-1A  ->  2-1A    2.304507   18587.1   538.0   0.000378852   0.00005   0.00183  -0.00666   0.00061
  0-1A  ->  3-1A    3.167922   25551.0   391.4   1.089103987   0.19019  -0.06595   0.42912  -0.04119
  0-1A  ->  4-1A    3.167963   25551.3   391.4   1.088525623   0.19009   0.43091   0.06497  -0.01357
  0-1A  ->  5-1A    3.325871   26825.0   372.8   0.041153421   0.00754  -0.08659  -0.00648   0.00209
  0-1A  ->  6-1A    3.326027   26826.2   372.8   0.040652850   0.00745   0.00666  -0.08568   0.00830
  0-1A  ->  7-1A    3.372211   27198.7   367.7   0.000000001   0.00000   0.00001  -0.00000   0.00000
  0-1A  ->  8-1A    3.398339   27409.5   364.8   0.000000000   0.00000   0.00000  -0.00000   0.00000
  0-1A  ->  9-1A    3.428144   27649.8   361.7   0.000000000   0.00000  -0.00000   0.00000  -0.00000
  0-1A  -> 10-1A    3.480941   28075.7   356.2   0.000000000   0.00000   0.00000   0.00001   0.00000
  0-1A  -> 11-1A    3.651249   29449.3   339.6   0.000000000   0.00000   0.00000   0.00000   0.00000
  0-1A  -> 12-1A    3.723493   30032.0   333.0   0.247266739   0.05075   0.22379   0.02516  -0.00621
  0-1A  -> 13-1A    3.723707   30033.7   333.0   0.247266309   0.05076   0.02564  -0.22279   0.02154
  0-1A  -> 14-1A    3.829361   30885.9   323.8   0.000000000   0.00000  -0.00000   0.00001  -0.00000
  0-1A  -> 15-1A    3.932847   31720.6   315.3   0.000000000   0.00000  -0.00000   0.00001  -0.00000
  0-1A  -> 16-1A    3.933093   31722.5   315.2   0.000000001   0.00000  -0.00001  -0.00001   0.00000
  0-1A  -> 17-1A    4.265946   34407.2   290.6   0.000000000   0.00000   0.00000   0.00000  -0.00000
  0-1A  -> 18-1A    4.434343   35765.4   279.6   0.000000000   0.00000   0.00000  -0.00000   0.00000
  0-1A  -> 19-1A    4.659364   37580.3   266.1   0.000000144   0.00000  -0.00019  -0.00002   0.00002
  0-1A  -> 20-1A    4.664887   37624.9   265.8   0.000000072   0.00000   0.00013   0.00002  -0.00001
  0-1A  -> 21-1A    4.672556   37686.7   265.3   0.000000274   0.00000   0.00003   0.00013   0.00023
  0-1A  -> 22-1A    4.686529   37799.4   264.6   0.001238448   0.00032   0.00030   0.00175   0.01780
  0-1A  -> 23-1A    4.710577   37993.4   263.2   0.000000001   0.00000  -0.00000  -0.00000  -0.00001
  0-1A  -> 24-1A    4.735881   38197.5   261.8   0.000000000   0.00000   0.00000  -0.00000  -0.00000
  0-1A  -> 25-1A    4.741994   38246.8   261.5   0.000000000   0.00000   0.00001  -0.00000   0.00000
  0-1A  -> 26-1A    4.826755   38930.4   256.9   0.122102054   0.03249  -0.17834  -0.02552   0.00549
  0-1A  -> 27-1A    4.826998   38932.4   256.9   0.122102292   0.03249  -0.02592   0.17756  -0.01707
  0-1A  -> 28-1A    5.001333   40338.5   247.9   0.000403320   0.00011  -0.00019  -0.00101  -0.01049
  0-1A  -> 29-1A    5.174933   41738.7   239.6   0.000000005   0.00000  -0.00003   0.00002   0.00002
  0-1A  -> 30-1A    5.201829   41955.6   238.3   0.000000000   0.00000   0.00000  -0.00000  -0.00000

------------------------------------------------------------------------------------------
                     CD SPECTRUM VIA TRANSITION ELECTRIC DIPOLE MOMENTS    
------------------------------------------------------------------------------------------
     Transition      Energy     Energy  Wavelength    R        MX        MY        MZ   
                      (eV)      (cm-1)    (nm)   (1e40*cgs)   (au)      (au)      (au)  
------------------------------------------------------------------------------------------
  0-1A  ->  1-1A    2.304466   18586.8   538.0   -0.00004  -0.00000   0.00000  -0.00001
  0-1A  ->  2-1A    2.304507   18587.1   538.0    0.00004   0.00001  -0.00000  -0.00001
  0-1A  ->  3-1A    3.167922   25551.0   391.4    0.00235  -0.00001  -0.00000  -0.00000
  0-1A  ->  4-1A    3.167963   25551.3   391.4   -0.00401   0.00000  -0.00001   0.00001
  0-1A  ->  5-1A    3.325871   26825.0   372.8    0.00163  -0.00000  -0.00002  -0.00005
  0-1A  ->  6-1A    3.326027   26826.2   372.8   -0.00151   0.00001   0.00001   0.00002
  0-1A  ->  7-1A    3.372211   27198.7   367.7   -0.00037  -0.01408  -0.08380  -0.84927
  0-1A  ->  8-1A    3.398339   27409.5   364.8    0.00004   0.00014   0.00050   0.00811
  0-1A  ->  9-1A    3.428144   27649.8   361.7   -0.00000   0.00004   0.00002   0.00015
  0-1A  -> 10-1A    3.480941   28075.7   356.2    0.00000  -0.00004   0.00006   0.00046
  0-1A  -> 11-1A    3.651249   29449.3   339.6   -0.00000   0.00002  -0.00009   0.00001
  0-1A  -> 12-1A    3.723493   30032.0   333.0    0.00436   0.00000   0.00004   0.00000
  0-1A  -> 13-1A    3.723707   30033.7   333.0   -0.00385  -0.00003   0.00000  -0.00000
  0-1A  -> 14-1A    3.829361   30885.9   323.8   -0.00000   0.00024   0.00006   0.00003
  0-1A  -> 15-1A    3.932847   31720.6   315.3   -0.00602   0.01314  -0.18694   0.01804
  0-1A  -> 16-1A    3.933093   31722.5   315.2    0.00625  -0.18784  -0.01277   0.00438
  0-1A  -> 17-1A    4.265946   34407.2   290.6    0.00001   0.00132   0.00824   0.08196
  0-1A  -> 18-1A    4.434343   35765.4   279.6   -0.00000   0.00001   0.00003  -0.00017
  0-1A  -> 19-1A    4.659364   37580.3   266.1   -0.00000  -0.00000  -0.00001  -0.00009
  0-1A  -> 20-1A    4.664887   37624.9   265.8   -0.00000   0.00000   0.00000   0.00002
  0-1A  -> 21-1A    4.672556   37686.7   265.3    0.00003   0.00000   0.00000   0.00004
  0-1A  -> 22-1A    4.686529   37799.4   264.6    0.00017  -0.00000  -0.00000   0.00000
  0-1A  -> 23-1A    4.710577   37993.4   263.2   -0.00002   0.00019   0.00017   0.00049
  0-1A  -> 24-1A    4.735881   38197.5   261.8   -0.00097   0.01720   0.10253   1.04024
  0-1A  -> 25-1A    4.741994   38246.8   261.5    0.00004   0.00019   0.00079   0.00697
  0-1A  -> 26-1A    4.826755   38930.4   256.9    0.00586  -0.00001  -0.00002   0.00002
  0-1A  -> 27-1A    4.826998   38932.4   256.9   -0.00547   0.00001  -0.00001   0.00002
  0-1A  -> 28-1A    5.001333   40338.5   247.9    0.00007   0.00000  -0.00001  -0.00000
  0-1A  -> 29-1A    5.174933   41738.7   239.6   -0.00000   0.00000  -0.00000  -0.00001
  0-1A  -> 30-1A    5.201829   41955.6   238.3    0.00000   0.00003   0.00026  -0.00056

------------------------------------------------------------------------------------------
                     CD SPECTRUM VIA TRANSITION VELOCITY DIPOLE MOMENTS    
------------------------------------------------------------------------------------------
     Transition      Energy     Energy  Wavelength    R        MX        MY        MZ   
                      (eV)      (cm-1)    (nm)   (1e40*cgs)   (au)      (au)      (au)  
------------------------------------------------------------------------------------------
  0-1A  ->  1-1A    2.304466   18586.8   538.0   -0.00004  -0.00000   0.00000  -0.00001
  0-1A  ->  2-1A    2.304507   18587.1   538.0    0.00005   0.00001  -0.00000  -0.00001
  0-1A  ->  3-1A    3.167922   25551.0   391.4    0.00229  -0.00001  -0.00000  -0.00000
  0-1A  ->  4-1A    3.167963   25551.3   391.4   -0.00391   0.00000  -0.00001   0.00001
  0-1A  ->  5-1A    3.325871   26825.0   372.8    0.00161  -0.00000  -0.00002  -0.00005
  0-1A  ->  6-1A    3.326027   26826.2   372.8   -0.00149   0.00001   0.00001   0.00002
  0-1A  ->  7-1A    3.372211   27198.7   367.7   -0.00039  -0.01408  -0.08380  -0.84927
  0-1A  ->  8-1A    3.398339   27409.5   364.8    0.00004   0.00014   0.00050   0.00811
  0-1A  ->  9-1A    3.428144   27649.8   361.7   -0.00000   0.00004   0.00002   0.00015
  0-1A  -> 10-1A    3.480941   28075.7   356.2    0.00000  -0.00004   0.00006   0.00046
  0-1A  -> 11-1A    3.651249   29449.3   339.6   -0.00000   0.00002  -0.00009   0.00001
  0-1A  -> 12-1A    3.723493   30032.0   333.0    0.00425   0.00000   0.00004   0.00000
  0-1A  -> 13-1A    3.723707   30033.7   333.0   -0.00375  -0.00003   0.00000  -0.00000
  0-1A  -> 14-1A    3.829361   30885.9   323.8   -0.00000   0.00024   0.00006   0.00003
  0-1A  -> 15-1A    3.932847   31720.6   315.3   -0.00585   0.01314  -0.18694   0.01804
  0-1A  -> 16-1A    3.933093   31722.5   315.2    0.00609  -0.18784  -0.01277   0.00438
  0-1A  -> 17-1A    4.265946   34407.2   290.6    0.00001   0.00132   0.00824   0.08196
  0-1A  -> 18-1A    4.434343   35765.4   279.6   -0.00000   0.00001   0.00003  -0.00017
  0-1A  -> 19-1A    4.659364   37580.3   266.1   -0.00000  -0.00000  -0.00001  -0.00009
  0-1A  -> 20-1A    4.664887   37624.9   265.8   -0.00000   0.00000   0.00000   0.00002
  0-1A  -> 21-1A    4.672556   37686.7   265.3    0.00003   0.00000   0.00000   0.00004
  0-1A  -> 22-1A    4.686529   37799.4   264.6    0.00016  -0.00000  -0.00000   0.00000
  0-1A  -> 23-1A    4.710577   37993.4   263.2   -0.00002   0.00019   0.00017   0.00049
  0-1A  -> 24-1A    4.735881   38197.5   261.8   -0.00092   0.01720   0.10253   1.04024
  0-1A  -> 25-1A    4.741994   38246.8   261.5    0.00004   0.00019   0.00079   0.00697
  0-1A  -> 26-1A    4.826755   38930.4   256.9    0.00576  -0.00001  -0.00002   0.00002
  0-1A  -> 27-1A    4.826998   38932.4   256.9   -0.00538   0.00001  -0.00001   0.00002
  0-1A  -> 28-1A    5.001333   40338.5   247.9    0.00007   0.00000  -0.00001  -0.00000
  0-1A  -> 29-1A    5.174933   41738.7   239.6   -0.00000   0.00000  -0.00000  -0.00001
  0-1A  -> 30-1A    5.201829   41955.6   238.3    0.00000   0.00003   0.00026  -0.00056

Total run time:     2410.938 sec

           *** ORCA-CIS/TD-DFT FINISHED WITHOUT ERROR ***
-----------------------
CIS/TD-DFT TOTAL ENERGY
-----------------------

    E(SCF)  =  -1189.162155056 Eh
    DE(CIS) =      0.084687580 Eh (Root  1)
    ----------------------------- ---------
    E(tot)  =  -1189.077467476 Eh


Maximum memory used throughout the entire CIS-calculation: 1605.3 MB
=> NOW LEAVING ORCA_CIS

-------------------------   --------------------
FINAL SINGLE POINT ENERGY     -1189.077467475810
-------------------------   --------------------



           ************************************************************
           *        Program running with 4 parallel MPI-processes     *
           *              working on a common directory               *
           ************************************************************

------------------------------------------------------------------------------
                              ORCA PROPERTY CALCULATIONS
------------------------------------------------------------------------------

GBWName                                 ... tddft.gbw
Number of atoms                         ...     37
Number of basis functions               ...    848
Max core memory                         ...   3000 MB

Electric properties:
Dipole moment                           ... YES
Quadrupole moment                       ...  NO
Static polarizability (Dipole/Dipole)   ...  NO
Static polarizability (Dipole/Quad.)    ...  NO
Static polarizability (Quad./Quad.)     ...  NO
Static polarizability (Velocity)        ...  NO
Static hyperpolarizability              ...  NO

Atomic electric properties:
Dipole moment                           ...  NO
Quadrupole moment                       ...  NO
Static polarizability                   ...  NO

Choice of electric origin               ... Center of mass
Position of electric origin             ...    -0.158818     5.090151     6.572142

General magnetic properties:
Magnetizability                         ...  NO

EPR properties:
g-Tensor (aka g-matrix)                 ...  NO
Zero-Field splitting spin-orbit         ...  NO
Zero-field splitting spin-spin          ...  NO
Hyperfine couplings                     ...  NO (   0 nuclei)
Quadrupole couplings                    ...  NO (   0 nuclei)
Contact density                         ...  NO (   0 nuclei)

NMR properties:
Chemical shifts                         ...  NO (   0 nuclei)
Spin-rotation constants                 ...  NO (   0 nuclei)
Spin-spin couplings                     ...  NO (   0 nuclei,    0 pairs)

Choice of magnetic origin               ... GIAO
Position of magnetic origin             ...     0.000000     0.000000     0.000000

Properties with geometric perturbations:
SCF Hessian                             ...  NO
IR spectrum                             ...  NO
VCD spectrum                            ...  NO
X-ray spectroscopy properties:
SCF XES/XAS/RIXS spectra                ...  NO

SCF SOC stabilization energy            ...  NO
Diagonal Born-Oppenheimer correction    ...  NO

-------------
DIPOLE MOMENT
-------------

Method             : SCF
Type of density    : Electron Density
Multiplicity       :   1
Irrep              :   0
Energy             : -1189.1621550556774309 Eh
Basis              : AO
                                X                 Y                 Z
Electronic contribution:      0.000009886      -0.000032962      -0.000433410
Nuclear contribution   :     -0.000008108       0.000042856       0.000532868
                        -----------------------------------------
Total Dipole Moment    :      0.000001778       0.000009894       0.000099458
                        -----------------------------------------
Magnitude (a.u.)       :      0.000099965
Magnitude (Debye)      :      0.000254090



--------------------
Rotational spectrum 
--------------------
 
Rotational constants in cm-1:             0.008916             0.008916             0.004458 
Rotational constants in MHz :           267.307767           267.296540           133.651083 

Dipole components along the rotational axes: 
x,y,z [a.u.] :     0.000000     0.000000     0.000100 
x,y,z [Debye]:     0.000000     0.000000     0.000254 

 

Dipole moment calculation done in   0.1 sec 

Maximum memory used throughout the entire PROP-calculation: 86.1 MB

--------------------------------
SUGGESTED CITATIONS FOR THIS RUN
--------------------------------

Below you find a list of papers that are relevant to this ORCA run
We neither can nor want to force you to cite these papers, but we appreciate if you do
You receive ORCA, which is the product of decades of hard work by many enthusiastic individuals, for free
The only thing we kindly ask in return is that you cite our papers,
We deeply appreciate it, if you show your appreciation for ORCA by not just citing the generic ORCA reference.

Please note that relegating all ORCA citations to the supporting information does *not* help us.
SI sections are not indexed - citations you put there will not count into any citation statistics
But we need these citations in order to attract the funding resources that allow us to do what we are doing

Therefore, if you are a happy ORCA user, please consider citing a few of the papers listed below in the main body of your paper

In addition to the list printed below, the program has created the file tddft.bibtex that contains the list in bibtex format
You can import this file easily into all common literature databanks and citation aid programs

It goes without saying that in many instances, there are alternative algorithms to achieve similar
results as the ones you have gotten from ORCA. It is, of course, also the case that in some instances
ORCA just re-implements algorithms worked out by others. We are fully aware of that and we are also
fully appreciative of our colleagues work. Hence this citation list should not be read as indicating
that the listed papers, which are focused on our own work, are the only ones worth citing. It simply
meant to make it easier for users to cite ORCA specific papers. It is not a substitute for doing your
own literature research and citing the relevant literature in a scientifically appropriate manner.

List of essential papers. We consider these as the minimum necessary citations

  1. Neese, F.
     Software update: the ORCA program system, version 6.0
     WIRES Comput. Molec. Sci. 2025 15(1), e70019
     doi.org/10.1002/wcms.70019

List of papers to cite with high priority. The work reported in these papers was absolutely
necessary for this run to complete.
Our perspective: the developers of density functionals and basis sets usually get cited in chemistry papers
Good! But without the algorithms to do something with them, the functionals or basis sets would not do anything.
Hence, in our opinion, the algorithm design and method developments papers are equally worthy of getting cited

  1. Neese, F.; Olbrich, G.
     Efficient use of the resolution of the identity approximation in time-dependent density functional calculations with hybrid density functionals
     Chem. Phys. Lett. 2002 362 , 170-178
     doi.org/10.1016/s0009-2614(02)01053-9
  2. Neese, F.
     An improvement of the resolution of the identity approximation for the formation of the Coulomb matrix
     J. Comp. Chem. 2003 24(14), 1740-1747
     doi.org/10.1002/jcc.10318
  3. Garcia-Rates, M.; Neese, F.
     Effect of the Solute Cavity on the Solvation Energy and its Derivatives within the Framework of the Gaussian Charge Scheme
     J. Comput. Chem. 2020 41 , 922-939
     doi.org/10.1002/jcc.26139
  4. Neese, F.
     The SHARK Integral Generation and Digestion System
     J. Comp. Chem. 2022 44(3), 381
     doi.org/10.1002/jcc.26942

List of suggested additional citations. These are papers that are important in the 'surrounding' of 
of this run, or papers that preceded the highly important papers. If you like your results we are grateful for a citation.

  1. Neese, F.
     The ORCA program system
     WIRES Comput. Molec. Sci. 2012 2(1), 73-78
     doi.org/10.1002/wcms.81
  2. Neese, F.
     Software update: the ORCA program system, version 4.0
     WIRES Comput. Molec. Sci. 2018 8(1), 1-6
     doi.org/10.1002/wcms.1327
  3. Neese, F.; Wennmohs, F.; Becker, U.; Riplinger, C.
     The ORCA quantum chemistry program package
     J. Chem. Phys. 2020 152(22), 224108
     doi.org/10.1063/5.0004608
  4. Neese, F.
     Software update: The ORCA program system—Version 5.0
     WIRES Comput. Molec. Sci. 2022 12(1), e1606
     doi.org/10.1002/wcms.1606

List of optional additional citations

  1. Neese, F.
     Approximate second-order SCF convergence for spin unrestricted wavefunctions
     Chem. Phys. Lett. 2000 325(1-3), 93-98
     doi.org/10.1016/s0009-2614(00)00662-x

Timings for individual modules:

Sum of individual times          ...     2720.610 sec (=  45.344 min)
Startup calculation              ...       10.015 sec (=   0.167 min)   0.4 %
SCF iterations                   ...      297.161 sec (=   4.953 min)  10.9 %
Property integrals               ...        0.951 sec (=   0.016 min)   0.0 %
Property calculations            ...        0.921 sec (=   0.015 min)   0.0 %
CIS module                       ...     2411.563 sec (=  40.193 min)  88.6 %
                             ****ORCA TERMINATED NORMALLY****
TOTAL RUN TIME: 0 days 0 hours 45 minutes 21 seconds 129 msec
