
                                 *****************
                                 * O   R   C   A *
                                 *****************

                                            #,                                       
                                            ###                                      
                                            ####                                     
                                            #####                                    
                                            ######                                   
                                           ########,                                 
                                     ,,################,,,,,                         
                               ,,#################################,,                 
                          ,,##########################################,,             
                       ,#########################################, ''#####,          
                    ,#############################################,,   '####,        
                  ,##################################################,,,,####,       
                ,###########''''           ''''###############################       
              ,#####''   ,,,,##########,,,,          '''####'''          '####       
            ,##' ,,,,###########################,,,                        '##       
           ' ,,###''''                  '''############,,,                           
         ,,##''                                '''############,,,,        ,,,,,,###''
      ,#''                                            '''#######################'''  
     '                                                          ''''####''''         
             ,#######,   #######,   ,#######,      ##                                
            ,#'     '#,  ##    ##  ,#'     '#,    #''#        ,####,    ,#,          
            ##       ##  ##   ,#'  ##            #'  '#       #'       ,# #          
            ##       ##  #######   ##           ,######,      #####,      #          
            '#,     ,#'  ##    ##  '#,     ,#' ,#      #,     #,   #      #          
             '#######'   ##     ##  '#######'  #'      '#     '####' #    #          



                #########################################################
                #                        -***-                          #
                #          Department of theory and spectroscopy        #
                #                                                       #
                #                      Frank Neese                      #
                #                                                       #
                #     Directorship, Architecture, Infrastructure        #
                #                    SHARK, DRIVERS                     #
                #        Core code/Algorithms in most modules           #
                #                                                       #
                #        Max Planck Institute fuer Kohlenforschung      #
                #                Kaiser Wilhelm Platz 1                 #
                #                 D-45470 Muelheim/Ruhr                 #
                #                      Germany                          #
                #                                                       #
                #                  All rights reserved                  #
                #                        -***-                          #
                #########################################################


                         Program Version 6.1.1  -  RELEASE   -
                                (GIT: $487d211c$)
                          ($2025-11-21 10:33:24 +0100$)


 With contributions from (in alphabetic order):
[Max-Planck-Institut fuer Kohlenforschung]                               
  Daniel Aravena         : Magnetic Suceptibility                        
  Michael Atanasov       : Ab Initio Ligand Field Theory (pilot matlab implementation)
  Alexander A. Auer      : GIAO ZORA, VPT2 properties, NMR spectrum      
  Ute Becker             : All parallelization in ORCA, NUMFREQ, NUMCALC 
  Giovanni Bistoni       : ED, misc. LED, open-shell LED, HFLD           
  Dmytro Bykov           : pre 5.0 version of the SCF Hessian            
  Marcos Casanova-Páez   : Triplet and SCS-CIS(D). UHF-(DLPNO)-IP/EA/STEOM-CCSD. UHF-CVS-IP/STEOM-CCSD   
  Vijay G. Chilkuri      : MRCI spin determinant printing, contributions to CSF-ICE 
  Pauline Colinet        : FMM embedding                                 
  Dipayan Datta          : RHF DLPNO-CCSD density                        
  Achintya Kumar Dutta   : EOM-CC, STEOM-CC                              
  Nicolas Foglia         : Exact transition moments, OPA infrastructure, MCD improvements    
  Dmitry Ganyushin       : Spin-Orbit,Spin-Spin,Magnetic field MRCI      
  Miquel Garcia-Rates    : C-PCM and meta-GGA Hessian, CCSD/C-PCM, Gaussian charge scheme 
  Tiago L. C. Gouveia    : GS-ROHF, GS-ROCIS                             
  Yang Guo               : DLPNO-NEVPT2, F12-NEVPT2, CIM, IAO-localization        
  Andreas Hansen         : Spin unrestricted coupled pair/coupled cluster methods 
  Ingolf Harden          : AUTO-CI MPn and infrastructure                
  Benjamin Helmich-Paris : MC-RPA, TRAH-(SCF,CASSCF), AVAS, COSX integrals, SCF dyn. polar., MC-PDFT, srDFT 
  Lee Huntington         : MR-EOM, pCC                                   
  Robert Izsak           : Overlap fitted RIJCOSX, COSX-SCS-MP3, EOM     
  Riya Kayal             : Wick's Theorem for AUTO-CI, AUTO-CI UHF-CCSDT 
  Emily Kempfer          : AUTO-CI RHF CISDT and CCSDT, approximate NEVPT4
  Christian Kollmar      : KDIIS, OOCD, Brueckner-CCSD(T), CCSD density, CASPT2, CASPT2-K, improved NEVPT2 
  Axel Koslowski         : Symmetry handling                             
  Simone Kossmann        : meta-GGA functionals, TD-DFT gradient, OOMP2, (MP2 Hessian; deprecated post 5.0) 
  Lucas Lang             : DCDCAS, Hyperfine gauge corrections, ICE-SOC+SSC
  Marvin Lechner         : AUTO-CI (C++ implementation), FIC-MRCC        
  Spencer Leger          : CASSCF response                               
  Dagmar Lenk            : GEPOL surface, SMD, ORCA-2-JSON               
  Dimitrios Liakos       : Extrapolation schemes; Compound Job, Property file
  Dimitrios Manganas     : Further ROCIS development; embedding schemes. LFT, Crystal Embedding 
  Dimitrios Pantazis     : SARC Basis sets                               
  Anastasios Papadopoulos: AUTO-CI, single reference methods and gradients 
  Taras Petrenko         : pre 6.0 DFT Hessian and TD-DFT gradient,  ECA, NRVS 
  Petra Pikulova         : Analytic Raman intensities                    
  Peter Pinski           : DLPNO-MP2, DLPNO-MP2 Gradient                 
  Shashank Vittal Rao    : ES-AILFT, MagRelax                            
  Christoph Reimann      : Effective Core Potentials                     
  Marius Retegan         : Local ZFS, SOC                                
  Christoph Riplinger    : Optimizer, TS searches, QM/MM, DLPNO-CCSD(T), (RO)-DLPNO pert. Triples 
  Michael Roemelt        : Original ROCIS implementation, recursive CI coupling coefficients
  Masaaki Saitow         : Open-shell DLPNO-CCSD energy and density      
  Barbara Sandhoefer     : DKH picture change effects                    
  Yorick L. A. Schmerwitz: GMF and freeze-and-release deltaSCF, NEB S-IDPP initial path                    
  Kantharuban Sivalingam : CASSCF convergence/infrastructure, NEVPT2, NEVPT3, NEVPT4(SD), FIC-MRCI and CEPA variants
  Bernardo de Souza      : ESD, SOC TD-DFT                               
  Georgi L. Stoychev     : AutoAux, RI-MP2 NMR, DLPNO-MP2 response, X2C  
  Van Anh Tran           : RI-MP2 g-tensors                              
  Willem Van den Heuvel  : Paramagnetic NMR                              
  Zikuan Wang            : NOTCH, Electric field optimization            
  Frank Wennmohs         : Technical directorship and infrastructure     
  Hang Xu                : AUTO-CI-Response properties                   
                                                                         
[FACCTs GmbH]                                                            
  Markus Bursch, Nicolas Foglia, Miquel Garcia-Rates, Ingolf Harden, Hagen Neugebauer, Anastasios Papadopoulos, 
  Christoph Riplinger, Bernardo de Souza, Georgi L. Stoychev                                                    
                                                                 
  APM, various basis sets, CI-OPT, improved COSX, DLPNO-Multilevel,           
  DOCKER, DRACO, updates on ESD, Fragmentator, GOAT, IRC, LR-CPCM, L-BFGS, MBIS, meta-GGA TD-DFT gradient, ML-optimized integration grids, 
  MM, NACMEs, nearIR, NEB, NEB-TS, NL-DFT gradient (VV10), 2- and 3-layer-ONIOM, interface openCOSMO-RS, QMMM,   
  Crystal-QMMM, RESP, rigid body optimization, SF, symmetry and pop. for TD-DFT, various functionals, SOLVATOR                                   
                                                                         
[Other institutions]                                                     
  V. Asgeirsson          : NEB                                           
  Christoph Bannwarth    : sTDA-DFT, sTD-DFT, PBEh-3c, B97-3c, D3        
  Giovanni Bistoni       : ETS/NOCV, ADLD/ADEX, COVALED                  
  Martin Brehm           : Molecular dynamics                            
  Ronald Cardenas        : ETS/NOCV                                      
  Martina Colucci        : COVALED                                       
  Sebastian Ehlert       : rSCAN, r2SCAN, r2SCAN-3c, D4, dhf basis sets  
  Marvin Friede          : D4 for Fr, Ra, Ac-Lr                          
  Lars Goerigk           : TD-DFT with DH, B97 family of functionals     
  Stefan Grimme          : VdW corrections, initial TS optimization, DFT functionals, gCP, sTDA/sTD-DF 
  Waldemar Hujo          : DFT-NL                                        
  H. Jonsson             : NEB                                           
  Holger Kruse           : gCP                                           
  Marcel Mueller         : wB97X-3c, vDZP basis set                      
  Hagen Neugebauer       : wr2SCAN, Native XTB                           
  Gianluca Regni         : ADLD/ADEX                                     
  Tobias Risthaus        : pre 6.0 range-separated hybrid DFT and stability analysis
  Lukas Wittmann         : regularized MP2, r2SCAN double-hybrids, wr2SCAN        
                                                                         
We gratefully acknowledge several colleagues who have allowed us to      
interface, adapt or use parts of their codes:                            
  Ed Valeev, F. Pavosevic, A. Kumar             : LibInt (2-el integral package), F12 methods 
  Garnet Chan, S. Sharma, J. Yang, R. Olivares  : DMRG                   
  Ulf Ekstrom                                   : XCFun DFT Library      
  Mihaly Kallay                                 : mrcc  (arbitrary order and MRCC methods)
  Frank Weinhold                                : gennbo (NPA and NBO analysis)           
  Simon Mueller                                 : openCOSMO-RS                            
  Christopher J. Cramer and Donald G. Truhlar   : smd solvation model                     
  S Lehtola, MJT Oliveira, MAL Marques          : LibXC Library                           
  Liviu Ungur et al                             : ANISO software                          


 Your calculation uses the libint2 library for the computation of 2-el integrals
 For citations please refer to: http://libint.valeyev.net

 Your ORCA version has been built with support for libXC version: 7.0.0
 For citations please refer to: https://libxc.gitlab.io

 This ORCA versions uses:
   CBLAS   interface :  Fast vector & matrix operations
   LAPACKE interface :  Fast linear algebra routines
   SCALAPACK package :  Parallel linear algebra routines
   Shared memory     :  Shared parallel matrices
   BLAS/LAPACK       :  OpenBLAS 0.3.29  USE64BITINT DYNAMIC_ARCH NO_AFFINITY Haswell SINGLE_THREADED
        Core in use  :  Haswell
   Copyright (c) 2011-2014, The OpenBLAS Project


  ***********************************
  * Starting time: Sun Jul  5 17:08:28 2026
  * Host name:     steezy
  * Process ID:    1275766
  * Working dir.:  /home/jannes/chlorophyll-ladder/007-mg-core-ladder/mgporphin/02_tddft/tpss
  ***********************************

NOTE: MaxCore=3000 MB was set to SCF,MP2,MDCI,CIPSI,MRCI,RASCI and CIS
      => If you want to overwrite this, your respective input block should be placed after the MaxCore statement


***************************************
The coordinates will be read from file: /home/jannes/chlorophyll-ladder/007-mg-core-ladder/mgporphin/01_opt/mgporphin_opt_b3lypd4_tzvp.xyz
***************************************


================================================================================

----- Orbital basis set information -----
Your calculation utilizes the basis: def2-TZVP
   F. Weigend and R. Ahlrichs, Phys. Chem. Chem. Phys. 7, 3297 (2005).

----- AuxJ basis set information -----
Your calculation utilizes the auxiliary basis: def2/J
   H-Rn: F. Weigend, Phys. Chem. Chem. Phys. 8, 1057 (2006).
   Fr-Lr: K. Eichkorn, F. Weigend, O. Treutler, R. Ahlrichs; Theor. Chem. Acc. 97, 119 (1997).

================================================================================
                                        WARNINGS
                       Please study these warnings very carefully!
================================================================================



WARNING: Found flag for RIJCOSX approximation but no HF exchange needed!
  ===> : RIJCOSX  will be disabled and Split-RI-J is turned on

WARNING: CIS/ROCIS methods need fully converged wavefunctions
  ===> : Setting SCFConvForced true
         You can overwrite this default with %scf ConvForced false 


================================================================================
                                       INPUT FILE
================================================================================
NAME = tddft.inp
|  1> %pal nprocs 4 end
|  2> %maxcore 3000
|  3> ! TPSS def2-TZVP def2/J RIJCOSX DefGrid3 TightSCF
|  4> %tddft
|  5>   nroots 30
|  6>   triplets false
|  7> end
|  8> * xyzfile 0 1 /home/jannes/chlorophyll-ladder/007-mg-core-ladder/mgporphin/01_opt/mgporphin_opt_b3lypd4_tzvp.xyz
|  9> 
| 10>                          ****END OF INPUT****
================================================================================

                       ****************************
                       * Single Point Calculation *
                       ****************************

---------------------------------
CARTESIAN COORDINATES (ANGSTROEM)
---------------------------------
  N     -2.126632    2.522518    3.528336
  H      1.688951   -2.244306    3.936854
  C     -4.367453    3.014298    3.517091
  C     -0.399300   -1.569210    3.904114
  N      0.091157    0.660020    3.674254
  C      0.955251   -1.456037    3.870452
  H     -0.988023   -2.467894    4.003531
  C      2.861647    1.841375    3.512926
  N     -0.259245    4.727154    3.281236
  C     -1.123334    6.843238    3.085343
  C      2.534867    0.494152    3.650974
  C      2.674027    4.023168    3.301567
  N      1.958546    2.864658    3.427339
  C      4.083452    3.721259    3.307939
  C     -0.935449   -0.237004    3.780431
  C      1.256233   -0.053833    3.726030
  C     -2.842123    1.364011    3.654087
  C     -3.029725    3.545804    3.442713
  C     -4.251542    1.665928    3.647704
  C     -2.289528    0.090486    3.770544
  C     -2.702948    4.893026    3.304662
  C      4.199367    2.372883    3.438500
  C     -1.424318    5.441018    3.229591
  C      0.231221    6.956420    3.051755
  C      2.121440    5.296697    3.185130
  C      0.767360    5.624187    3.175204
  H     -5.271397    3.601806    3.474297
  H     -5.042401    0.936910    3.732428
  H     -2.986818   -0.732582    3.863624
  H      3.363051   -0.201104    3.706153
  H      5.103317    1.785376    3.481270
  H      4.874295    4.450291    3.223211
  H      2.818737    6.119763    3.092108
  H      0.819955    7.855111    2.952489
  H     -3.531147    5.588265    3.249501
  H     -1.857042    7.631509    3.019026
  Mg    -0.084042    2.693585    3.477789

----------------------------
CARTESIAN COORDINATES (A.U.)
----------------------------
  NO LB      ZA    FRAG     MASS         X           Y           Z
   0 N     7.0000    0    14.007   -4.018753    4.766868    6.667589
   1 H     1.0000    0     1.008    3.191655   -4.241124    7.439576
   2 C     6.0000    0    12.011   -8.253290    5.696197    6.646338
   3 C     6.0000    0    12.011   -0.754567   -2.965378    7.377707
   4 N     7.0000    0    14.007    0.172263    1.247257    6.943333
   5 C     6.0000    0    12.011    1.805164   -2.751510    7.314095
   6 H     1.0000    0     1.008   -1.867093   -4.663643    7.565577
   7 C     6.0000    0    12.011    5.407728    3.479694    6.638469
   8 N     7.0000    0    14.007   -0.489901    8.933026    6.200637
   9 C     6.0000    0    12.011   -2.122794   12.931846    5.830453
  10 C     6.0000    0    12.011    4.790204    0.933812    6.899342
  11 C     6.0000    0    12.011    5.053178    7.602686    6.239058
  12 N     7.0000    0    14.007    3.701116    5.413420    6.476731
  13 C     6.0000    0    12.011    7.716607    7.032160    6.251099
  14 C     6.0000    0    12.011   -1.767742   -0.447872    7.143980
  15 C     6.0000    0    12.011    2.373936   -0.101729    7.041177
  16 C     6.0000    0    12.011   -5.370834    2.577607    6.905224
  17 C     6.0000    0    12.011   -5.725351    6.700598    6.505785
  18 C     6.0000    0    12.011   -8.034249    3.148147    6.893162
  19 C     6.0000    0    12.011   -4.326581    0.170994    7.125295
  20 C     6.0000    0    12.011   -5.107832    9.246479    6.244906
  21 C     6.0000    0    12.011    7.935654    4.484099    6.497823
  22 C     6.0000    0    12.011   -2.691571   10.282033    6.103042
  23 C     6.0000    0    12.011    0.436944   13.145729    5.766981
  24 C     6.0000    0    12.011    4.008940   10.009307    6.019023
  25 C     6.0000    0    12.011    1.450100   10.628173    6.000267
  26 H     1.0000    0     1.008   -9.961497    6.806428    6.565470
  27 H     1.0000    0     1.008   -9.528758    1.770503    7.053266
  28 H     1.0000    0     1.008   -5.644268   -1.384379    7.301191
  29 H     1.0000    0     1.008    6.355246   -0.380031    7.003613
  30 H     1.0000    0     1.008    9.643871    3.373872    6.578646
  31 H     1.0000    0     1.008    9.211083    8.409831    6.090987
  32 H     1.0000    0     1.008    5.326641   11.564676    5.843236
  33 H     1.0000    0     1.008    1.549490   14.844008    5.579396
  34 H     1.0000    0     1.008   -6.672901   10.560290    6.140667
  35 H     1.0000    0     1.008   -3.509300   14.421462    5.705132
  36 Mg   12.0000    0    24.305   -0.158817    5.090138    6.572068

--------------------------------
INTERNAL COORDINATES (ANGSTROEM)
--------------------------------
 N      0   0   0     0.000000000000     0.00000000     0.00000000
 H      1   0   0     6.119491276487     0.00000000     0.00000000
 C      1   2   0     2.294177409054   140.92453006     0.00000000
 C      2   1   3     2.194906869500    33.50915004     0.03654954
 N      4   2   1     2.294090550086    95.56469348     0.04751811
 C      2   1   3     1.078931462307     4.27284844     0.40083788
 H      4   2   1     1.078939583961   105.16341269   180.06430126
 C      5   4   2     3.016162461030   125.61516112   359.95655471
 N      1   2   6     2.899761601367   101.32570715   180.34880946
 C      9   1   2     2.294087441504   117.77531267   179.96469761
 C      8   5   4     1.393144250589    53.16437800     0.06876310
 C      8   5   4     2.200021689544   108.37491839   180.08468447
 N     12   8   5     1.367433868161    36.44673543     0.00000000
 C     12   8   5     1.441412676383    73.05033634   180.01204037
 C      5   4   2     1.367422885977    36.31868910   180.00102268
 C      5   4   2     1.367357644410    70.79572404     0.00000000
 C      1   2   6     1.367434647900    70.13306991     0.35586623
 C      1   2   6     1.367487791728   177.24111910     0.97900926
 C      3   1   2     1.359631242567    72.76301102   359.95357395
 C     17   1   2     1.393122060686   125.07310744     0.00000000
 C     18   1  17     1.393143327356   125.09478022   180.00966439
 C     14  12   8     1.359631880754   106.94820236     0.00000000
 C      9   1   2     1.367356903781    81.45605938   180.00111785
 C     10   9   1     1.359689963047    72.76177076   180.05889371
 C     12   8   5     1.393121008199   161.52060847   359.96153148
 C      9   1   2     1.367416327023   171.42924741     0.34052806
 H      3   1   2     1.078940742119   159.26701397   179.95498931
 H     19   3   1     1.078936604777   127.96204490   180.00155066
 H     20  17   1     1.082736356593   116.52889429   179.96077396
 H     11   8   5     1.082734663195   116.52549896   180.00584317
 H     22  14  12     1.078943065563   127.96985474   179.99900777
 H     14  12   8     1.078934265943   125.08876244   180.00062158
 H     25  12   8     1.082734522723   116.52871416   180.07456094
 H     24  10   9     1.078937518569   127.96698994   179.97965206
 H     21  18   1     1.082734010826   116.52436251   179.96628297
 H     10   9   1     1.078932341162   159.27697815     0.03817484
 Mg    13  12   8     2.050360529877   126.45537008   180.01043791

---------------------------
INTERNAL COORDINATES (A.U.)
---------------------------
 N      0   0   0     0.000000000000     0.00000000     0.00000000
 H      1   0   0    11.564162591480     0.00000000     0.00000000
 C      1   2   0     4.335367005742   140.92453006     0.00000000
 C      2   1   3     4.147772872818    33.50915004     0.03654954
 N      4   2   1     4.335202866080    95.56469348     0.04751811
 C      2   1   3     2.038884981031     4.27284844     0.40083788
 H      4   2   1     2.038900328733   105.16341269   180.06430126
 C      5   4   2     5.699721026761   125.61516112   359.95655471
 N      1   2   6     5.479755280244   101.32570715   180.34880946
 C      9   1   2     4.335196991710   117.77531267   179.96469761
 C      8   5   4     2.632661098659    53.16437800     0.06876310
 C      8   5   4     4.157438481924   108.37491839   180.08468447
 N     12   8   5     2.584075517072    36.44673543     0.00000000
 C     12   8   5     2.723875204326    73.05033634   180.01204037
 C      5   4   2     2.584054763752    36.31868910   180.00102268
 C      5   4   2     2.583931475058    70.79572404     0.00000000
 C      1   2   6     2.584076990566    70.13306991     0.35586623
 C      1   2   6     2.584177417846   177.24111910     0.97900926
 C      3   1   2     2.569330691574    72.76301102   359.95357395
 C     17   1   2     2.632619165820   125.07310744     0.00000000
 C     18   1  17     2.632659354002   125.09478022   180.00966439
 C     14  12   8     2.569331897574   106.94820236     0.00000000
 C      9   1   2     2.583930075473    81.45605938   180.00111785
 C     10   9   1     2.569441657201    72.76177076   180.05889371
 C     12   8   5     2.632617176909   161.52060847   359.96153148
 C      9   1   2     2.584042369125   171.42924741     0.34052806
 H      3   1   2     2.038902517335   159.26701397   179.95498931
 H     19   3   1     2.038894698891   127.96204490   180.00155066
 H     20  17   1     2.046075189201   116.52889429   179.96077396
 H     11   8   5     2.046071989142   116.52549896   180.00584317
 H     22  14  12     2.038906908008   127.96985474   179.99900777
 H     14  12   8     2.038890279135   125.08876244   180.00062158
 H     25  12   8     2.046071723688   116.52871416   180.07456094
 H     24  10   9     2.038896425708   127.96698994   179.97965206
 H     21  18   1     2.046070756344   116.52436251   179.96628297
 H     10   9   1     2.038886641826   159.27697815     0.03817484
 Mg    13  12   8     3.874619877269   126.45537008   180.01043791

---------------------
BASIS SET INFORMATION
---------------------
There are 4 groups of distinct atoms

 Group   1 Type N   : 11s6p2d1f contracted to 5s3p2d1f pattern {62111/411/11/1}
 Group   2 Type H   : 5s1p contracted to 3s1p pattern {311/1}
 Group   3 Type C   : 11s6p2d1f contracted to 5s3p2d1f pattern {62111/411/11/1}
 Group   4 Type Mg  : 14s8p3d contracted to 5s4p3d pattern {73211/5111/111}

Atom   0N    basis set group =>   1
Atom   1H    basis set group =>   2
Atom   2C    basis set group =>   3
Atom   3C    basis set group =>   3
Atom   4N    basis set group =>   1
Atom   5C    basis set group =>   3
Atom   6H    basis set group =>   2
Atom   7C    basis set group =>   3
Atom   8N    basis set group =>   1
Atom   9C    basis set group =>   3
Atom  10C    basis set group =>   3
Atom  11C    basis set group =>   3
Atom  12N    basis set group =>   1
Atom  13C    basis set group =>   3
Atom  14C    basis set group =>   3
Atom  15C    basis set group =>   3
Atom  16C    basis set group =>   3
Atom  17C    basis set group =>   3
Atom  18C    basis set group =>   3
Atom  19C    basis set group =>   3
Atom  20C    basis set group =>   3
Atom  21C    basis set group =>   3
Atom  22C    basis set group =>   3
Atom  23C    basis set group =>   3
Atom  24C    basis set group =>   3
Atom  25C    basis set group =>   3
Atom  26H    basis set group =>   2
Atom  27H    basis set group =>   2
Atom  28H    basis set group =>   2
Atom  29H    basis set group =>   2
Atom  30H    basis set group =>   2
Atom  31H    basis set group =>   2
Atom  32H    basis set group =>   2
Atom  33H    basis set group =>   2
Atom  34H    basis set group =>   2
Atom  35H    basis set group =>   2
Atom  36Mg   basis set group =>   4
---------------------------------
AUXILIARY/J BASIS SET INFORMATION
---------------------------------
There are 4 groups of distinct atoms

 Group   1 Type N   : 12s5p4d2f1g contracted to 6s4p3d1f1g pattern {711111/2111/211/2/1}
 Group   2 Type H   : 5s2p1d contracted to 3s1p1d pattern {311/2/1}
 Group   3 Type C   : 12s5p4d2f1g contracted to 6s4p3d1f1g pattern {711111/2111/211/2/1}
 Group   4 Type Mg  : 14s5p5d2f1g contracted to 8s4p4d1f1g pattern {71111111/2111/2111/2/1}

Atom   0N    basis set group =>   1
Atom   1H    basis set group =>   2
Atom   2C    basis set group =>   3
Atom   3C    basis set group =>   3
Atom   4N    basis set group =>   1
Atom   5C    basis set group =>   3
Atom   6H    basis set group =>   2
Atom   7C    basis set group =>   3
Atom   8N    basis set group =>   1
Atom   9C    basis set group =>   3
Atom  10C    basis set group =>   3
Atom  11C    basis set group =>   3
Atom  12N    basis set group =>   1
Atom  13C    basis set group =>   3
Atom  14C    basis set group =>   3
Atom  15C    basis set group =>   3
Atom  16C    basis set group =>   3
Atom  17C    basis set group =>   3
Atom  18C    basis set group =>   3
Atom  19C    basis set group =>   3
Atom  20C    basis set group =>   3
Atom  21C    basis set group =>   3
Atom  22C    basis set group =>   3
Atom  23C    basis set group =>   3
Atom  24C    basis set group =>   3
Atom  25C    basis set group =>   3
Atom  26H    basis set group =>   2
Atom  27H    basis set group =>   2
Atom  28H    basis set group =>   2
Atom  29H    basis set group =>   2
Atom  30H    basis set group =>   2
Atom  31H    basis set group =>   2
Atom  32H    basis set group =>   2
Atom  33H    basis set group =>   2
Atom  34H    basis set group =>   2
Atom  35H    basis set group =>   2
Atom  36Mg   basis set group =>   4


           ************************************************************
           *        Program running with 4 parallel MPI-processes     *
           *              working on a common directory               *
           ************************************************************
------------------------------------------------------------------------------
                             ORCA STARTUP CALCULATIONS
                           -- RI-GTO INTEGRALS CHOSEN --
------------------------------------------------------------------------------
------------------------------------------------------------------------------
                   ___                                                        
                  /   \      - P O W E R E D   B Y -                         
                 /     \                                                     
                 |  |  |   _    _      __       _____    __    __             
                 |  |  |  | |  | |    /  \     |  _  \  |  |  /  |          
                  \  \/   | |  | |   /    \    | | | |  |  | /  /          
                 / \  \   | |__| |  /  /\  \   | |_| |  |  |/  /          
                |  |  |   |  __  | /  /__\  \  |    /   |      \           
                |  |  |   | |  | | |   __   |  |    \   |  |\   \          
                \     /   | |  | | |  |  |  |  | |\  \  |  | \   \       
                 \___/    |_|  |_| |__|  |__|  |_| \__\ |__|  \__/        
                                                                              
                      - O R C A' S   B I G   F R I E N D -                    
                                      &                                       
                       - I N T E G R A L  F E E D E R -                       
                                                                              
 v1 FN, 2020, v2 2021, v3 2022-2024                                           
------------------------------------------------------------------------------


----------------------
SHARK INTEGRAL PACKAGE
----------------------

Number of atoms                             ...     37
Number of basis functions                   ...    848
Number of shells                            ...    324
Maximum angular momentum                    ...      3
Integral batch strategy                     ... SHARK/LIBINT Hybrid
RI-J (if used) integral strategy            ... SPLIT-RIJ (Revised 2003 algorithm where possible)
Printlevel                                  ...      1
Contraction scheme used                     ... SEGMENTED contraction
Prescreening option                         ... SCHWARTZ
   Thresh                                   ... 2.500e-11
   Tcut                                     ... 2.500e-12
   Tpresel                                  ... 2.500e-12 
Coulomb Range Separation                    ... NOT USED
Exchange Range Separation                   ... NOT USED
Multipole approximations                    ... NOT USED
Finite Nucleus Model                        ... NOT USED
CABS basis                                  ... NOT available
Auxiliary Coulomb fitting basis             ... AVAILABLE
   # of basis functions in Aux-J            ...   1364
   # of shells in Aux-J                     ...    438
   Maximum angular momentum in Aux-J        ...      4
Auxiliary J/K fitting basis                 ... NOT available
Auxiliary Correlation fitting basis         ... NOT available
Auxiliary 'external' fitting basis          ... NOT available

Checking pre-screening integrals            ... done (  0.0 sec) Dimension = 324
   => SHARK Basis and OBASIS are compatible. Storing Pre-screening
Shell pair information
Shell pair cut-off parameter TPreSel        ...   2.5e-12
Total number of shell pairs                 ...     52650
Shell pairs after pre-screening             ...     37452
Total number of primitive shell pairs       ...    167352
Primitive shell pairs kept                  ...     77858
          la=0 lb=0:   8711 shell pairs
          la=1 lb=0:  10604 shell pairs
          la=1 lb=1:   3186 shell pairs
          la=2 lb=0:   5583 shell pairs
          la=2 lb=1:   3500 shell pairs
          la=2 lb=2:    986 shell pairs
          la=3 lb=0:   2388 shell pairs
          la=3 lb=1:   1536 shell pairs
          la=3 lb=2:    788 shell pairs
          la=3 lb=3:    170 shell pairs

Checking whether 4 symmetric matrices of dimension 848 fit in memory
:Max Core in MB      =   3000.00
 MB in use           =     49.24
 MB left             =   2950.76
 MB needed           =     10.99
 Data fit in memory  = YES
Calculating RI/J V-Matrix + Cholesky decomp.... done (  0.2 sec)
Calculating Nuclear repulsion               ... done (  0.0 sec) ENN=   2121.711186967779 Eh

Diagonalization of the overlap matrix:
Smallest eigenvalue                        ... 1.003e-05
Time for diagonalization                   ...    0.191 sec
Threshold for overlap eigenvalues          ... 1.000e-07
Number of eigenvalues below threshold      ... 0
Time for construction of square roots      ...    0.097 sec
Total time needed                          ...    0.296 sec

-------------------
DFT GRID GENERATION
-------------------

General Integration Accuracy     IntAcc      ... 4.959
Radial Grid Type                 RadialGrid  ... OptM3 with GC (2021)
Angular Grid (max. ang.)         AngularGrid ... 6 (Lebedev-590)
Angular grid pruning method      GridPruning ... 4 (adaptive)
Weight generation scheme         WeightScheme... mBecke (2022)
Basis function cutoff            BFCut       ... 1.0000e-11
Integration weight cutoff        WCut        ... 1.0000e-14
Partially contracted basis set               ... off
Rotationally invariant grid construction     ... off
Angular grids for H and He will be reduced by one unit

Total number of grid points                  ...   456655
Total number of batches                      ...     7152
Average number of points per batch           ...       63
Average number of grid points per atom       ...    12342
Grids setup in   8.3 sec
Initializing property integral containers    ... done (  0.0 sec)

SHARK setup successfully completed in   9.6 seconds

Maximum memory used throughout the entire STARTUP-calculation: 148.4 MB


           ************************************************************
           *        Program running with 4 parallel MPI-processes     *
           *              working on a common directory               *
           ************************************************************
-------------------------------------------------------------------------------
                                 ORCA GUESS
                   Start orbitals & Density for SCF / CASSCF
-------------------------------------------------------------------------------

------------
SCF SETTINGS
------------
Hamiltonian:
 Density Functional     Method          .... DFT(GTOs)
 Exchange Functional    Exchange        .... TPSS
 Correlation Functional Correlation     .... TPSS
 LDA part of GGA corr.  LDAOpt          .... PW91-LDA
 Gradients option       PostSCFGGA      .... off
   NL short-range parameter             ....  5.000000
 RI-approximation to the Coulomb term is turned on
   Number of AuxJ basis functions       .... 1364


General Settings:
 Integral files         IntName         .... tddft
 Hartree-Fock type      HFTyp           .... RHF
 Total Charge           Charge          ....    0
 Multiplicity           Mult            ....    1
 Number of Electrons    NEL             ....  172
 Basis Dimension        Dim             ....  848
 Nuclear Repulsion      ENuc            ....   2121.7111869678 Eh

Convergence Acceleration:
 AO-DIIS                CNVDIIS         .... on
   Start iteration      DIISMaxIt       ....    12
   Startup error        DIISStart       ....  0.200000
   # of expansion vecs  DIISMaxEq       ....     5
   Bias factor          DIISBfac        ....   1.050
   Max. coefficient     DIISMaxC        ....  10.000
 MO-DIIS                CNVKDIIS        .... off
 Trust-Rad. Augm. Hess. CNVTRAH         .... auto
   Auto Start mean grad. ratio tolernc. ....  1.125000
   Auto Start start iteration           ....    50
   Auto Start num. interpolation iter.  ....    10
   Max. Number of Micro iterations      ....    24
   Max. Number of Macro iterations      .... Maxiter - #DIIS iter
   Number of Davidson start vectors     ....     2
   Converg. threshold    (grad. norm)   ....   1.000e-05
   Grad. Scal. Fac. for Micro threshold ....   0.100
   Minimum threshold for Micro iter.    ....   1.000e-02
   NR start threshold (gradient norm)   ....   1.000e-04
   Initial trust radius                 ....   0.400
   Minimum AH scaling param. (alpha)    ....   1.000
   Maximum AH scaling param. (alpha)    .... 1000.000
   Quad. conv. algorithm                .... NR
   White noise on init. David. guess    .... on
   Maximum white noise                  ....   0.010
   Pseudo random numbers                .... off
   Inactive MOs                         .... canonical
   Orbital update algorithm             .... Taylor
   Preconditioner                       .... Diag
   Full preconditioner red. dimension   ....   250
 SOSCF                 CNVSOSCF           .... on
   Start iteration     SOSCFMaxIt         ....   150
   Startup grad/error  SOSCFStart         ....  0.003300
   Hessian update      SOSCFHessUp        .... L-BFGS
   Autom. constraints  SOSCFAutoConstrain .... off
 Level Shifting         CNVShift        .... on
   Level shift para.    LevelShift      ....    0.2500
   Turn off err/grad.   ShiftErr        ....    0.0010
 Zerner damping         CNVZerner       .... off
 Static damping         CNVDamp         .... on
   Fraction old density DampFac         ....    0.7000
   Max. Damping (<1)    DampMax         ....    0.9800
   Min. Damping (>=0)   DampMin         ....    0.0000
   Turn off err/grad.   DampErr         ....    0.1000

SCF Procedure:
 Maximum # iterations   MaxIter         ....   125
 SCF integral mode      SCFMode         .... Direct
   Integral package                     .... SHARK and LIBINT hybrid scheme
 Reset frequency        DirectResetFreq ....    20
 Integral Threshold     Thresh          ....  2.500e-11 Eh
 Primitive CutOff       TCut            ....  2.500e-12 Eh

Convergence Tolerance:
 Convergence Check Mode ConvCheckMode   .... Total+1el-Energy
 Convergence forced     ConvForced      .... 1
 Energy Change          TolE            ....  1.000e-08 Eh
 1-El. energy change                    ....  1.000e-05 Eh
 Orbital Gradient       TolG            ....  1.000e-05
 Orbital Rotation angle TolX            ....  1.000e-05
 DIIS Error             TolErr          ....  5.000e-07

------------------------------
INITIAL GUESS: MODEL POTENTIAL
------------------------------
Loading Hartree-Fock densities                     ... done
Calculating cut-offs                               ... done
Initializing the effective Hamiltonian             ... done
Setting up the integral package (SHARK)            ... done
Starting the Coulomb interaction                   ... done (   1.6 sec)
Making the grid                                    ... done (   0.6 sec)
Mapping shells                                     ... done
Starting the XC term evaluation                    ... done (   0.8 sec)
  promolecular density results
     # of electrons  =    171.995110955
     EX              =   -148.115499445
     EC              =     -5.855479608
     EX+EC           =   -153.970979052
Transforming the Hamiltonian                       ... done (   0.1 sec)
Diagonalizing the Hamiltonian                      ... done (   0.2 sec)
Back transforming the eigenvectors                 ... done (   0.1 sec)
Now organizing SCF variables                       ... done
                      ------------------
                      INITIAL GUESS DONE (   3.4 sec)
                      ------------------
             **** ENERGY FILE WAS UPDATED (tddft.en.tmp) ****
Finished Guess after   3.9 sec
Maximum memory used throughout the entire GUESS-calculation: 83.5 MB


           ************************************************************
           *        Program running with 4 parallel MPI-processes     *
           *              working on a common directory               *
           ************************************************************

-------------------------------------------------------------------------------------------
                                      ORCA LEAN-SCF
                              memory conserving SCF solver
-------------------------------------------------------------------------------------------

----------------------------------------D-I-I-S--------------------------------------------
Iteration    Energy (Eh)           Delta-E    RMSDP     MaxDP     DIISErr   Damp  Time(sec)
-------------------------------------------------------------------------------------------
               ***  Starting incremental Fock matrix formation  ***
    1    -1188.6508290124415907     0.00e+00  1.97e-03  4.41e-02  2.10e-01  0.700  17.1
Warning: op=0 Small HOMO/LUMO gap (   0.072) - skipping pre-diagonalization
         Will do a full diagonalization
    2    -1188.8903758449760062    -2.40e-01  1.64e-03  2.54e-02  8.47e-02  0.700  15.8
                               ***Turning on AO-DIIS***
    3    -1188.9791989043005742    -8.88e-02  9.46e-04  1.23e-02  2.59e-02  0.700  16.9
    4    -1189.0322238601311255    -5.30e-02  1.88e-03  4.16e-02  1.41e-02  0.000  16.0
    5    -1189.1493968464965292    -1.17e-01  4.09e-04  1.03e-02  5.26e-03  0.000  16.5
                              *** Initializing SOSCF ***
---------------------------------------S-O-S-C-F--------------------------------------
Iteration    Energy (Eh)           Delta-E    RMSDP     MaxDP     MaxGrad    Time(sec)
--------------------------------------------------------------------------------------
    6    -1189.1503335174475069    -9.37e-04  2.24e-04  5.77e-03  8.48e-04    16.0
               *** Restarting incremental Fock matrix formation ***
    7    -1189.1503842682195682    -5.08e-05  1.45e-04  3.80e-03  4.15e-04    20.7
    8    -1189.1503867151004670    -2.45e-06  4.80e-05  1.27e-03  5.24e-04    13.5
    9    -1189.1503971327242652    -1.04e-05  4.32e-05  1.14e-03  2.10e-04    13.5
   10    -1189.1503966843133639     4.48e-07  1.13e-05  2.72e-04  2.13e-04    12.7
   11    -1189.1503984710889199    -1.79e-06  1.85e-05  5.09e-04  4.41e-05    12.3
   12    -1189.1503985407925938    -6.97e-08  4.22e-06  1.32e-04  4.54e-05    11.9
   13    -1189.1503986716506915    -1.31e-07  1.00e-05  3.71e-04  1.51e-05    11.6
   14    -1189.1503986735829130    -1.93e-09  7.09e-06  1.90e-04  6.49e-06    12.0
                 **** Energy Check signals convergence ****

               *****************************************************
               *                     SUCCESS                       *
               *           SCF CONVERGED AFTER  14 CYCLES          *
               *****************************************************

             **** ENERGY FILE WAS UPDATED (tddft.en.tmp) ****

----------------
TOTAL SCF ENERGY
----------------

Total Energy       :      -1189.15039873448995 Eh          -32358.42742 eV

Components:
Nuclear Repulsion  :       2121.71118696777876 Eh           57734.69657 eV
Electronic Energy  :      -3310.86158570226871 Eh          -90093.12399 eV
One Electron Energy:      -5839.12961160521263 Eh         -158890.79458 eV
Two Electron Energy:       2528.26802590294392 Eh           68797.67059 eV

Virial components:
Potential Energy   :      -2373.59297172769038 Eh          -64588.74839 eV
Kinetic Energy     :       1184.44257299320020 Eh           32230.32097 eV
Virial Ratio       :          2.00397471844447

DFT components:
N(Alpha)           :       86.000002148191 electrons
N(Beta)            :       86.000002148191 electrons
N(Total)           :      172.000004296383 electrons
E(X)               :     -152.060473932820 Eh       
E(C)               :       -5.874304587033 Eh       
E(XC)              :     -157.934778519853 Eh       

---------------
SCF CONVERGENCE
---------------

  Last Energy change         ...    1.9322e-09  Tolerance :   1.0000e-08
  Last MAX-Density change    ...    1.8987e-04  Tolerance :   1.0000e-07
  Last RMS-Density change    ...    7.0888e-06  Tolerance :   5.0000e-09
  Last DIIS Error            ...    8.4785e-04  Tolerance :   5.0000e-07
  Last Orbital Gradient      ...    6.4894e-06  Tolerance :   1.0000e-05
  Last Orbital Rotation      ...    2.6241e-05  Tolerance :   1.0000e-05


----------------
ORBITAL ENERGIES
----------------

  NO   OCC          E(Eh)            E(eV) 
   0   2.0000     -46.381867     -1262.1148 
   1   2.0000     -14.088280      -383.3616 
   2   2.0000     -14.088276      -383.3615 
   3   2.0000     -14.088272      -383.3614 
   4   2.0000     -14.088270      -383.3613 
   5   2.0000     -10.017907      -272.6011 
   6   2.0000     -10.017905      -272.6011 
   7   2.0000     -10.017900      -272.6009 
   8   2.0000     -10.017897      -272.6008 
   9   2.0000     -10.017890      -272.6006 
  10   2.0000     -10.017889      -272.6006 
  11   2.0000     -10.017883      -272.6005 
  12   2.0000     -10.017882      -272.6004 
  13   2.0000      -9.995254      -271.9847 
  14   2.0000      -9.995253      -271.9847 
  15   2.0000      -9.995242      -271.9844 
  16   2.0000      -9.995241      -271.9843 
  17   2.0000      -9.986716      -271.7523 
  18   2.0000      -9.986715      -271.7523 
  19   2.0000      -9.986712      -271.7522 
  20   2.0000      -9.986710      -271.7522 
  21   2.0000      -9.986185      -271.7379 
  22   2.0000      -9.986184      -271.7379 
  23   2.0000      -9.986182      -271.7378 
  24   2.0000      -9.986181      -271.7378 
  25   2.0000      -2.915797       -79.3429 
  26   2.0000      -1.681288       -45.7502 
  27   2.0000      -1.673934       -45.5501 
  28   2.0000      -1.673933       -45.5500 
  29   2.0000      -0.896883       -24.4054 
  30   2.0000      -0.888652       -24.1814 
  31   2.0000      -0.888628       -24.1808 
  32   2.0000      -0.879583       -23.9347 
  33   2.0000      -0.756102       -20.5746 
  34   2.0000      -0.730826       -19.8868 
  35   2.0000      -0.730822       -19.8867 
  36   2.0000      -0.712495       -19.3880 
  37   2.0000      -0.707417       -19.2498 
  38   2.0000      -0.707405       -19.2495 
  39   2.0000      -0.703785       -19.1510 
  40   2.0000      -0.684227       -18.6188 
  41   2.0000      -0.659927       -17.9575 
  42   2.0000      -0.602309       -16.3897 
  43   2.0000      -0.602302       -16.3895 
  44   2.0000      -0.547997       -14.9118 
  45   2.0000      -0.526050       -14.3145 
  46   2.0000      -0.524294       -14.2668 
  47   2.0000      -0.524286       -14.2665 
  48   2.0000      -0.521486       -14.1904 
  49   2.0000      -0.502511       -13.6740 
  50   2.0000      -0.492189       -13.3932 
  51   2.0000      -0.476705       -12.9718 
  52   2.0000      -0.476695       -12.9715 
  53   2.0000      -0.464813       -12.6482 
  54   2.0000      -0.451718       -12.2919 
  55   2.0000      -0.451716       -12.2918 
  56   2.0000      -0.406498       -11.0614 
  57   2.0000      -0.391836       -10.6624 
  58   2.0000      -0.388893       -10.5823 
  59   2.0000      -0.381467       -10.3803 
  60   2.0000      -0.381453       -10.3799 
  61   2.0000      -0.378914       -10.3108 
  62   2.0000      -0.375690       -10.2230 
  63   2.0000      -0.375682       -10.2228 
  64   2.0000      -0.369884       -10.0651 
  65   2.0000      -0.355272        -9.6675 
  66   2.0000      -0.350455        -9.5364 
  67   2.0000      -0.350442        -9.5360 
  68   2.0000      -0.341789        -9.3005 
  69   2.0000      -0.333790        -9.0829 
  70   2.0000      -0.333782        -9.0827 
  71   2.0000      -0.332349        -9.0437 
  72   2.0000      -0.325863        -8.8672 
  73   2.0000      -0.323310        -8.7977 
  74   2.0000      -0.295037        -8.0284 
  75   2.0000      -0.275234        -7.4895 
  76   2.0000      -0.275217        -7.4890 
  77   2.0000      -0.256946        -6.9919 
  78   2.0000      -0.256944        -6.9918 
  79   2.0000      -0.247780        -6.7424 
  80   2.0000      -0.233885        -6.3643 
  81   2.0000      -0.223231        -6.0744 
  82   2.0000      -0.223223        -6.0742 
  83   2.0000      -0.219620        -5.9762 
  84   2.0000      -0.184879        -5.0308 
  85   2.0000      -0.180148        -4.9021 
  86   0.0000      -0.102912        -2.8004 
  87   0.0000      -0.102903        -2.8001 
  88   0.0000      -0.051849        -1.4109 
  89   0.0000       0.004738         0.1289 
  90   0.0000       0.014273         0.3884 
  91   0.0000       0.022204         0.6042 
  92   0.0000       0.024310         0.6615 
  93   0.0000       0.024320         0.6618 
  94   0.0000       0.040068         1.0903 
  95   0.0000       0.043723         1.1898 
  96   0.0000       0.046749         1.2721 
*Only the first 10 virtual orbitals were printed.

                    ********************************
                    * MULLIKEN POPULATION ANALYSIS *
                    ********************************

-----------------------
MULLIKEN ATOMIC CHARGES
-----------------------
   0 N :   -0.370752
   1 H :    0.096776
   2 C :   -0.196236
   3 C :   -0.196152
   4 N :   -0.370864
   5 C :   -0.196437
   6 H :    0.096794
   7 C :    0.392079
   8 N :   -0.370862
   9 C :   -0.196429
  10 C :   -0.484272
  11 C :    0.393707
  12 N :   -0.370751
  13 C :   -0.196387
  14 C :    0.392705
  15 C :    0.393245
  16 C :    0.393714
  17 C :    0.392107
  18 C :   -0.196338
  19 C :   -0.485068
  20 C :   -0.484252
  21 C :   -0.196173
  22 C :    0.393213
  23 C :   -0.196128
  24 C :   -0.484998
  25 C :    0.392632
  26 H :    0.096796
  27 H :    0.096781
  28 H :    0.094026
  29 H :    0.094028
  30 H :    0.096797
  31 H :    0.096785
  32 H :    0.094026
  33 H :    0.096805
  34 H :    0.094031
  35 H :    0.096785
  36 Mg:    0.698264
Sum of atomic charges:   -0.0000000

--------------------------------
MULLIKEN REDUCED ORBITAL CHARGES
--------------------------------
  0 N s       :     3.660935  s :     3.660935
      pz      :     1.346028  p :     3.648370
      px      :     1.262431
      py      :     1.039911
      dz2     :     0.004436  d :     0.057714
      dxz     :     0.005790
      dyz     :     0.013707
      dx2y2   :     0.016668
      dxy     :     0.017114
      f0      :     0.000650  f :     0.003733
      f+1     :     0.000304
      f-1     :     0.000427
      f+2     :     0.000109
      f-2     :     0.000608
      f+3     :     0.000683
      f-3     :     0.000953

  1 H s       :     0.883116  s :     0.883116
      pz      :     0.004883  p :     0.020108
      px      :     0.007202
      py      :     0.008023

  2 C s       :     3.291760  s :     3.291760
      pz      :     0.997143  p :     2.810226
      px      :     0.882663
      py      :     0.930420
      dz2     :     0.005531  d :     0.086127
      dxz     :     0.010279
      dyz     :     0.018697
      dx2y2   :     0.018383
      dxy     :     0.033237
      f0      :     0.001352  f :     0.008123
      f+1     :     0.000845
      f-1     :     0.000621
      f+2     :     0.001041
      f-2     :     0.000459
      f+3     :     0.002385
      f-3     :     0.001419

  3 C s       :     3.291736  s :     3.291736
      pz      :     0.996557  p :     2.810171
      px      :     0.929828
      py      :     0.883786
      dz2     :     0.005125  d :     0.086123
      dxz     :     0.019303
      dyz     :     0.010128
      dx2y2   :     0.018317
      dxy     :     0.033251
      f0      :     0.001401  f :     0.008123
      f+1     :     0.000529
      f-1     :     0.000854
      f+2     :     0.001092
      f-2     :     0.000451
      f+3     :     0.001392
      f-3     :     0.002403

  4 N s       :     3.661027  s :     3.661027
      pz      :     1.348035  p :     3.648379
      px      :     1.037063
      py      :     1.263281
      dz2     :     0.004268  d :     0.057725
      dxz     :     0.013933
      dyz     :     0.005693
      dx2y2   :     0.016637
      dxy     :     0.017193
      f0      :     0.000654  f :     0.003734
      f+1     :     0.000415
      f-1     :     0.000311
      f+2     :     0.000104
      f-2     :     0.000603
      f+3     :     0.000962
      f-3     :     0.000684

  5 C s       :     3.292054  s :     3.292054
      pz      :     0.996832  p :     2.810136
      px      :     0.922835
      py      :     0.890468
      dz2     :     0.005354  d :     0.086126
      dxz     :     0.017019
      dyz     :     0.012150
      dx2y2   :     0.017282
      dxy     :     0.034321
      f0      :     0.001386  f :     0.008122
      f+1     :     0.000594
      f-1     :     0.000813
      f+2     :     0.001364
      f-2     :     0.000164
      f+3     :     0.001553
      f-3     :     0.002247

  6 H s       :     0.883098  s :     0.883098
      pz      :     0.004919  p :     0.020108
      px      :     0.005920
      py      :     0.009269

  7 C s       :     3.059997  s :     3.059997
      pz      :     0.911062  p :     2.366663
      px      :     0.739320
      py      :     0.716281
      dz2     :     0.005809  d :     0.166472
      dxz     :     0.029651
      dyz     :     0.036553
      dx2y2   :     0.053863
      dxy     :     0.040595
      f0      :     0.002036  f :     0.014789
      f+1     :     0.000908
      f-1     :     0.001097
      f+2     :     0.000737
      f-2     :     0.002367
      f+3     :     0.003674
      f-3     :     0.003969

  8 N s       :     3.661037  s :     3.661037
      pz      :     1.348027  p :     3.648365
      px      :     1.037063
      py      :     1.263275
      dz2     :     0.004268  d :     0.057725
      dxz     :     0.013933
      dyz     :     0.005693
      dx2y2   :     0.016638
      dxy     :     0.017193
      f0      :     0.000654  f :     0.003734
      f+1     :     0.000415
      f-1     :     0.000311
      f+2     :     0.000104
      f-2     :     0.000603
      f+3     :     0.000962
      f-3     :     0.000684

  9 C s       :     3.292009  s :     3.292009
      pz      :     0.996840  p :     2.810172
      px      :     0.922856
      py      :     0.890476
      dz2     :     0.005354  d :     0.086126
      dxz     :     0.017019
      dyz     :     0.012150
      dx2y2   :     0.017282
      dxy     :     0.034321
      f0      :     0.001386  f :     0.008122
      f+1     :     0.000595
      f-1     :     0.000813
      f+2     :     0.001364
      f-2     :     0.000164
      f+3     :     0.001553
      f-3     :     0.002247

 10 C s       :     3.464306  s :     3.464306
      pz      :     1.012008  p :     2.929112
      px      :     0.957760
      py      :     0.959343
      dz2     :     0.003317  d :     0.083213
      dxz     :     0.013921
      dyz     :     0.017482
      dx2y2   :     0.010233
      dxy     :     0.038260
      f0      :     0.001274  f :     0.007640
      f+1     :     0.000681
      f-1     :     0.000714
      f+2     :     0.000841
      f-2     :     0.000533
      f+3     :     0.002029
      f-3     :     0.001568

 11 C s       :     3.060179  s :     3.060179
      pz      :     0.910757  p :     2.364791
      px      :     0.746159
      py      :     0.707875
      dz2     :     0.005898  d :     0.166532
      dxz     :     0.028952
      dyz     :     0.037220
      dx2y2   :     0.051860
      dxy     :     0.042602
      f0      :     0.002039  f :     0.014791
      f+1     :     0.000842
      f-1     :     0.001157
      f+2     :     0.001175
      f-2     :     0.001939
      f+3     :     0.002519
      f-3     :     0.005121

 12 N s       :     3.660944  s :     3.660944
      pz      :     1.346030  p :     3.648360
      px      :     1.262419
      py      :     1.039911
      dz2     :     0.004436  d :     0.057714
      dxz     :     0.005790
      dyz     :     0.013707
      dx2y2   :     0.016668
      dxy     :     0.017114
      f0      :     0.000650  f :     0.003733
      f+1     :     0.000304
      f-1     :     0.000427
      f+2     :     0.000109
      f-2     :     0.000608
      f+3     :     0.000683
      f-3     :     0.000953

 13 C s       :     3.291991  s :     3.291991
      pz      :     0.996982  p :     2.810138
      px      :     0.889526
      py      :     0.923629
      dz2     :     0.005316  d :     0.086136
      dxz     :     0.012595
      dyz     :     0.016632
      dx2y2   :     0.017378
      dxy     :     0.034215
      f0      :     0.001368  f :     0.008122
      f+1     :     0.000752
      f-1     :     0.000690
      f+2     :     0.001331
      f-2     :     0.000183
      f+3     :     0.002224
      f-3     :     0.001574

 14 C s       :     3.059831  s :     3.059831
      pz      :     0.911079  p :     2.366179
      px      :     0.714510
      py      :     0.740590
      dz2     :     0.005599  d :     0.166495
      dxz     :     0.037366
      dyz     :     0.029126
      dx2y2   :     0.053729
      dxy     :     0.040674
      f0      :     0.002067  f :     0.014790
      f+1     :     0.001046
      f-1     :     0.000915
      f+2     :     0.000763
      f-2     :     0.002338
      f+3     :     0.003993
      f-3     :     0.003669

 15 C s       :     3.060333  s :     3.060333
      pz      :     0.911280  p :     2.365105
      px      :     0.705802
      py      :     0.748023
      dz2     :     0.005588  d :     0.166526
      dxz     :     0.038151
      dyz     :     0.028389
      dx2y2   :     0.051711
      dxy     :     0.042687
      f0      :     0.002065  f :     0.014792
      f+1     :     0.001082
      f-1     :     0.000881
      f+2     :     0.001138
      f-2     :     0.001953
      f+3     :     0.005151
      f-3     :     0.002522

 16 C s       :     3.060189  s :     3.060189
      pz      :     0.910758  p :     2.364772
      px      :     0.746116
      py      :     0.707898
      dz2     :     0.005898  d :     0.166533
      dxz     :     0.028952
      dyz     :     0.037219
      dx2y2   :     0.051861
      dxy     :     0.042603
      f0      :     0.002039  f :     0.014791
      f+1     :     0.000842
      f-1     :     0.001157
      f+2     :     0.001175
      f-2     :     0.001939
      f+3     :     0.002519
      f-3     :     0.005121

 17 C s       :     3.060003  s :     3.060003
      pz      :     0.911060  p :     2.366630
      px      :     0.739314
      py      :     0.716257
      dz2     :     0.005810  d :     0.166471
      dxz     :     0.029651
      dyz     :     0.036553
      dx2y2   :     0.053861
      dxy     :     0.040596
      f0      :     0.002036  f :     0.014789
      f+1     :     0.000908
      f-1     :     0.001097
      f+2     :     0.000737
      f-2     :     0.002367
      f+3     :     0.003674
      f-3     :     0.003969

 18 C s       :     3.291979  s :     3.291979
      pz      :     0.996989  p :     2.810101
      px      :     0.889504
      py      :     0.923607
      dz2     :     0.005316  d :     0.086136
      dxz     :     0.012595
      dyz     :     0.016632
      dx2y2   :     0.017378
      dxy     :     0.034215
      f0      :     0.001368  f :     0.008122
      f+1     :     0.000752
      f-1     :     0.000690
      f+2     :     0.001331
      f-2     :     0.000183
      f+3     :     0.002224
      f-3     :     0.001574

 19 C s       :     3.464732  s :     3.464732
      pz      :     1.011952  p :     2.929477
      px      :     0.958995
      py      :     0.958530
      dz2     :     0.002967  d :     0.083218
      dxz     :     0.018252
      dyz     :     0.013497
      dx2y2   :     0.010280
      dxy     :     0.038222
      f0      :     0.001306  f :     0.007640
      f+1     :     0.000639
      f-1     :     0.000704
      f+2     :     0.000852
      f-2     :     0.000533
      f+3     :     0.001559
      f-3     :     0.002046

 20 C s       :     3.464279  s :     3.464279
      pz      :     1.012004  p :     2.929120
      px      :     0.957775
      py      :     0.959340
      dz2     :     0.003317  d :     0.083213
      dxz     :     0.013921
      dyz     :     0.017482
      dx2y2   :     0.010233
      dxy     :     0.038260
      f0      :     0.001274  f :     0.007640
      f+1     :     0.000681
      f-1     :     0.000714
      f+2     :     0.000841
      f-2     :     0.000533
      f+3     :     0.002029
      f-3     :     0.001568

 21 C s       :     3.291706  s :     3.291706
      pz      :     0.997140  p :     2.810217
      px      :     0.882647
      py      :     0.930429
      dz2     :     0.005531  d :     0.086127
      dxz     :     0.010278
      dyz     :     0.018697
      dx2y2   :     0.018383
      dxy     :     0.033238
      f0      :     0.001352  f :     0.008123
      f+1     :     0.000845
      f-1     :     0.000621
      f+2     :     0.001042
      f-2     :     0.000459
      f+3     :     0.002385
      f-3     :     0.001419

 22 C s       :     3.060323  s :     3.060323
      pz      :     0.911290  p :     2.365147
      px      :     0.705823
      py      :     0.748034
      dz2     :     0.005586  d :     0.166525
      dxz     :     0.038150
      dyz     :     0.028391
      dx2y2   :     0.051712
      dxy     :     0.042687
      f0      :     0.002065  f :     0.014792
      f+1     :     0.001082
      f-1     :     0.000881
      f+2     :     0.001138
      f-2     :     0.001953
      f+3     :     0.005151
      f-3     :     0.002522

 23 C s       :     3.291682  s :     3.291682
      pz      :     0.996552  p :     2.810200
      px      :     0.929850
      py      :     0.883798
      dz2     :     0.005124  d :     0.086123
      dxz     :     0.019302
      dyz     :     0.010128
      dx2y2   :     0.018318
      dxy     :     0.033251
      f0      :     0.001401  f :     0.008123
      f+1     :     0.000529
      f-1     :     0.000854
      f+2     :     0.001092
      f-2     :     0.000451
      f+3     :     0.001393
      f-3     :     0.002403

 24 C s       :     3.464713  s :     3.464713
      pz      :     1.011950  p :     2.929428
      px      :     0.958969
      py      :     0.958509
      dz2     :     0.002967  d :     0.083217
      dxz     :     0.018252
      dyz     :     0.013497
      dx2y2   :     0.010279
      dxy     :     0.038221
      f0      :     0.001306  f :     0.007640
      f+1     :     0.000639
      f-1     :     0.000704
      f+2     :     0.000852
      f-2     :     0.000533
      f+3     :     0.001559
      f-3     :     0.002046

 25 C s       :     3.059880  s :     3.059880
      pz      :     0.911088  p :     2.366204
      px      :     0.714495
      py      :     0.740621
      dz2     :     0.005596  d :     0.166494
      dxz     :     0.037366
      dyz     :     0.029127
      dx2y2   :     0.053730
      dxy     :     0.040674
      f0      :     0.002067  f :     0.014790
      f+1     :     0.001046
      f-1     :     0.000915
      f+2     :     0.000763
      f-2     :     0.002338
      f+3     :     0.003993
      f-3     :     0.003669

 26 H s       :     0.883096  s :     0.883096
      pz      :     0.004863  p :     0.020108
      px      :     0.009323
      py      :     0.005922

 27 H s       :     0.883112  s :     0.883112
      pz      :     0.004899  p :     0.020108
      px      :     0.008040
      py      :     0.007168

 28 H s       :     0.885465  s :     0.885465
      pz      :     0.005320  p :     0.020509
      px      :     0.006924
      py      :     0.008265

 29 H s       :     0.885463  s :     0.885463
      pz      :     0.005281  p :     0.020509
      px      :     0.008308
      py      :     0.006920

 30 H s       :     0.883095  s :     0.883095
      pz      :     0.004863  p :     0.020108
      px      :     0.009323
      py      :     0.005922

 31 H s       :     0.883107  s :     0.883107
      pz      :     0.004899  p :     0.020108
      px      :     0.008040
      py      :     0.007168

 32 H s       :     0.885465  s :     0.885465
      pz      :     0.005320  p :     0.020509
      px      :     0.006924
      py      :     0.008265

 33 H s       :     0.883087  s :     0.883087
      pz      :     0.004919  p :     0.020108
      px      :     0.005920
      py      :     0.009269

 34 H s       :     0.885460  s :     0.885460
      pz      :     0.005281  p :     0.020509
      px      :     0.008308
      py      :     0.006920

 35 H s       :     0.883107  s :     0.883107
      pz      :     0.004883  p :     0.020108
      px      :     0.007202
      py      :     0.008023

 36 Mgs       :     4.541167  s :     4.541167
      pz      :     2.091751  p :     6.470697
      px      :     2.189932
      py      :     2.189015
      dz2     :     0.030488  d :     0.289871
      dxz     :     0.030972
      dyz     :     0.032013
      dx2y2   :     0.164734
      dxy     :     0.031664



                     *******************************
                     * LOEWDIN POPULATION ANALYSIS *
                     *******************************

----------------------
LOEWDIN ATOMIC CHARGES
----------------------
   0 N :    0.181755
   1 H :    0.136722
   2 C :   -0.108290
   3 C :   -0.108280
   4 N :    0.181796
   5 C :   -0.108289
   6 H :    0.136730
   7 C :   -0.197002
   8 N :    0.181797
   9 C :   -0.108288
  10 C :   -0.077307
  11 C :   -0.197043
  12 N :    0.181754
  13 C :   -0.108290
  14 C :   -0.197033
  15 C :   -0.197097
  16 C :   -0.197043
  17 C :   -0.197003
  18 C :   -0.108292
  19 C :   -0.077302
  20 C :   -0.077307
  21 C :   -0.108291
  22 C :   -0.197098
  23 C :   -0.108279
  24 C :   -0.077302
  25 C :   -0.197037
  26 H :    0.136736
  27 H :    0.136729
  28 H :    0.156310
  29 H :    0.156308
  30 H :    0.136737
  31 H :    0.136728
  32 H :    0.156309
  33 H :    0.136729
  34 H :    0.156309
  35 H :    0.136722
  36 Mg:    0.305701

-------------------------------
LOEWDIN REDUCED ORBITAL CHARGES
-------------------------------
  0 N s       :     2.982804  s :     2.982804
      pz      :     1.187612  p :     3.614586
      px      :     1.321388
      py      :     1.105586
      dz2     :     0.016896  d :     0.202249
      dxz     :     0.012692
      dyz     :     0.042456
      dx2y2   :     0.061196
      dxy     :     0.069009
      f0      :     0.001209  f :     0.018607
      f+1     :     0.000894
      f-1     :     0.001739
      f+2     :     0.000368
      f-2     :     0.003557
      f+3     :     0.004199
      f-3     :     0.006641

  1 H s       :     0.802758  s :     0.802758
      pz      :     0.014191  p :     0.060519
      px      :     0.021718
      py      :     0.024610

  2 C s       :     2.766276  s :     2.766276
      pz      :     0.902852  p :     2.919717
      px      :     0.976369
      py      :     1.040496
      dz2     :     0.028561  d :     0.375080
      dxz     :     0.031593
      dyz     :     0.058071
      dx2y2   :     0.104391
      dxy     :     0.152463
      f0      :     0.003072  f :     0.047218
      f+1     :     0.003825
      f-1     :     0.004017
      f+2     :     0.007555
      f-2     :     0.002491
      f+3     :     0.017463
      f-3     :     0.008794

  3 C s       :     2.766288  s :     2.766288
      pz      :     0.902237  p :     2.919716
      px      :     1.041799
      py      :     0.975680
      dz2     :     0.027320  d :     0.375062
      dxz     :     0.059595
      dyz     :     0.031377
      dx2y2   :     0.104291
      dxy     :     0.152479
      f0      :     0.003150  f :     0.047214
      f+1     :     0.003951
      f-1     :     0.003763
      f+2     :     0.007702
      f-2     :     0.002371
      f+3     :     0.008747
      f-3     :     0.017529

  4 N s       :     2.982746  s :     2.982746
      pz      :     1.189490  p :     3.614559
      px      :     1.104889
      py      :     1.320179
      dz2     :     0.016418  d :     0.202289
      dxz     :     0.042931
      dyz     :     0.012403
      dx2y2   :     0.061246
      dxy     :     0.069292
      f0      :     0.001185  f :     0.018611
      f+1     :     0.001784
      f-1     :     0.000851
      f+2     :     0.000344
      f-2     :     0.003607
      f+3     :     0.006654
      f-3     :     0.004186

  5 C s       :     2.766298  s :     2.766298
      pz      :     0.902378  p :     2.919744
      px      :     1.038182
      py      :     0.979185
      dz2     :     0.028105  d :     0.375036
      dxz     :     0.051066
      dyz     :     0.039023
      dx2y2   :     0.103655
      dxy     :     0.153187
      f0      :     0.003114  f :     0.047210
      f+1     :     0.003966
      f-1     :     0.003815
      f+2     :     0.009232
      f-2     :     0.000806
      f+3     :     0.010233
      f-3     :     0.016044

  6 H s       :     0.802753  s :     0.802753
      pz      :     0.014301  p :     0.060517
      px      :     0.017821
      py      :     0.028395

  7 C s       :     2.700145  s :     2.700145
      pz      :     0.843247  p :     2.778755
      px      :     0.961482
      py      :     0.974026
      dz2     :     0.045310  d :     0.638435
      dxz     :     0.092595
      dyz     :     0.104310
      dx2y2   :     0.201873
      dxy     :     0.194348
      f0      :     0.004883  f :     0.079667
      f+1     :     0.005086
      f-1     :     0.005997
      f+2     :     0.005186
      f-2     :     0.014265
      f+3     :     0.021824
      f-3     :     0.022427

  8 N s       :     2.982744  s :     2.982744
      pz      :     1.189484  p :     3.614557
      px      :     1.104890
      py      :     1.320183
      dz2     :     0.016417  d :     0.202291
      dxz     :     0.042931
      dyz     :     0.012402
      dx2y2   :     0.061247
      dxy     :     0.069293
      f0      :     0.001185  f :     0.018611
      f+1     :     0.001783
      f-1     :     0.000851
      f+2     :     0.000344
      f-2     :     0.003606
      f+3     :     0.006655
      f-3     :     0.004186

  9 C s       :     2.766298  s :     2.766298
      pz      :     0.902375  p :     2.919744
      px      :     1.038181
      py      :     0.979188
      dz2     :     0.028103  d :     0.375036
      dxz     :     0.051064
      dyz     :     0.039023
      dx2y2   :     0.103657
      dxy     :     0.153189
      f0      :     0.003114  f :     0.047210
      f+1     :     0.003966
      f-1     :     0.003815
      f+2     :     0.009232
      f-2     :     0.000806
      f+3     :     0.010234
      f-3     :     0.016044

 10 C s       :     2.753858  s :     2.753858
      pz      :     0.896240  p :     2.910469
      px      :     1.003891
      py      :     1.010338
      dz2     :     0.026005  d :     0.372697
      dxz     :     0.042213
      dyz     :     0.053243
      dx2y2   :     0.097045
      dxy     :     0.154191
      f0      :     0.003220  f :     0.040283
      f+1     :     0.003732
      f-1     :     0.004035
      f+2     :     0.006045
      f-2     :     0.002331
      f+3     :     0.011363
      f-3     :     0.009558

 11 C s       :     2.700152  s :     2.700152
      pz      :     0.842867  p :     2.778737
      px      :     0.974610
      py      :     0.961261
      dz2     :     0.045609  d :     0.638480
      dxz     :     0.087427
      dyz     :     0.109344
      dx2y2   :     0.199592
      dxy     :     0.196509
      f0      :     0.004888  f :     0.079673
      f+1     :     0.004730
      f-1     :     0.006350
      f+2     :     0.007529
      f-2     :     0.011969
      f+3     :     0.014843
      f-3     :     0.029365

 12 N s       :     2.982803  s :     2.982803
      pz      :     1.187613  p :     3.614587
      px      :     1.321387
      py      :     1.105587
      dz2     :     0.016896  d :     0.202249
      dxz     :     0.012692
      dyz     :     0.042456
      dx2y2   :     0.061196
      dxy     :     0.069009
      f0      :     0.001209  f :     0.018607
      f+1     :     0.000894
      f-1     :     0.001739
      f+2     :     0.000368
      f-2     :     0.003557
      f+3     :     0.004199
      f-3     :     0.006641

 13 C s       :     2.766288  s :     2.766288
      pz      :     0.902781  p :     2.919735
      px      :     0.979973
      py      :     1.036981
      dz2     :     0.027782  d :     0.375054
      dxz     :     0.040126
      dyz     :     0.050376
      dx2y2   :     0.103868
      dxy     :     0.152902
      f0      :     0.003109  f :     0.047213
      f+1     :     0.003702
      f-1     :     0.004073
      f+2     :     0.009176
      f-2     :     0.000902
      f+3     :     0.015975
      f-3     :     0.010277

 14 C s       :     2.700132  s :     2.700132
      pz      :     0.842894  p :     2.778763
      px      :     0.975390
      py      :     0.960478
      dz2     :     0.045435  d :     0.638462
      dxz     :     0.105653
      dyz     :     0.091044
      dx2y2   :     0.201889
      dxy     :     0.194442
      f0      :     0.004916  f :     0.079676
      f+1     :     0.006210
      f-1     :     0.004842
      f+2     :     0.005261
      f-2     :     0.014143
      f+3     :     0.022530
      f-3     :     0.021773

 15 C s       :     2.700137  s :     2.700137
      pz      :     0.843245  p :     2.778756
      px      :     0.962269
      py      :     0.973242
      dz2     :     0.045142  d :     0.638520
      dxz     :     0.110914
      dyz     :     0.085937
      dx2y2   :     0.199810
      dxy     :     0.196718
      f0      :     0.004915  f :     0.079684
      f+1     :     0.006406
      f-1     :     0.004648
      f+2     :     0.007237
      f-2     :     0.012126
      f+3     :     0.029511
      f-3     :     0.014840

 16 C s       :     2.700152  s :     2.700152
      pz      :     0.842867  p :     2.778737
      px      :     0.974611
      py      :     0.961259
      dz2     :     0.045609  d :     0.638481
      dxz     :     0.087428
      dyz     :     0.109343
      dx2y2   :     0.199591
      dxy     :     0.196510
      f0      :     0.004888  f :     0.079673
      f+1     :     0.004730
      f-1     :     0.006350
      f+2     :     0.007529
      f-2     :     0.011970
      f+3     :     0.014843
      f-3     :     0.029365

 17 C s       :     2.700145  s :     2.700145
      pz      :     0.843247  p :     2.778755
      px      :     0.961482
      py      :     0.974026
      dz2     :     0.045310  d :     0.638436
      dxz     :     0.092595
      dyz     :     0.104310
      dx2y2   :     0.201873
      dxy     :     0.194348
      f0      :     0.004883  f :     0.079667
      f+1     :     0.005086
      f-1     :     0.005997
      f+2     :     0.005186
      f-2     :     0.014264
      f+3     :     0.021823
      f-3     :     0.022427

 18 C s       :     2.766287  s :     2.766287
      pz      :     0.902782  p :     2.919735
      px      :     0.979974
      py      :     1.036980
      dz2     :     0.027783  d :     0.375056
      dxz     :     0.040126
      dyz     :     0.050377
      dx2y2   :     0.103868
      dxy     :     0.152902
      f0      :     0.003109  f :     0.047214
      f+1     :     0.003702
      f-1     :     0.004073
      f+2     :     0.009176
      f-2     :     0.000902
      f+3     :     0.015975
      f-3     :     0.010277

 19 C s       :     2.753858  s :     2.753858
      pz      :     0.896027  p :     2.910463
      px      :     1.011485
      py      :     1.002951
      dz2     :     0.025197  d :     0.372698
      dxz     :     0.054638
      dyz     :     0.041405
      dx2y2   :     0.097232
      dxy     :     0.154226
      f0      :     0.003268  f :     0.040283
      f+1     :     0.003956
      f-1     :     0.003735
      f+2     :     0.006061
      f-2     :     0.002282
      f+3     :     0.009528
      f-3     :     0.011454

 20 C s       :     2.753858  s :     2.753858
      pz      :     0.896239  p :     2.910468
      px      :     1.003890
      py      :     1.010339
      dz2     :     0.026005  d :     0.372698
      dxz     :     0.042213
      dyz     :     0.053244
      dx2y2   :     0.097045
      dxy     :     0.154191
      f0      :     0.003220  f :     0.040283
      f+1     :     0.003732
      f-1     :     0.004035
      f+2     :     0.006045
      f-2     :     0.002331
      f+3     :     0.011362
      f-3     :     0.009558

 21 C s       :     2.766276  s :     2.766276
      pz      :     0.902851  p :     2.919717
      px      :     0.976369
      py      :     1.040497
      dz2     :     0.028561  d :     0.375081
      dxz     :     0.031593
      dyz     :     0.058071
      dx2y2   :     0.104392
      dxy     :     0.152464
      f0      :     0.003072  f :     0.047218
      f+1     :     0.003826
      f-1     :     0.004017
      f+2     :     0.007555
      f-2     :     0.002491
      f+3     :     0.017463
      f-3     :     0.008794

 22 C s       :     2.700137  s :     2.700137
      pz      :     0.843243  p :     2.778757
      px      :     0.962268
      py      :     0.973246
      dz2     :     0.045139  d :     0.638520
      dxz     :     0.110911
      dyz     :     0.085939
      dx2y2   :     0.199811
      dxy     :     0.196720
      f0      :     0.004915  f :     0.079684
      f+1     :     0.006406
      f-1     :     0.004648
      f+2     :     0.007237
      f-2     :     0.012126
      f+3     :     0.029512
      f-3     :     0.014840

 23 C s       :     2.766288  s :     2.766288
      pz      :     0.902235  p :     2.919716
      px      :     1.041798
      py      :     0.975684
      dz2     :     0.027320  d :     0.375060
      dxz     :     0.059592
      dyz     :     0.031374
      dx2y2   :     0.104293
      dxy     :     0.152482
      f0      :     0.003150  f :     0.047214
      f+1     :     0.003951
      f-1     :     0.003763
      f+2     :     0.007701
      f-2     :     0.002371
      f+3     :     0.008748
      f-3     :     0.017530

 24 C s       :     2.753857  s :     2.753857
      pz      :     0.896027  p :     2.910464
      px      :     1.011485
      py      :     1.002952
      dz2     :     0.025197  d :     0.372698
      dxz     :     0.054637
      dyz     :     0.041404
      dx2y2   :     0.097232
      dxy     :     0.154227
      f0      :     0.003268  f :     0.040283
      f+1     :     0.003956
      f-1     :     0.003735
      f+2     :     0.006061
      f-2     :     0.002282
      f+3     :     0.009528
      f-3     :     0.011454

 25 C s       :     2.700131  s :     2.700131
      pz      :     0.842890  p :     2.778763
      px      :     0.975391
      py      :     0.960483
      dz2     :     0.045430  d :     0.638466
      dxz     :     0.105650
      dyz     :     0.091047
      dx2y2   :     0.201895
      dxy     :     0.194445
      f0      :     0.004916  f :     0.079676
      f+1     :     0.006210
      f-1     :     0.004843
      f+2     :     0.005260
      f-2     :     0.014144
      f+3     :     0.022530
      f-3     :     0.021774

 26 H s       :     0.802748  s :     0.802748
      pz      :     0.014127  p :     0.060516
      px      :     0.028566
      py      :     0.017822

 27 H s       :     0.802754  s :     0.802754
      pz      :     0.014237  p :     0.060517
      px      :     0.024671
[...]
  0-1A  -> 23-1A    4.784608   38590.5   259.1   0.000000000   0.00000   0.00000   0.00003  -0.00000
  0-1A  -> 24-1A    4.862301   39217.1   255.0   0.000000001   0.00000   0.00011   0.00000   0.00000
  0-1A  -> 25-1A    4.896181   39490.4   253.2   0.000000001   0.00000   0.00006   0.00005   0.00004
  0-1A  -> 26-1A    4.907537   39582.0   252.6   0.348824921   2.90125  -1.69832  -0.12379   0.04029
  0-1A  -> 27-1A    4.907698   39583.3   252.6   0.348835504   2.90125   0.12711  -1.69057   0.16453
  0-1A  -> 28-1A    5.011652   40421.7   247.4   0.000909459   0.00741  -0.00152  -0.00821  -0.08566
  0-1A  -> 29-1A    5.150622   41542.6   240.7   0.000000011   0.00000  -0.00020   0.00019   0.00010
  0-1A  -> 30-1A    5.291972   42682.6   234.3   0.000000000   0.00000  -0.00003   0.00000   0.00001

----------------------------------------------------------------------------------------------------
                     ABSORPTION SPECTRUM VIA TRANSITION VELOCITY DIPOLE MOMENTS    
----------------------------------------------------------------------------------------------------
     Transition      Energy     Energy  Wavelength fosc(P2)      P2        PX        PY        PZ   
                      (eV)      (cm-1)    (nm)                 (au**2)    (au)      (au)      (au)  
----------------------------------------------------------------------------------------------------
  0-1A  ->  1-1A    2.365204   19076.7   524.2   0.000029841   0.00000  -0.00181  -0.00077   0.00012
  0-1A  ->  2-1A    2.365227   19076.8   524.2   0.000030983   0.00000   0.00077  -0.00184   0.00022
  0-1A  ->  3-1A    3.369011   27172.9   368.0   0.003881985   0.00072   0.02682   0.00105  -0.00055
  0-1A  ->  4-1A    3.369243   27174.8   368.0   0.003894582   0.00072   0.00110  -0.02673   0.00272
  0-1A  ->  5-1A    3.407015   27479.4   363.9   0.000000000   0.00000  -0.00000   0.00000   0.00000
  0-1A  ->  6-1A    3.442094   27762.4   360.2   0.000000000   0.00000  -0.00000  -0.00000  -0.00000
  0-1A  ->  7-1A    3.478451   28055.6   356.4   0.000000000   0.00000   0.00000  -0.00000  -0.00001
  0-1A  ->  8-1A    3.560706   28719.0   348.2   0.000000000   0.00000  -0.00000  -0.00000   0.00001
  0-1A  ->  9-1A    3.655542   29483.9   339.2   0.000062360   0.00001   0.00349   0.00061  -0.00010
  0-1A  -> 10-1A    3.655629   29484.6   339.2   0.000065550   0.00001  -0.00063   0.00357  -0.00024
  0-1A  -> 11-1A    3.678496   29669.1   337.1   0.000000000   0.00000   0.00000  -0.00000  -0.00000
  0-1A  -> 12-1A    3.842236   30989.7   322.7   0.000000000   0.00000   0.00000  -0.00000  -0.00000
  0-1A  -> 13-1A    3.973253   32046.4   312.0   0.000000002   0.00000   0.00002  -0.00001   0.00000
  0-1A  -> 14-1A    3.973498   32048.4   312.0   0.000000002   0.00000  -0.00001  -0.00002   0.00000
  0-1A  -> 15-1A    4.116291   33200.1   301.2   0.057334369   0.01301  -0.11292  -0.01575   0.00341
  0-1A  -> 16-1A    4.116366   33200.7   301.2   0.057334451   0.01301   0.01603  -0.11242   0.01071
  0-1A  -> 17-1A    4.271461   34451.7   290.3   0.000000000   0.00000  -0.00000  -0.00000   0.00000
  0-1A  -> 18-1A    4.503735   36325.1   275.3   0.000000000   0.00000   0.00000  -0.00000  -0.00000
  0-1A  -> 19-1A    4.701799   37922.6   263.7   0.000000002   0.00000  -0.00002  -0.00000  -0.00001
  0-1A  -> 20-1A    4.708040   37972.9   263.3   0.000000002   0.00000   0.00002   0.00001   0.00001
  0-1A  -> 21-1A    4.717933   38052.7   262.8   0.000000431   0.00000  -0.00006   0.00001   0.00033
  0-1A  -> 22-1A    4.735722   38196.2   261.8   0.009143918   0.00239  -0.00080  -0.00477  -0.04862
  0-1A  -> 23-1A    4.784608   38590.5   259.1   0.000000000   0.00000   0.00000   0.00000   0.00000
  0-1A  -> 24-1A    4.862301   39217.1   255.0   0.000000000   0.00000   0.00000   0.00000   0.00000
  0-1A  -> 25-1A    4.896181   39490.4   253.2   0.000000000   0.00000   0.00000   0.00000   0.00001
  0-1A  -> 26-1A    4.907537   39582.0   252.6   0.001462288   0.00040  -0.01983  -0.00145   0.00046
  0-1A  -> 27-1A    4.907698   39583.3   252.6   0.001459650   0.00039   0.00149  -0.01973   0.00189
  0-1A  -> 28-1A    5.011652   40421.7   247.4   0.000001911   0.00000   0.00002   0.00010   0.00072
  0-1A  -> 29-1A    5.150622   41542.6   240.7   0.000000002   0.00000   0.00003   0.00000  -0.00000
  0-1A  -> 30-1A    5.291972   42682.6   234.3   0.000000000   0.00000   0.00000   0.00000   0.00000

------------------------------------------------------------------------------------------
                     CD SPECTRUM VIA TRANSITION ELECTRIC DIPOLE MOMENTS    
------------------------------------------------------------------------------------------
     Transition      Energy     Energy  Wavelength    R        MX        MY        MZ   
                      (eV)      (cm-1)    (nm)   (1e40*cgs)   (au)      (au)      (au)  
------------------------------------------------------------------------------------------
  0-1A  ->  1-1A    2.365204   19076.7   524.2    0.00007   0.00000  -0.00000  -0.00001
  0-1A  ->  2-1A    2.365227   19076.8   524.2   -0.00003  -0.00000  -0.00000  -0.00001
  0-1A  ->  3-1A    3.369011   27172.9   368.0    0.00193  -0.00001   0.00003   0.00001
  0-1A  ->  4-1A    3.369243   27174.8   368.0   -0.00141  -0.00002  -0.00001   0.00002
  0-1A  ->  5-1A    3.407015   27479.4   363.9   -0.00030   0.00991   0.05910   0.59781
  0-1A  ->  6-1A    3.442094   27762.4   360.2    0.00002   0.00009   0.00010   0.00361
  0-1A  ->  7-1A    3.478451   28055.6   356.4   -0.00000   0.00020   0.00000   0.00008
  0-1A  ->  8-1A    3.560706   28719.0   348.2    0.00000  -0.00028  -0.00005  -0.00034
  0-1A  ->  9-1A    3.655542   29483.9   339.2   -0.00115  -0.00000   0.00005   0.00001
  0-1A  -> 10-1A    3.655629   29484.6   339.2    0.00195   0.00003   0.00000  -0.00000
  0-1A  -> 11-1A    3.678496   29669.1   337.1   -0.00000  -0.00003   0.00003   0.00003
  0-1A  -> 12-1A    3.842236   30989.7   322.7    0.00000  -0.00013  -0.00002   0.00001
  0-1A  -> 13-1A    3.973253   32046.4   312.0    0.02163  -0.00888   0.24986  -0.02422
  0-1A  -> 14-1A    3.973498   32048.4   312.0   -0.02252  -0.25108  -0.00845   0.00494
  0-1A  -> 15-1A    4.116291   33200.1   301.2    0.02964   0.00001   0.00004  -0.00000
  0-1A  -> 16-1A    4.116366   33200.7   301.2   -0.03226   0.00002  -0.00001   0.00000
  0-1A  -> 17-1A    4.271461   34451.7   290.3    0.00000  -0.00021  -0.00094  -0.01202
  0-1A  -> 18-1A    4.503735   36325.1   275.3    0.00000  -0.00008  -0.00001   0.00015
  0-1A  -> 19-1A    4.701799   37922.6   263.7   -0.00000   0.00000  -0.00001  -0.00008
  0-1A  -> 20-1A    4.708040   37972.9   263.3    0.00000   0.00000   0.00000   0.00001
  0-1A  -> 21-1A    4.717933   38052.7   262.8    0.00001  -0.00000  -0.00001  -0.00004
  0-1A  -> 22-1A    4.735722   38196.2   261.8    0.00017  -0.00000  -0.00000   0.00000
  0-1A  -> 23-1A    4.784608   38590.5   259.1   -0.00075   0.01258   0.07516   0.76127
  0-1A  -> 24-1A    4.862301   39217.1   255.0   -0.00000   0.00002   0.00006  -0.00027
  0-1A  -> 25-1A    4.896181   39490.4   253.2    0.00000  -0.00002   0.00001  -0.00000
  0-1A  -> 26-1A    4.907537   39582.0   252.6   -0.00659  -0.00001   0.00002   0.00000
  0-1A  -> 27-1A    4.907698   39583.3   252.6    0.00362  -0.00000   0.00001   0.00001
  0-1A  -> 28-1A    5.011652   40421.7   247.4    0.00012   0.00000   0.00000   0.00000
  0-1A  -> 29-1A    5.150622   41542.6   240.7   -0.00000   0.00000   0.00000   0.00002
  0-1A  -> 30-1A    5.291972   42682.6   234.3    0.00000  -0.00003   0.00010  -0.00050

------------------------------------------------------------------------------------------
                     CD SPECTRUM VIA TRANSITION VELOCITY DIPOLE MOMENTS    
------------------------------------------------------------------------------------------
     Transition      Energy     Energy  Wavelength    R        MX        MY        MZ   
                      (eV)      (cm-1)    (nm)   (1e40*cgs)   (au)      (au)      (au)  
------------------------------------------------------------------------------------------
  0-1A  ->  1-1A    2.365204   19076.7   524.2   -0.00002   0.00000  -0.00000  -0.00001
  0-1A  ->  2-1A    2.365227   19076.8   524.2    0.00001  -0.00000  -0.00000  -0.00001
  0-1A  ->  3-1A    3.369011   27172.9   368.0   -0.00096  -0.00001   0.00003   0.00001
  0-1A  ->  4-1A    3.369243   27174.8   368.0    0.00071  -0.00002  -0.00001   0.00002
  0-1A  ->  5-1A    3.407015   27479.4   363.9    0.00169   0.00991   0.05910   0.59781
  0-1A  ->  6-1A    3.442094   27762.4   360.2   -0.00006   0.00009   0.00010   0.00361
  0-1A  ->  7-1A    3.478451   28055.6   356.4   -0.00000   0.00020   0.00000   0.00008
  0-1A  ->  8-1A    3.560706   28719.0   348.2   -0.00001  -0.00028  -0.00005  -0.00034
  0-1A  ->  9-1A    3.655542   29483.9   339.2    0.00004  -0.00000   0.00005   0.00001
  0-1A  -> 10-1A    3.655629   29484.6   339.2   -0.00005   0.00003   0.00000  -0.00000
  0-1A  -> 11-1A    3.678496   29669.1   337.1   -0.00000  -0.00003   0.00003   0.00003
  0-1A  -> 12-1A    3.842236   30989.7   322.7   -0.00000  -0.00013  -0.00002   0.00001
  0-1A  -> 13-1A    3.973253   32046.4   312.0   -0.00493  -0.00888   0.24986  -0.02422
  0-1A  -> 14-1A    3.973498   32048.4   312.0    0.00514  -0.25108  -0.00845   0.00494
  0-1A  -> 15-1A    4.116291   33200.1   301.2   -0.00547   0.00001   0.00004  -0.00000
  0-1A  -> 16-1A    4.116366   33200.7   301.2    0.00596   0.00002  -0.00001   0.00000
  0-1A  -> 17-1A    4.271461   34451.7   290.3   -0.00001  -0.00021  -0.00094  -0.01202
  0-1A  -> 18-1A    4.503735   36325.1   275.3   -0.00000  -0.00008  -0.00001   0.00015
  0-1A  -> 19-1A    4.701799   37922.6   263.7    0.00000   0.00000  -0.00001  -0.00008
  0-1A  -> 20-1A    4.708040   37972.9   263.3    0.00000   0.00000   0.00000   0.00001
  0-1A  -> 21-1A    4.717933   38052.7   262.8   -0.00003  -0.00000  -0.00001  -0.00004
  0-1A  -> 22-1A    4.735722   38196.2   261.8   -0.00044  -0.00000  -0.00000   0.00000
  0-1A  -> 23-1A    4.784608   38590.5   259.1    0.00246   0.01258   0.07516   0.76127
  0-1A  -> 24-1A    4.862301   39217.1   255.0   -0.00000   0.00002   0.00006  -0.00027
  0-1A  -> 25-1A    4.896181   39490.4   253.2   -0.00000  -0.00002   0.00001  -0.00000
  0-1A  -> 26-1A    4.907537   39582.0   252.6    0.00043  -0.00001   0.00002   0.00000
  0-1A  -> 27-1A    4.907698   39583.3   252.6   -0.00024  -0.00000   0.00001   0.00001
  0-1A  -> 28-1A    5.011652   40421.7   247.4    0.00001   0.00000   0.00000   0.00000
  0-1A  -> 29-1A    5.150622   41542.6   240.7    0.00000   0.00000   0.00000   0.00002
  0-1A  -> 30-1A    5.291972   42682.6   234.3   -0.00001  -0.00003   0.00010  -0.00050

Total run time:      782.907 sec

           *** ORCA-CIS/TD-DFT FINISHED WITHOUT ERROR ***
-----------------------
CIS/TD-DFT TOTAL ENERGY
-----------------------

    E(SCF)  =  -1189.150398734 Eh
    DE(CIS) =      0.086919646 Eh (Root  1)
    ----------------------------- ---------
    E(tot)  =  -1189.063479088 Eh


Maximum memory used throughout the entire CIS-calculation: 1103.3 MB
=> NOW LEAVING ORCA_CIS

-------------------------   --------------------
FINAL SINGLE POINT ENERGY     -1189.063479088003
-------------------------   --------------------



           ************************************************************
           *        Program running with 4 parallel MPI-processes     *
           *              working on a common directory               *
           ************************************************************

------------------------------------------------------------------------------
                              ORCA PROPERTY CALCULATIONS
------------------------------------------------------------------------------

GBWName                                 ... tddft.gbw
Number of atoms                         ...     37
Number of basis functions               ...    848
Max core memory                         ...   3000 MB

Electric properties:
Dipole moment                           ... YES
Quadrupole moment                       ...  NO
Static polarizability (Dipole/Dipole)   ...  NO
Static polarizability (Dipole/Quad.)    ...  NO
Static polarizability (Quad./Quad.)     ...  NO
Static polarizability (Velocity)        ...  NO
Static hyperpolarizability              ...  NO

Atomic electric properties:
Dipole moment                           ...  NO
Quadrupole moment                       ...  NO
Static polarizability                   ...  NO

Choice of electric origin               ... Center of mass
Position of electric origin             ...    -0.158818     5.090151     6.572142

General magnetic properties:
Magnetizability                         ...  NO

EPR properties:
g-Tensor (aka g-matrix)                 ...  NO
Zero-Field splitting spin-orbit         ...  NO
Zero-field splitting spin-spin          ...  NO
Hyperfine couplings                     ...  NO (   0 nuclei)
Quadrupole couplings                    ...  NO (   0 nuclei)
Contact density                         ...  NO (   0 nuclei)

NMR properties:
Chemical shifts                         ...  NO (   0 nuclei)
Spin-rotation constants                 ...  NO (   0 nuclei)
Spin-spin couplings                     ...  NO (   0 nuclei,    0 pairs)

Choice of magnetic origin               ... GIAO
Position of magnetic origin             ...     0.000000     0.000000     0.000000

Properties with geometric perturbations:
SCF Hessian                             ...  NO
IR spectrum                             ...  NO
VCD spectrum                            ...  NO
X-ray spectroscopy properties:
SCF XES/XAS/RIXS spectra                ...  NO

SCF SOC stabilization energy            ...  NO
Diagonal Born-Oppenheimer correction    ...  NO

-------------
DIPOLE MOMENT
-------------

Method             : SCF
Type of density    : Electron Density
Multiplicity       :   1
Irrep              :   0
Energy             : -1189.1503987344899542 Eh
Basis              : AO
                                X                 Y                 Z
Electronic contribution:      0.000010019      -0.000044053      -0.000462560
Nuclear contribution   :     -0.000008108       0.000042856       0.000532868
                        -----------------------------------------
Total Dipole Moment    :      0.000001911      -0.000001198       0.000070309
                        -----------------------------------------
Magnitude (a.u.)       :      0.000070345
Magnitude (Debye)      :      0.000178802



--------------------
Rotational spectrum 
--------------------
 
Rotational constants in cm-1:             0.008916             0.008916             0.004458 
Rotational constants in MHz :           267.307767           267.296540           133.651083 

Dipole components along the rotational axes: 
x,y,z [a.u.] :    -0.000008    -0.000001     0.000070 
x,y,z [Debye]:    -0.000021    -0.000002     0.000178 

 

Dipole moment calculation done in   0.0 sec 

Maximum memory used throughout the entire PROP-calculation: 86.1 MB

--------------------------------
SUGGESTED CITATIONS FOR THIS RUN
--------------------------------

Below you find a list of papers that are relevant to this ORCA run
We neither can nor want to force you to cite these papers, but we appreciate if you do
You receive ORCA, which is the product of decades of hard work by many enthusiastic individuals, for free
The only thing we kindly ask in return is that you cite our papers,
We deeply appreciate it, if you show your appreciation for ORCA by not just citing the generic ORCA reference.

Please note that relegating all ORCA citations to the supporting information does *not* help us.
SI sections are not indexed - citations you put there will not count into any citation statistics
But we need these citations in order to attract the funding resources that allow us to do what we are doing

Therefore, if you are a happy ORCA user, please consider citing a few of the papers listed below in the main body of your paper

In addition to the list printed below, the program has created the file tddft.bibtex that contains the list in bibtex format
You can import this file easily into all common literature databanks and citation aid programs

It goes without saying that in many instances, there are alternative algorithms to achieve similar
results as the ones you have gotten from ORCA. It is, of course, also the case that in some instances
ORCA just re-implements algorithms worked out by others. We are fully aware of that and we are also
fully appreciative of our colleagues work. Hence this citation list should not be read as indicating
that the listed papers, which are focused on our own work, are the only ones worth citing. It simply
meant to make it easier for users to cite ORCA specific papers. It is not a substitute for doing your
own literature research and citing the relevant literature in a scientifically appropriate manner.

List of essential papers. We consider these as the minimum necessary citations

  1. Neese, F.
     Software update: the ORCA program system, version 6.0
     WIRES Comput. Molec. Sci. 2025 15(1), e70019
     doi.org/10.1002/wcms.70019

List of papers to cite with high priority. The work reported in these papers was absolutely
necessary for this run to complete.
Our perspective: the developers of density functionals and basis sets usually get cited in chemistry papers
Good! But without the algorithms to do something with them, the functionals or basis sets would not do anything.
Hence, in our opinion, the algorithm design and method developments papers are equally worthy of getting cited

  1. Neese, F.; Olbrich, G.
     Efficient use of the resolution of the identity approximation in time-dependent density functional calculations with hybrid density functionals
     Chem. Phys. Lett. 2002 362 , 170-178
     doi.org/10.1016/s0009-2614(02)01053-9
  2. Neese, F.
     An improvement of the resolution of the identity approximation for the formation of the Coulomb matrix
     J. Comp. Chem. 2003 24(14), 1740-1747
     doi.org/10.1002/jcc.10318
  3. Neese, F.
     The SHARK Integral Generation and Digestion System
     J. Comp. Chem. 2022 44(3), 381
     doi.org/10.1002/jcc.26942

List of suggested additional citations. These are papers that are important in the 'surrounding' of 
of this run, or papers that preceded the highly important papers. If you like your results we are grateful for a citation.

  1. Neese, F.
     The ORCA program system
     WIRES Comput. Molec. Sci. 2012 2(1), 73-78
     doi.org/10.1002/wcms.81
  2. Neese, F.
     Software update: the ORCA program system, version 4.0
     WIRES Comput. Molec. Sci. 2018 8(1), 1-6
     doi.org/10.1002/wcms.1327
  3. Neese, F.; Wennmohs, F.; Becker, U.; Riplinger, C.
     The ORCA quantum chemistry program package
     J. Chem. Phys. 2020 152(22), 224108
     doi.org/10.1063/5.0004608
  4. Neese, F.
     Software update: The ORCA program system—Version 5.0
     WIRES Comput. Molec. Sci. 2022 12(1), e1606
     doi.org/10.1002/wcms.1606

List of optional additional citations

  1. Neese, F.
     Approximate second-order SCF convergence for spin unrestricted wavefunctions
     Chem. Phys. Lett. 2000 325(1-3), 93-98
     doi.org/10.1016/s0009-2614(00)00662-x

Timings for individual modules:

Sum of individual times          ...     1017.412 sec (=  16.957 min)
Startup calculation              ...        9.878 sec (=   0.165 min)   1.0 %
SCF iterations                   ...      222.764 sec (=   3.713 min)  21.9 %
Property integrals               ...        0.905 sec (=   0.015 min)   0.1 %
Property calculations            ...        0.586 sec (=   0.010 min)   0.1 %
CIS module                       ...      783.280 sec (=  13.055 min)  77.0 %
                             ****ORCA TERMINATED NORMALLY****
TOTAL RUN TIME: 0 days 0 hours 16 minutes 57 seconds 780 msec
