
                                 *****************
                                 * O   R   C   A *
                                 *****************

                                            #,                                       
                                            ###                                      
                                            ####                                     
                                            #####                                    
                                            ######                                   
                                           ########,                                 
                                     ,,################,,,,,                         
                               ,,#################################,,                 
                          ,,##########################################,,             
                       ,#########################################, ''#####,          
                    ,#############################################,,   '####,        
                  ,##################################################,,,,####,       
                ,###########''''           ''''###############################       
              ,#####''   ,,,,##########,,,,          '''####'''          '####       
            ,##' ,,,,###########################,,,                        '##       
           ' ,,###''''                  '''############,,,                           
         ,,##''                                '''############,,,,        ,,,,,,###''
      ,#''                                            '''#######################'''  
     '                                                          ''''####''''         
             ,#######,   #######,   ,#######,      ##                                
            ,#'     '#,  ##    ##  ,#'     '#,    #''#        ,####,    ,#,          
            ##       ##  ##   ,#'  ##            #'  '#       #'       ,# #          
            ##       ##  #######   ##           ,######,      #####,      #          
            '#,     ,#'  ##    ##  '#,     ,#' ,#      #,     #,   #      #          
             '#######'   ##     ##  '#######'  #'      '#     '####' #    #          



                #########################################################
                #                        -***-                          #
                #          Department of theory and spectroscopy        #
                #                                                       #
                #                      Frank Neese                      #
                #                                                       #
                #     Directorship, Architecture, Infrastructure        #
                #                    SHARK, DRIVERS                     #
                #        Core code/Algorithms in most modules           #
                #                                                       #
                #        Max Planck Institute fuer Kohlenforschung      #
                #                Kaiser Wilhelm Platz 1                 #
                #                 D-45470 Muelheim/Ruhr                 #
                #                      Germany                          #
                #                                                       #
                #                  All rights reserved                  #
                #                        -***-                          #
                #########################################################


                         Program Version 6.1.1  -  RELEASE   -
                                (GIT: $487d211c$)
                          ($2025-11-21 10:33:24 +0100$)


 With contributions from (in alphabetic order):
[Max-Planck-Institut fuer Kohlenforschung]                               
  Daniel Aravena         : Magnetic Suceptibility                        
  Michael Atanasov       : Ab Initio Ligand Field Theory (pilot matlab implementation)
  Alexander A. Auer      : GIAO ZORA, VPT2 properties, NMR spectrum      
  Ute Becker             : All parallelization in ORCA, NUMFREQ, NUMCALC 
  Giovanni Bistoni       : ED, misc. LED, open-shell LED, HFLD           
  Dmytro Bykov           : pre 5.0 version of the SCF Hessian            
  Marcos Casanova-Páez   : Triplet and SCS-CIS(D). UHF-(DLPNO)-IP/EA/STEOM-CCSD. UHF-CVS-IP/STEOM-CCSD   
  Vijay G. Chilkuri      : MRCI spin determinant printing, contributions to CSF-ICE 
  Pauline Colinet        : FMM embedding                                 
  Dipayan Datta          : RHF DLPNO-CCSD density                        
  Achintya Kumar Dutta   : EOM-CC, STEOM-CC                              
  Nicolas Foglia         : Exact transition moments, OPA infrastructure, MCD improvements    
  Dmitry Ganyushin       : Spin-Orbit,Spin-Spin,Magnetic field MRCI      
  Miquel Garcia-Rates    : C-PCM and meta-GGA Hessian, CCSD/C-PCM, Gaussian charge scheme 
  Tiago L. C. Gouveia    : GS-ROHF, GS-ROCIS                             
  Yang Guo               : DLPNO-NEVPT2, F12-NEVPT2, CIM, IAO-localization        
  Andreas Hansen         : Spin unrestricted coupled pair/coupled cluster methods 
  Ingolf Harden          : AUTO-CI MPn and infrastructure                
  Benjamin Helmich-Paris : MC-RPA, TRAH-(SCF,CASSCF), AVAS, COSX integrals, SCF dyn. polar., MC-PDFT, srDFT 
  Lee Huntington         : MR-EOM, pCC                                   
  Robert Izsak           : Overlap fitted RIJCOSX, COSX-SCS-MP3, EOM     
  Riya Kayal             : Wick's Theorem for AUTO-CI, AUTO-CI UHF-CCSDT 
  Emily Kempfer          : AUTO-CI RHF CISDT and CCSDT, approximate NEVPT4
  Christian Kollmar      : KDIIS, OOCD, Brueckner-CCSD(T), CCSD density, CASPT2, CASPT2-K, improved NEVPT2 
  Axel Koslowski         : Symmetry handling                             
  Simone Kossmann        : meta-GGA functionals, TD-DFT gradient, OOMP2, (MP2 Hessian; deprecated post 5.0) 
  Lucas Lang             : DCDCAS, Hyperfine gauge corrections, ICE-SOC+SSC
  Marvin Lechner         : AUTO-CI (C++ implementation), FIC-MRCC        
  Spencer Leger          : CASSCF response                               
  Dagmar Lenk            : GEPOL surface, SMD, ORCA-2-JSON               
  Dimitrios Liakos       : Extrapolation schemes; Compound Job, Property file
  Dimitrios Manganas     : Further ROCIS development; embedding schemes. LFT, Crystal Embedding 
  Dimitrios Pantazis     : SARC Basis sets                               
  Anastasios Papadopoulos: AUTO-CI, single reference methods and gradients 
  Taras Petrenko         : pre 6.0 DFT Hessian and TD-DFT gradient,  ECA, NRVS 
  Petra Pikulova         : Analytic Raman intensities                    
  Peter Pinski           : DLPNO-MP2, DLPNO-MP2 Gradient                 
  Shashank Vittal Rao    : ES-AILFT, MagRelax                            
  Christoph Reimann      : Effective Core Potentials                     
  Marius Retegan         : Local ZFS, SOC                                
  Christoph Riplinger    : Optimizer, TS searches, QM/MM, DLPNO-CCSD(T), (RO)-DLPNO pert. Triples 
  Michael Roemelt        : Original ROCIS implementation, recursive CI coupling coefficients
  Masaaki Saitow         : Open-shell DLPNO-CCSD energy and density      
  Barbara Sandhoefer     : DKH picture change effects                    
  Yorick L. A. Schmerwitz: GMF and freeze-and-release deltaSCF, NEB S-IDPP initial path                    
  Kantharuban Sivalingam : CASSCF convergence/infrastructure, NEVPT2, NEVPT3, NEVPT4(SD), FIC-MRCI and CEPA variants
  Bernardo de Souza      : ESD, SOC TD-DFT                               
  Georgi L. Stoychev     : AutoAux, RI-MP2 NMR, DLPNO-MP2 response, X2C  
  Van Anh Tran           : RI-MP2 g-tensors                              
  Willem Van den Heuvel  : Paramagnetic NMR                              
  Zikuan Wang            : NOTCH, Electric field optimization            
  Frank Wennmohs         : Technical directorship and infrastructure     
  Hang Xu                : AUTO-CI-Response properties                   
                                                                         
[FACCTs GmbH]                                                            
  Markus Bursch, Nicolas Foglia, Miquel Garcia-Rates, Ingolf Harden, Hagen Neugebauer, Anastasios Papadopoulos, 
  Christoph Riplinger, Bernardo de Souza, Georgi L. Stoychev                                                    
                                                                 
  APM, various basis sets, CI-OPT, improved COSX, DLPNO-Multilevel,           
  DOCKER, DRACO, updates on ESD, Fragmentator, GOAT, IRC, LR-CPCM, L-BFGS, MBIS, meta-GGA TD-DFT gradient, ML-optimized integration grids, 
  MM, NACMEs, nearIR, NEB, NEB-TS, NL-DFT gradient (VV10), 2- and 3-layer-ONIOM, interface openCOSMO-RS, QMMM,   
  Crystal-QMMM, RESP, rigid body optimization, SF, symmetry and pop. for TD-DFT, various functionals, SOLVATOR                                   
                                                                         
[Other institutions]                                                     
  V. Asgeirsson          : NEB                                           
  Christoph Bannwarth    : sTDA-DFT, sTD-DFT, PBEh-3c, B97-3c, D3        
  Giovanni Bistoni       : ETS/NOCV, ADLD/ADEX, COVALED                  
  Martin Brehm           : Molecular dynamics                            
  Ronald Cardenas        : ETS/NOCV                                      
  Martina Colucci        : COVALED                                       
  Sebastian Ehlert       : rSCAN, r2SCAN, r2SCAN-3c, D4, dhf basis sets  
  Marvin Friede          : D4 for Fr, Ra, Ac-Lr                          
  Lars Goerigk           : TD-DFT with DH, B97 family of functionals     
  Stefan Grimme          : VdW corrections, initial TS optimization, DFT functionals, gCP, sTDA/sTD-DF 
  Waldemar Hujo          : DFT-NL                                        
  H. Jonsson             : NEB                                           
  Holger Kruse           : gCP                                           
  Marcel Mueller         : wB97X-3c, vDZP basis set                      
  Hagen Neugebauer       : wr2SCAN, Native XTB                           
  Gianluca Regni         : ADLD/ADEX                                     
  Tobias Risthaus        : pre 6.0 range-separated hybrid DFT and stability analysis
  Lukas Wittmann         : regularized MP2, r2SCAN double-hybrids, wr2SCAN        
                                                                         
We gratefully acknowledge several colleagues who have allowed us to      
interface, adapt or use parts of their codes:                            
  Ed Valeev, F. Pavosevic, A. Kumar             : LibInt (2-el integral package), F12 methods 
  Garnet Chan, S. Sharma, J. Yang, R. Olivares  : DMRG                   
  Ulf Ekstrom                                   : XCFun DFT Library      
  Mihaly Kallay                                 : mrcc  (arbitrary order and MRCC methods)
  Frank Weinhold                                : gennbo (NPA and NBO analysis)           
  Simon Mueller                                 : openCOSMO-RS                            
  Christopher J. Cramer and Donald G. Truhlar   : smd solvation model                     
  S Lehtola, MJT Oliveira, MAL Marques          : LibXC Library                           
  Liviu Ungur et al                             : ANISO software                          


 Your calculation uses the libint2 library for the computation of 2-el integrals
 For citations please refer to: http://libint.valeyev.net

 Your ORCA version has been built with support for libXC version: 7.0.0
 For citations please refer to: https://libxc.gitlab.io

 This ORCA versions uses:
   CBLAS   interface :  Fast vector & matrix operations
   LAPACKE interface :  Fast linear algebra routines
   SCALAPACK package :  Parallel linear algebra routines
   Shared memory     :  Shared parallel matrices
   BLAS/LAPACK       :  OpenBLAS 0.3.29  USE64BITINT DYNAMIC_ARCH NO_AFFINITY Haswell SINGLE_THREADED
        Core in use  :  Haswell
   Copyright (c) 2011-2014, The OpenBLAS Project


  ***********************************
  * Starting time: Sun Jul  5 20:36:01 2026
  * Host name:     steezy
  * Process ID:    1294983
  * Working dir.:  /home/jannes/chlorophyll-ladder/007-mg-core-ladder/mgporphin/03_tddft_ch2cl2/wb97xd
  ***********************************

NOTE: MaxCore=3000 MB was set to SCF,MP2,MDCI,CIPSI,MRCI,RASCI and CIS
      => If you want to overwrite this, your respective input block should be placed after the MaxCore statement


***************************************
The coordinates will be read from file: /home/jannes/chlorophyll-ladder/007-mg-core-ladder/mgporphin/01_opt/mgporphin_opt_b3lypd4_tzvp.xyz
***************************************


Your calculation utilizes the atom-pairwise dispersion correction
with the zero-damping scheme (D30)


XCFun DFT library Copyright 2009-2010 Ulf Ekstrom and contributors.
See http://admol.org/xcfun for more information.
This is free software; see the source code for copying conditions.
There is ABSOLUTELY NO WARRANTY; not even for MERCHANTABILITY or FITNESS FOR A PARTICULAR PURPOSE.
For details see the documentation.
Scientific users of this library should cite U. Ekstrom, L. Visscher, R. Bast, A. J. Thorvaldsen and K. Ruud;
J.Chem.Theor.Comp. 2010, DOI: 10.1021/ct100117s
XCFun Version 0.99 

================================================================================

----- Orbital basis set information -----
Your calculation utilizes the basis: def2-TZVP
   F. Weigend and R. Ahlrichs, Phys. Chem. Chem. Phys. 7, 3297 (2005).

----- AuxJ basis set information -----
Your calculation utilizes the auxiliary basis: def2/J
   H-Rn: F. Weigend, Phys. Chem. Chem. Phys. 8, 1057 (2006).
   Fr-Lr: K. Eichkorn, F. Weigend, O. Treutler, R. Ahlrichs; Theor. Chem. Acc. 97, 119 (1997).

================================================================================
                                        WARNINGS
                       Please study these warnings very carefully!
================================================================================


WARNING: CIS/ROCIS methods need fully converged wavefunctions
  ===> : Setting SCFConvForced true
         You can overwrite this default with %scf ConvForced false 


================================================================================
                                       INPUT FILE
================================================================================
NAME = tddft.inp
|  1> %pal nprocs 4 end
|  2> %maxcore 3000
|  3> ! wB97X-D3 def2-TZVP def2/J RIJCOSX DefGrid3 TightSCF CPCM(CH2Cl2)
|  4> %tddft
|  5>   nroots 30
|  6>   tda false
|  7>   triplets false
|  8> end
|  9> * xyzfile 0 1 /home/jannes/chlorophyll-ladder/007-mg-core-ladder/mgporphin/01_opt/mgporphin_opt_b3lypd4_tzvp.xyz
| 10> 
| 11>                          ****END OF INPUT****
================================================================================

                       ****************************
                       * Single Point Calculation *
                       ****************************

---------------------------------
CARTESIAN COORDINATES (ANGSTROEM)
---------------------------------
  N     -2.126632    2.522518    3.528336
  H      1.688951   -2.244306    3.936854
  C     -4.367453    3.014298    3.517091
  C     -0.399300   -1.569210    3.904114
  N      0.091157    0.660020    3.674254
  C      0.955251   -1.456037    3.870452
  H     -0.988023   -2.467894    4.003531
  C      2.861647    1.841375    3.512926
  N     -0.259245    4.727154    3.281236
  C     -1.123334    6.843238    3.085343
  C      2.534867    0.494152    3.650974
  C      2.674027    4.023168    3.301567
  N      1.958546    2.864658    3.427339
  C      4.083452    3.721259    3.307939
  C     -0.935449   -0.237004    3.780431
  C      1.256233   -0.053833    3.726030
  C     -2.842123    1.364011    3.654087
  C     -3.029725    3.545804    3.442713
  C     -4.251542    1.665928    3.647704
  C     -2.289528    0.090486    3.770544
  C     -2.702948    4.893026    3.304662
  C      4.199367    2.372883    3.438500
  C     -1.424318    5.441018    3.229591
  C      0.231221    6.956420    3.051755
  C      2.121440    5.296697    3.185130
  C      0.767360    5.624187    3.175204
  H     -5.271397    3.601806    3.474297
  H     -5.042401    0.936910    3.732428
  H     -2.986818   -0.732582    3.863624
  H      3.363051   -0.201104    3.706153
  H      5.103317    1.785376    3.481270
  H      4.874295    4.450291    3.223211
  H      2.818737    6.119763    3.092108
  H      0.819955    7.855111    2.952489
  H     -3.531147    5.588265    3.249501
  H     -1.857042    7.631509    3.019026
  Mg    -0.084042    2.693585    3.477789

----------------------------
CARTESIAN COORDINATES (A.U.)
----------------------------
  NO LB      ZA    FRAG     MASS         X           Y           Z
   0 N     7.0000    0    14.007   -4.018753    4.766868    6.667589
   1 H     1.0000    0     1.008    3.191655   -4.241124    7.439576
   2 C     6.0000    0    12.011   -8.253290    5.696197    6.646338
   3 C     6.0000    0    12.011   -0.754567   -2.965378    7.377707
   4 N     7.0000    0    14.007    0.172263    1.247257    6.943333
   5 C     6.0000    0    12.011    1.805164   -2.751510    7.314095
   6 H     1.0000    0     1.008   -1.867093   -4.663643    7.565577
   7 C     6.0000    0    12.011    5.407728    3.479694    6.638469
   8 N     7.0000    0    14.007   -0.489901    8.933026    6.200637
   9 C     6.0000    0    12.011   -2.122794   12.931846    5.830453
  10 C     6.0000    0    12.011    4.790204    0.933812    6.899342
  11 C     6.0000    0    12.011    5.053178    7.602686    6.239058
  12 N     7.0000    0    14.007    3.701116    5.413420    6.476731
  13 C     6.0000    0    12.011    7.716607    7.032160    6.251099
  14 C     6.0000    0    12.011   -1.767742   -0.447872    7.143980
  15 C     6.0000    0    12.011    2.373936   -0.101729    7.041177
  16 C     6.0000    0    12.011   -5.370834    2.577607    6.905224
  17 C     6.0000    0    12.011   -5.725351    6.700598    6.505785
  18 C     6.0000    0    12.011   -8.034249    3.148147    6.893162
  19 C     6.0000    0    12.011   -4.326581    0.170994    7.125295
  20 C     6.0000    0    12.011   -5.107832    9.246479    6.244906
  21 C     6.0000    0    12.011    7.935654    4.484099    6.497823
  22 C     6.0000    0    12.011   -2.691571   10.282033    6.103042
  23 C     6.0000    0    12.011    0.436944   13.145729    5.766981
  24 C     6.0000    0    12.011    4.008940   10.009307    6.019023
  25 C     6.0000    0    12.011    1.450100   10.628173    6.000267
  26 H     1.0000    0     1.008   -9.961497    6.806428    6.565470
  27 H     1.0000    0     1.008   -9.528758    1.770503    7.053266
  28 H     1.0000    0     1.008   -5.644268   -1.384379    7.301191
  29 H     1.0000    0     1.008    6.355246   -0.380031    7.003613
  30 H     1.0000    0     1.008    9.643871    3.373872    6.578646
  31 H     1.0000    0     1.008    9.211083    8.409831    6.090987
  32 H     1.0000    0     1.008    5.326641   11.564676    5.843236
  33 H     1.0000    0     1.008    1.549490   14.844008    5.579396
  34 H     1.0000    0     1.008   -6.672901   10.560290    6.140667
  35 H     1.0000    0     1.008   -3.509300   14.421462    5.705132
  36 Mg   12.0000    0    24.305   -0.158817    5.090138    6.572068

--------------------------------
INTERNAL COORDINATES (ANGSTROEM)
--------------------------------
 N      0   0   0     0.000000000000     0.00000000     0.00000000
 H      1   0   0     6.119491276487     0.00000000     0.00000000
 C      1   2   0     2.294177409054   140.92453006     0.00000000
 C      2   1   3     2.194906869500    33.50915004     0.03654954
 N      4   2   1     2.294090550086    95.56469348     0.04751811
 C      2   1   3     1.078931462307     4.27284844     0.40083788
 H      4   2   1     1.078939583961   105.16341269   180.06430126
 C      5   4   2     3.016162461030   125.61516112   359.95655471
 N      1   2   6     2.899761601367   101.32570715   180.34880946
 C      9   1   2     2.294087441504   117.77531267   179.96469761
 C      8   5   4     1.393144250589    53.16437800     0.06876310
 C      8   5   4     2.200021689544   108.37491839   180.08468447
 N     12   8   5     1.367433868161    36.44673543     0.00000000
 C     12   8   5     1.441412676383    73.05033634   180.01204037
 C      5   4   2     1.367422885977    36.31868910   180.00102268
 C      5   4   2     1.367357644410    70.79572404     0.00000000
 C      1   2   6     1.367434647900    70.13306991     0.35586623
 C      1   2   6     1.367487791728   177.24111910     0.97900926
 C      3   1   2     1.359631242567    72.76301102   359.95357395
 C     17   1   2     1.393122060686   125.07310744     0.00000000
 C     18   1  17     1.393143327356   125.09478022   180.00966439
 C     14  12   8     1.359631880754   106.94820236     0.00000000
 C      9   1   2     1.367356903781    81.45605938   180.00111785
 C     10   9   1     1.359689963047    72.76177076   180.05889371
 C     12   8   5     1.393121008199   161.52060847   359.96153148
 C      9   1   2     1.367416327023   171.42924741     0.34052806
 H      3   1   2     1.078940742119   159.26701397   179.95498931
 H     19   3   1     1.078936604777   127.96204490   180.00155066
 H     20  17   1     1.082736356593   116.52889429   179.96077396
 H     11   8   5     1.082734663195   116.52549896   180.00584317
 H     22  14  12     1.078943065563   127.96985474   179.99900777
 H     14  12   8     1.078934265943   125.08876244   180.00062158
 H     25  12   8     1.082734522723   116.52871416   180.07456094
 H     24  10   9     1.078937518569   127.96698994   179.97965206
 H     21  18   1     1.082734010826   116.52436251   179.96628297
 H     10   9   1     1.078932341162   159.27697815     0.03817484
 Mg    13  12   8     2.050360529877   126.45537008   180.01043791

---------------------------
INTERNAL COORDINATES (A.U.)
---------------------------
 N      0   0   0     0.000000000000     0.00000000     0.00000000
 H      1   0   0    11.564162591480     0.00000000     0.00000000
 C      1   2   0     4.335367005742   140.92453006     0.00000000
 C      2   1   3     4.147772872818    33.50915004     0.03654954
 N      4   2   1     4.335202866080    95.56469348     0.04751811
 C      2   1   3     2.038884981031     4.27284844     0.40083788
 H      4   2   1     2.038900328733   105.16341269   180.06430126
 C      5   4   2     5.699721026761   125.61516112   359.95655471
 N      1   2   6     5.479755280244   101.32570715   180.34880946
 C      9   1   2     4.335196991710   117.77531267   179.96469761
 C      8   5   4     2.632661098659    53.16437800     0.06876310
 C      8   5   4     4.157438481924   108.37491839   180.08468447
 N     12   8   5     2.584075517072    36.44673543     0.00000000
 C     12   8   5     2.723875204326    73.05033634   180.01204037
 C      5   4   2     2.584054763752    36.31868910   180.00102268
 C      5   4   2     2.583931475058    70.79572404     0.00000000
 C      1   2   6     2.584076990566    70.13306991     0.35586623
 C      1   2   6     2.584177417846   177.24111910     0.97900926
 C      3   1   2     2.569330691574    72.76301102   359.95357395
 C     17   1   2     2.632619165820   125.07310744     0.00000000
 C     18   1  17     2.632659354002   125.09478022   180.00966439
 C     14  12   8     2.569331897574   106.94820236     0.00000000
 C      9   1   2     2.583930075473    81.45605938   180.00111785
 C     10   9   1     2.569441657201    72.76177076   180.05889371
 C     12   8   5     2.632617176909   161.52060847   359.96153148
 C      9   1   2     2.584042369125   171.42924741     0.34052806
 H      3   1   2     2.038902517335   159.26701397   179.95498931
 H     19   3   1     2.038894698891   127.96204490   180.00155066
 H     20  17   1     2.046075189201   116.52889429   179.96077396
 H     11   8   5     2.046071989142   116.52549896   180.00584317
 H     22  14  12     2.038906908008   127.96985474   179.99900777
 H     14  12   8     2.038890279135   125.08876244   180.00062158
 H     25  12   8     2.046071723688   116.52871416   180.07456094
 H     24  10   9     2.038896425708   127.96698994   179.97965206
 H     21  18   1     2.046070756344   116.52436251   179.96628297
 H     10   9   1     2.038886641826   159.27697815     0.03817484
 Mg    13  12   8     3.874619877269   126.45537008   180.01043791

---------------------
BASIS SET INFORMATION
---------------------
There are 4 groups of distinct atoms

 Group   1 Type N   : 11s6p2d1f contracted to 5s3p2d1f pattern {62111/411/11/1}
 Group   2 Type H   : 5s1p contracted to 3s1p pattern {311/1}
 Group   3 Type C   : 11s6p2d1f contracted to 5s3p2d1f pattern {62111/411/11/1}
 Group   4 Type Mg  : 14s8p3d contracted to 5s4p3d pattern {73211/5111/111}

Atom   0N    basis set group =>   1
Atom   1H    basis set group =>   2
Atom   2C    basis set group =>   3
Atom   3C    basis set group =>   3
Atom   4N    basis set group =>   1
Atom   5C    basis set group =>   3
Atom   6H    basis set group =>   2
Atom   7C    basis set group =>   3
Atom   8N    basis set group =>   1
Atom   9C    basis set group =>   3
Atom  10C    basis set group =>   3
Atom  11C    basis set group =>   3
Atom  12N    basis set group =>   1
Atom  13C    basis set group =>   3
Atom  14C    basis set group =>   3
Atom  15C    basis set group =>   3
Atom  16C    basis set group =>   3
Atom  17C    basis set group =>   3
Atom  18C    basis set group =>   3
Atom  19C    basis set group =>   3
Atom  20C    basis set group =>   3
Atom  21C    basis set group =>   3
Atom  22C    basis set group =>   3
Atom  23C    basis set group =>   3
Atom  24C    basis set group =>   3
Atom  25C    basis set group =>   3
Atom  26H    basis set group =>   2
Atom  27H    basis set group =>   2
Atom  28H    basis set group =>   2
Atom  29H    basis set group =>   2
Atom  30H    basis set group =>   2
Atom  31H    basis set group =>   2
Atom  32H    basis set group =>   2
Atom  33H    basis set group =>   2
Atom  34H    basis set group =>   2
Atom  35H    basis set group =>   2
Atom  36Mg   basis set group =>   4
---------------------------------
AUXILIARY/J BASIS SET INFORMATION
---------------------------------
There are 4 groups of distinct atoms

 Group   1 Type N   : 12s5p4d2f1g contracted to 6s4p3d1f1g pattern {711111/2111/211/2/1}
 Group   2 Type H   : 5s2p1d contracted to 3s1p1d pattern {311/2/1}
 Group   3 Type C   : 12s5p4d2f1g contracted to 6s4p3d1f1g pattern {711111/2111/211/2/1}
 Group   4 Type Mg  : 14s5p5d2f1g contracted to 8s4p4d1f1g pattern {71111111/2111/2111/2/1}

Atom   0N    basis set group =>   1
Atom   1H    basis set group =>   2
Atom   2C    basis set group =>   3
Atom   3C    basis set group =>   3
Atom   4N    basis set group =>   1
Atom   5C    basis set group =>   3
Atom   6H    basis set group =>   2
Atom   7C    basis set group =>   3
Atom   8N    basis set group =>   1
Atom   9C    basis set group =>   3
Atom  10C    basis set group =>   3
Atom  11C    basis set group =>   3
Atom  12N    basis set group =>   1
Atom  13C    basis set group =>   3
Atom  14C    basis set group =>   3
Atom  15C    basis set group =>   3
Atom  16C    basis set group =>   3
Atom  17C    basis set group =>   3
Atom  18C    basis set group =>   3
Atom  19C    basis set group =>   3
Atom  20C    basis set group =>   3
Atom  21C    basis set group =>   3
Atom  22C    basis set group =>   3
Atom  23C    basis set group =>   3
Atom  24C    basis set group =>   3
Atom  25C    basis set group =>   3
Atom  26H    basis set group =>   2
Atom  27H    basis set group =>   2
Atom  28H    basis set group =>   2
Atom  29H    basis set group =>   2
Atom  30H    basis set group =>   2
Atom  31H    basis set group =>   2
Atom  32H    basis set group =>   2
Atom  33H    basis set group =>   2
Atom  34H    basis set group =>   2
Atom  35H    basis set group =>   2
Atom  36Mg   basis set group =>   4


           ************************************************************
           *        Program running with 4 parallel MPI-processes     *
           *              working on a common directory               *
           ************************************************************
------------------------------------------------------------------------------
                             ORCA STARTUP CALCULATIONS
                           -- RI-GTO INTEGRALS CHOSEN --
------------------------------------------------------------------------------
------------------------------------------------------------------------------
                   ___                                                        
                  /   \      - P O W E R E D   B Y -                         
                 /     \                                                     
                 |  |  |   _    _      __       _____    __    __             
                 |  |  |  | |  | |    /  \     |  _  \  |  |  /  |          
                  \  \/   | |  | |   /    \    | | | |  |  | /  /          
                 / \  \   | |__| |  /  /\  \   | |_| |  |  |/  /          
                |  |  |   |  __  | /  /__\  \  |    /   |      \           
                |  |  |   | |  | | |   __   |  |    \   |  |\   \          
                \     /   | |  | | |  |  |  |  | |\  \  |  | \   \       
                 \___/    |_|  |_| |__|  |__|  |_| \__\ |__|  \__/        
                                                                              
                      - O R C A' S   B I G   F R I E N D -                    
                                      &                                       
                       - I N T E G R A L  F E E D E R -                       
                                                                              
 v1 FN, 2020, v2 2021, v3 2022-2024                                           
------------------------------------------------------------------------------


----------------------
SHARK INTEGRAL PACKAGE
----------------------

Number of atoms                             ...     37
Number of basis functions                   ...    848
Number of shells                            ...    324
Maximum angular momentum                    ...      3
Integral batch strategy                     ... SHARK/LIBINT Hybrid
RI-J (if used) integral strategy            ... SPLIT-RIJ (Revised 2003 algorithm where possible)
Printlevel                                  ...      1
Contraction scheme used                     ... SEGMENTED contraction
Prescreening option                         ... SCHWARTZ
   Thresh                                   ... 2.500e-11
   Tcut                                     ... 2.500e-12
   Tpresel                                  ... 2.500e-12 
Coulomb Range Separation                    ... NOT USED
Exchange Range Separation                   ... Long Range
   Mu parameter                             ... 2.500e-01
   Scaling (regular/separated)              ... 1.957e-01 8.043e-01
Robust (split-)RI terms used:
  metric    (central integrals)             ... YES
  density   (r.h.s.  integrals)             ... YES
  potential (l.h.s.  integrals)             ... YES
Multipole approximations                    ... NOT USED
Finite Nucleus Model                        ... NOT USED
CABS basis                                  ... NOT available
Auxiliary Coulomb fitting basis             ... AVAILABLE
   # of basis functions in Aux-J            ...   1364
   # of shells in Aux-J                     ...    438
   Maximum angular momentum in Aux-J        ...      4
Auxiliary J/K fitting basis                 ... NOT available
Auxiliary Correlation fitting basis         ... NOT available
Auxiliary 'external' fitting basis          ... NOT available

Checking pre-screening integrals            ... done (  0.0 sec) Dimension = 324
   => SHARK Basis and OBASIS are compatible. Storing Pre-screening
Shell pair information
Shell pair cut-off parameter TPreSel        ...   2.5e-12
Total number of shell pairs                 ...     52650
Shell pairs after pre-screening             ...     37452
Total number of primitive shell pairs       ...    167352
Primitive shell pairs kept                  ...     77858
          la=0 lb=0:   8711 shell pairs
          la=1 lb=0:  10604 shell pairs
          la=1 lb=1:   3186 shell pairs
          la=2 lb=0:   5583 shell pairs
          la=2 lb=1:   3500 shell pairs
          la=2 lb=2:    986 shell pairs
          la=3 lb=0:   2388 shell pairs
          la=3 lb=1:   1536 shell pairs
          la=3 lb=2:    788 shell pairs
          la=3 lb=3:    170 shell pairs

Checking whether 4 symmetric matrices of dimension 848 fit in memory
:Max Core in MB      =   3000.00
 MB in use           =     49.24
 MB left             =   2950.76
 MB needed           =     10.99
 Data fit in memory  = YES
Calculating RI/J V-Matrix + Cholesky decomp.... done (  0.2 sec)
Calculating Nuclear repulsion               ... done (  0.0 sec) ENN=   2121.711186967779 Eh

Diagonalization of the overlap matrix:
Smallest eigenvalue                        ... 1.003e-05
Time for diagonalization                   ...    0.192 sec
Threshold for overlap eigenvalues          ... 1.000e-07
Number of eigenvalues below threshold      ... 0
Time for construction of square roots      ...    0.104 sec
Total time needed                          ...    0.303 sec

-------------------
DFT GRID GENERATION
-------------------

General Integration Accuracy     IntAcc      ... 4.959
Radial Grid Type                 RadialGrid  ... OptM3 with GC (2021)
Angular Grid (max. ang.)         AngularGrid ... 6 (Lebedev-590)
Angular grid pruning method      GridPruning ... 4 (adaptive)
Weight generation scheme         WeightScheme... mBecke (2022)
Basis function cutoff            BFCut       ... 1.0000e-11
Integration weight cutoff        WCut        ... 1.0000e-14
Partially contracted basis set               ... off
Rotationally invariant grid construction     ... off
Angular grids for H and He will be reduced by one unit

Total number of grid points                  ...   456655
Total number of batches                      ...     7152
Average number of points per batch           ...       63
Average number of grid points per atom       ...    12342

--------------------
COSX GRID GENERATION
--------------------

GRIDX 1
-------
General Integration Accuracy     IntAcc      ... 4.020
Radial Grid Type                 RadialGrid  ... OptM3 with GC (2021)
Angular Grid (max. ang.)         AngularGrid ... 2 (Lebedev-110)
Angular grid pruning method      GridPruning ... 4 (adaptive)
Weight generation scheme         WeightScheme... mBecke (2022)
Basis function cutoff            BFCut       ... 1.0000e-11
Integration weight cutoff        WCut        ... 1.0000e-14
Partially contracted basis set               ... on
Rotationally invariant grid construction     ... off
Angular grids for H and He will be reduced by one unit

Total number of grid points                  ...    52690
Total number of batches                      ...      428
Average number of points per batch           ...      123
Average number of grid points per atom       ...     1424
UseSFitting                                  ... on

GRIDX 2
-------
General Integration Accuracy     IntAcc      ... 4.338
Radial Grid Type                 RadialGrid  ... OptM3 with GC (2021)
Angular Grid (max. ang.)         AngularGrid ... 3 (Lebedev-194)
Angular grid pruning method      GridPruning ... 4 (adaptive)
Weight generation scheme         WeightScheme... mBecke (2022)
Basis function cutoff            BFCut       ... 1.0000e-11
Integration weight cutoff        WCut        ... 1.0000e-14
Partially contracted basis set               ... on
Rotationally invariant grid construction     ... off
Angular grids for H and He will be reduced by one unit

Total number of grid points                  ...   116101
Total number of batches                      ...      923
Average number of points per batch           ...      125
Average number of grid points per atom       ...     3138
UseSFitting                                  ... on

GRIDX 3
-------
General Integration Accuracy     IntAcc      ... 4.871
Radial Grid Type                 RadialGrid  ... OptM3 with GC (2021)
Angular Grid (max. ang.)         AngularGrid ... 4 (Lebedev-302)
Angular grid pruning method      GridPruning ... 4 (adaptive)
Weight generation scheme         WeightScheme... mBecke (2022)
Basis function cutoff            BFCut       ... 1.0000e-11
Integration weight cutoff        WCut        ... 1.0000e-14
Partially contracted basis set               ... on
Rotationally invariant grid construction     ... off
Angular grids for H and He will be reduced by one unit

Total number of grid points                  ...   212436
Total number of batches                      ...     1675
Average number of points per batch           ...      126
Average number of grid points per atom       ...     5742
UseSFitting                                  ... on
Grids setup in  14.3 sec
Initializing property integral containers    ... done (  0.0 sec)

SHARK setup successfully completed in  15.6 seconds

Maximum memory used throughout the entire STARTUP-calculation: 148.4 MB


           ************************************************************
           *        Program running with 4 parallel MPI-processes     *
           *              working on a common directory               *
           ************************************************************
-------------------------------------------------------------------------------
                                 ORCA GUESS
                   Start orbitals & Density for SCF / CASSCF
-------------------------------------------------------------------------------

------------
SCF SETTINGS
------------
Hamiltonian:
 Density Functional     Method          .... DFT(GTOs)
 Exchange Functional    Exchange        .... WB97X-D3
 Correlation Functional Correlation     .... WB97X-D3
 Gradients option       PostSCFGGA      .... off
 Hybrid DFT is turned on
   Fraction HF Exchange ScalHFX         ....  0.195728
   Scaling of DF-GGA-X  ScalDFX         ....  0.000000
   Scaling of DF-GGA-C  ScalDFC         ....  1.000000
   Scaling of DF-LDA-C  ScalLDAC        ....  1.000000
   Perturbative correction              ....  0.000000
 Long-range corrected/Screened/Range-Separated Hybrid DFT is turned on
   Amount of maximum screened exact exchange              ....  0.804272
   Range separation parameter mu (erf(mu*r12)/r12)        ....  0.250000
 RI-approximation to the Coulomb term is turned on
   Number of AuxJ basis functions       .... 1364
   RIJ-COSX (HFX calculated with COS-X)).... on


General Settings:
 Integral files         IntName         .... tddft
 Hartree-Fock type      HFTyp           .... RHF
 Total Charge           Charge          ....    0
 Multiplicity           Mult            ....    1
 Number of Electrons    NEL             ....  172
 Basis Dimension        Dim             ....  848
 Nuclear Repulsion      ENuc            ....   2121.7111869678 Eh

Convergence Acceleration:
 AO-DIIS                CNVDIIS         .... on
   Start iteration      DIISMaxIt       ....    12
   Startup error        DIISStart       ....  0.200000
   # of expansion vecs  DIISMaxEq       ....     5
   Bias factor          DIISBfac        ....   1.050
   Max. coefficient     DIISMaxC        ....  10.000
 MO-DIIS                CNVKDIIS        .... off
 Trust-Rad. Augm. Hess. CNVTRAH         .... auto
   Auto Start mean grad. ratio tolernc. ....  1.125000
   Auto Start start iteration           ....    50
   Auto Start num. interpolation iter.  ....    10
   Max. Number of Micro iterations      ....    24
   Max. Number of Macro iterations      .... Maxiter - #DIIS iter
   Number of Davidson start vectors     ....     2
   Converg. threshold    (grad. norm)   ....   1.000e-05
   Grad. Scal. Fac. for Micro threshold ....   0.100
   Minimum threshold for Micro iter.    ....   1.000e-02
   NR start threshold (gradient norm)   ....   1.000e-04
   Initial trust radius                 ....   0.400
   Minimum AH scaling param. (alpha)    ....   1.000
   Maximum AH scaling param. (alpha)    .... 1000.000
   Quad. conv. algorithm                .... NR
   White noise on init. David. guess    .... on
   Maximum white noise                  ....   0.010
   Pseudo random numbers                .... off
   Inactive MOs                         .... canonical
   Orbital update algorithm             .... Taylor
   Preconditioner                       .... Diag
   Full preconditioner red. dimension   ....   250
 SOSCF                 CNVSOSCF           .... on
   Start iteration     SOSCFMaxIt         ....   150
   Startup grad/error  SOSCFStart         ....  0.003300
   Hessian update      SOSCFHessUp        .... L-BFGS
   Autom. constraints  SOSCFAutoConstrain .... off
 Level Shifting         CNVShift        .... on
   Level shift para.    LevelShift      ....    0.2500
   Turn off err/grad.   ShiftErr        ....    0.0010
 Zerner damping         CNVZerner       .... off
 Static damping         CNVDamp         .... on
   Fraction old density DampFac         ....    0.7000
   Max. Damping (<1)    DampMax         ....    0.9800
   Min. Damping (>=0)   DampMin         ....    0.0000
   Turn off err/grad.   DampErr         ....    0.1000

SCF Procedure:
 Maximum # iterations   MaxIter         ....   125
 SCF integral mode      SCFMode         .... Direct
   Integral package                     .... SHARK and LIBINT hybrid scheme
 Reset frequency        DirectResetFreq ....    20
 Integral Threshold     Thresh          ....  2.500e-11 Eh
 Primitive CutOff       TCut            ....  2.500e-12 Eh

Convergence Tolerance:
 Convergence Check Mode ConvCheckMode   .... Total+1el-Energy
 Convergence forced     ConvForced      .... 1
 Energy Change          TolE            ....  1.000e-08 Eh
 1-El. energy change                    ....  1.000e-05 Eh
 Orbital Gradient       TolG            ....  1.000e-05
 Orbital Rotation angle TolX            ....  1.000e-05
 DIIS Error             TolErr          ....  5.000e-07

------------------------------
INITIAL GUESS: MODEL POTENTIAL
------------------------------
Loading Hartree-Fock densities                     ... done
Calculating cut-offs                               ... done
Initializing the effective Hamiltonian             ... done
Setting up the integral package (SHARK)            ... done
Starting the Coulomb interaction                   ... done (   1.6 sec)
Making the grid                                    ... done (   0.6 sec)
Mapping shells                                     ... done
Starting the XC term evaluation                    ... done (   0.9 sec)
  promolecular density results
     # of electrons  =    171.995110955
     EX              =   -148.115499445
     EC              =     -5.855479608
     EX+EC           =   -153.970979052
Transforming the Hamiltonian                       ... done (   0.1 sec)
Diagonalizing the Hamiltonian                      ... done (   0.2 sec)
Back transforming the eigenvectors                 ... done (   0.1 sec)
Now organizing SCF variables                       ... done
                      ------------------
                      INITIAL GUESS DONE (   3.5 sec)
                      ------------------
             **** ENERGY FILE WAS UPDATED (tddft.en.tmp) ****
Finished Guess after   3.9 sec
Maximum memory used throughout the entire GUESS-calculation: 83.5 MB


           ************************************************************
           *        Program running with 4 parallel MPI-processes     *
           *              working on a common directory               *
           ************************************************************

-------------------------------------------------------------------------------------------
                                      ORCA LEAN-SCF
                              memory conserving SCF solver
-------------------------------------------------------------------------------------------

--------------------
CPCM SOLVATION MODEL
--------------------
CPCM parameters:
  Epsilon                                         ...       8.9990
  Refrac                                          ...       1.4242
  Rsolv                                           ...       1.3000
  Surface type                                    ... GAUSSIAN VDW
  Discretization scheme                           ... Constant charge density
    Threshold for H atoms                         ...       5.0000 (charges/Ang^2)
    Threshold for non-H atoms                     ...       5.0000 (charges/Ang^2)
  Epsilon function type                           ...         CPCM
Solvent:                                          ... DICHLOROMETHANE
Radii:
  Scheme                                          ... Element-dependent radii
  Radius for N  used is    3.5149 Bohr (=   1.8600 Ang.)
  Radius for H  used is    2.4944 Bohr (=   1.3200 Ang.)
  Radius for C  used is    3.8550 Bohr (=   2.0400 Ang.)
  Radius for Mg used is    3.9231 Bohr (=   2.0760 Ang.)
Calculating surface                               ...        done! (  0.0s)
Cavity surface points                             ...         3494
Cavity Volume                                     ...    2478.6237
Cavity Surface-area                               ...    1177.4362
Calculating surface distance matrix               ...        done! (  0.3s)
Performing Cholesky decomposition & store         ...        done! (  0.8s)
Overall time for CPCM initialization              ...                 1.0s

----------------------------------------D-I-I-S--------------------------------------------
Iteration    Energy (Eh)           Delta-E    RMSDP     MaxDP     DIISErr   Damp  Time(sec)
-------------------------------------------------------------------------------------------
               ***  Starting incremental Fock matrix formation  ***
    1    -1188.1144935145930503     0.00e+00  1.65e-03  3.50e-02  2.16e-01  0.700 142.4
    2    -1188.3128408440575186    -1.98e-01  1.37e-03  2.59e-02  1.19e-01  0.700  63.2
                               ***Turning on AO-DIIS***
    3    -1188.4184065053023005    -1.06e-01  8.99e-04  2.01e-02  5.52e-02  0.700  61.7
    4    -1188.4823381555747801    -6.39e-02  1.99e-03  4.28e-02  3.87e-02  0.000  72.4
    5    -1188.6199921494780938    -1.38e-01  2.21e-04  6.37e-03  3.95e-03  0.000  75.7
                              *** Initializing SOSCF ***
---------------------------------------S-O-S-C-F--------------------------------------
Iteration    Energy (Eh)           Delta-E    RMSDP     MaxDP     MaxGrad    Time(sec)
--------------------------------------------------------------------------------------
    6    -1188.6204074340789703    -4.15e-04  9.98e-05  2.94e-03  2.28e-03    54.0
               *** Restarting incremental Fock matrix formation ***
    7    -1188.6204849569958242    -7.75e-05  8.54e-05  2.68e-03  7.37e-04   175.6
    8    -1188.6205130575990552    -2.81e-05  4.82e-05  1.15e-03  3.39e-04   129.0
    9    -1188.6205190011528430    -5.94e-06  8.34e-06  2.93e-04  1.07e-04   103.5
   10    -1188.6205192990696560    -2.98e-07  5.95e-06  1.18e-04  6.38e-05   104.7
   11    -1188.6205194716794722    -1.73e-07  5.92e-06  1.21e-04  1.02e-05    92.7
   12    -1188.6205195075513075    -3.59e-08  4.42e-06  1.22e-04  7.97e-06    90.6
   13    -1188.6205195115112474    -3.96e-09  7.36e-06  2.14e-04  1.59e-06    84.8
                 **** Energy Check signals convergence ****

               *****************************************************
               *                     SUCCESS                       *
               *           SCF CONVERGED AFTER  13 CYCLES          *
               *****************************************************

Recomputing exchange energy using gridx3       ... done (  299.903 sec)
Old exchange energy                            :    -47.917359628 Eh
New exchange energy                            :    -47.917362136 Eh
Exchange energy change after final integration :     -0.000002508 Eh
Total energy after final integration           :  -1188.620522018 Eh
             **** ENERGY FILE WAS UPDATED (tddft.en.tmp) ****

----------------
TOTAL SCF ENERGY
----------------

Total Energy       :      -1188.62052201774713 Eh          -32344.00874 eV

Components:
Nuclear Repulsion  :       2121.71118696777876 Eh           57734.69657 eV
Electronic Energy  :      -3310.31624922339324 Eh          -90078.28463 eV
One Electron Energy:      -5839.50881603204016 Eh         -158901.11326 eV
Two Electron Energy:       2529.19256680864692 Eh           68822.82863 eV
CPCM Dielectric    :         -0.01545725387557 Eh              -0.42061 eV

Virial components:
Potential Energy   :      -2372.10277896507341 Eh          -64548.19818 eV
Kinetic Energy     :       1183.48225694732650 Eh           32204.18944 eV
Virial Ratio       :          2.00434164943349

DFT components:
N(Alpha)           :       86.000002310103 electrons
N(Beta)            :       86.000002310103 electrons
N(Total)           :      172.000004620207 electrons
E(XC)              :     -109.394489012593 Eh       

CPCM Solvation Model Properties:
Surface-charge          :         -0.03577045679019
Corrected charge        :          0.00000000000000
Outlying charge corr.   :          0.00006113395248 Eh               0.00166 eV
Free-energy (cav+disp)  :  This term is not implemented in the current solvation scheme

---------------
SCF CONVERGENCE
---------------

  Last Energy change         ...    3.9599e-09  Tolerance :   1.0000e-08
  Last MAX-Density change    ...    2.1444e-04  Tolerance :   1.0000e-07
  Last RMS-Density change    ...    7.3594e-06  Tolerance :   5.0000e-09
  Last DIIS Error            ...    2.2772e-03  Tolerance :   5.0000e-07
  Last Orbital Gradient      ...    1.5920e-06  Tolerance :   1.0000e-05
  Last Orbital Rotation      ...    1.9130e-06  Tolerance :   1.0000e-05


----------------
ORBITAL ENERGIES
----------------

  NO   OCC          E(Eh)            E(eV) 
   0   2.0000     -46.850568     -1274.8688 
   1   2.0000     -14.412466      -392.1831 
   2   2.0000     -14.412460      -392.1830 
   3   2.0000     -14.412459      -392.1829 
   4   2.0000     -14.412454      -392.1828 
   5   2.0000     -10.316171      -280.7173 
   6   2.0000     -10.316167      -280.7172 
   7   2.0000     -10.316163      -280.7171 
   8   2.0000     -10.316161      -280.7170 
   9   2.0000     -10.316129      -280.7161 
  10   2.0000     -10.316128      -280.7161 
  11   2.0000     -10.316123      -280.7160 
  12   2.0000     -10.316122      -280.7160 
  13   2.0000     -10.289852      -280.0011 
  14   2.0000     -10.289848      -280.0010 
  15   2.0000     -10.289847      -280.0010 
  16   2.0000     -10.289842      -280.0008 
  17   2.0000     -10.281576      -279.7759 
  18   2.0000     -10.281574      -279.7758 
  19   2.0000     -10.281573      -279.7758 
  20   2.0000     -10.281570      -279.7757 
  21   2.0000     -10.280841      -279.7559 
  22   2.0000     -10.280839      -279.7559 
  23   2.0000     -10.280838      -279.7558 
  24   2.0000     -10.280838      -279.7558 
  25   2.0000      -3.160909       -86.0127 
  26   2.0000      -1.898959       -51.6733 
  27   2.0000      -1.893304       -51.5194 
  28   2.0000      -1.893302       -51.5194 
  29   2.0000      -1.085514       -29.5383 
  30   2.0000      -1.076684       -29.2980 
  31   2.0000      -1.076661       -29.2974 
  32   2.0000      -1.066907       -29.0320 
  33   2.0000      -0.936462       -25.4824 
  34   2.0000      -0.909019       -24.7357 
  35   2.0000      -0.909018       -24.7356 
  36   2.0000      -0.889024       -24.1916 
  37   2.0000      -0.882918       -24.0254 
  38   2.0000      -0.882906       -24.0251 
  39   2.0000      -0.878917       -23.9165 
  40   2.0000      -0.856759       -23.3136 
  41   2.0000      -0.832787       -22.6613 
  42   2.0000      -0.768009       -20.8986 
  43   2.0000      -0.768001       -20.8984 
  44   2.0000      -0.706539       -19.2259 
  45   2.0000      -0.685446       -18.6519 
  46   2.0000      -0.680438       -18.5156 
  47   2.0000      -0.680428       -18.5154 
  48   2.0000      -0.676791       -18.4164 
  49   2.0000      -0.655028       -17.8242 
  50   2.0000      -0.647307       -17.6141 
  51   2.0000      -0.628577       -17.1045 
  52   2.0000      -0.628568       -17.1042 
  53   2.0000      -0.614672       -16.7261 
  54   2.0000      -0.599633       -16.3168 
  55   2.0000      -0.599630       -16.3168 
  56   2.0000      -0.546425       -14.8690 
  57   2.0000      -0.541179       -14.7262 
  58   2.0000      -0.534151       -14.5350 
  59   2.0000      -0.525144       -14.2899 
  60   2.0000      -0.525137       -14.2897 
  61   2.0000      -0.521849       -14.2002 
  62   2.0000      -0.521833       -14.1998 
  63   2.0000      -0.519456       -14.1351 
  64   2.0000      -0.507381       -13.8065 
  65   2.0000      -0.500070       -13.6076 
  66   2.0000      -0.485532       -13.2120 
  67   2.0000      -0.485517       -13.2116 
  68   2.0000      -0.479979       -13.0609 
  69   2.0000      -0.469744       -12.7824 
  70   2.0000      -0.469735       -12.7821 
  71   2.0000      -0.464879       -12.6500 
  72   2.0000      -0.463690       -12.6176 
  73   2.0000      -0.461072       -12.5464 
  74   2.0000      -0.428984       -11.6733 
  75   2.0000      -0.411423       -11.1954 
  76   2.0000      -0.411405       -11.1949 
  77   2.0000      -0.380718       -10.3599 
  78   2.0000      -0.376382       -10.2419 
  79   2.0000      -0.376380       -10.2418 
  80   2.0000      -0.357105        -9.7173 
  81   2.0000      -0.344550        -9.3757 
  82   2.0000      -0.344540        -9.3754 
  83   2.0000      -0.340075        -9.2539 
  84   2.0000      -0.261030        -7.1030 
  85   2.0000      -0.258981        -7.0472 
  86   0.0000      -0.040477        -1.1014 
  87   0.0000      -0.040463        -1.1010 
  88   0.0000       0.044460         1.2098 
  89   0.0000       0.071482         1.9451 
  90   0.0000       0.105832         2.8798 
  91   0.0000       0.119162         3.2426 
  92   0.0000       0.130079         3.5396 
  93   0.0000       0.130090         3.5399 
  94   0.0000       0.142385         3.8745 
  95   0.0000       0.142391         3.8747 
  96   0.0000       0.145087         3.9480 
*Only the first 10 virtual orbitals were printed.

                    ********************************
                    * MULLIKEN POPULATION ANALYSIS *
                    ********************************

-----------------------
MULLIKEN ATOMIC CHARGES
-----------------------
   0 N :   -0.411976
   1 H :    0.163183
   2 C :   -0.232527
   3 C :   -0.232660
   4 N :   -0.412197
   5 C :   -0.232519
   6 H :    0.163204
   7 C :    0.279708
   8 N :   -0.412210
   9 C :   -0.232488
  10 C :   -0.374033
  11 C :    0.279712
  12 N :   -0.411946
  13 C :   -0.232709
  14 C :    0.279250
  15 C :    0.280316
  16 C :    0.279707
  17 C :    0.279655
  18 C :   -0.232719
  19 C :   -0.373492
  20 C :   -0.373895
  21 C :   -0.232533
  22 C :    0.280152
  23 C :   -0.232691
  24 C :   -0.373555
  25 C :    0.279373
  26 H :    0.163198
  27 H :    0.163223
  28 H :    0.167551
  29 H :    0.167577
  30 H :    0.163200
  31 H :    0.163218
  32 H :    0.167560
  33 H :    0.163184
  34 H :    0.167581
  35 H :    0.163216
  36 Mg:    0.790379
Sum of atomic charges:    0.0000000

--------------------------------
MULLIKEN REDUCED ORBITAL CHARGES
--------------------------------
  0 N s       :     3.658011  s :     3.658011
      pz      :     1.368246  p :     3.690054
      px      :     1.277743
      py      :     1.044065
      dz2     :     0.004924  d :     0.060272
      dxz     :     0.005821
      dyz     :     0.013651
      dx2y2   :     0.016807
      dxy     :     0.019069
      f0      :     0.000663  f :     0.003639
      f+1     :     0.000321
      f-1     :     0.000437
      f+2     :     0.000108
      f-2     :     0.000589
      f+3     :     0.000600
      f-3     :     0.000920

  1 H s       :     0.814914  s :     0.814914
      pz      :     0.004530  p :     0.021902
      px      :     0.008186
      py      :     0.009186

  2 C s       :     3.277881  s :     3.277881
      pz      :     0.989443  p :     2.863342
      px      :     0.921099
      py      :     0.952801
      dz2     :     0.005330  d :     0.083550
      dxz     :     0.009534
      dyz     :     0.019756
      dx2y2   :     0.018145
      dxy     :     0.030784
      f0      :     0.001477  f :     0.007754
      f+1     :     0.000775
      f-1     :     0.000653
      f+2     :     0.000931
      f-2     :     0.000428
      f+3     :     0.002297
      f-3     :     0.001192

  3 C s       :     3.277824  s :     3.277824
      pz      :     0.989243  p :     2.863538
      px      :     0.952454
      py      :     0.921841
      dz2     :     0.004880  d :     0.083545
      dxz     :     0.020399
      dyz     :     0.009384
      dx2y2   :     0.018057
      dxy     :     0.030825
      f0      :     0.001519  f :     0.007754
      f+1     :     0.000556
      f-1     :     0.000793
      f+2     :     0.000986
      f-2     :     0.000422
      f+3     :     0.001167
      f-3     :     0.002312

  4 N s       :     3.658442  s :     3.658442
      pz      :     1.370237  p :     3.689832
      px      :     1.040993
      py      :     1.278602
      dz2     :     0.004753  d :     0.060284
      dxz     :     0.013882
      dyz     :     0.005727
      dx2y2   :     0.016772
      dxy     :     0.019150
      f0      :     0.000668  f :     0.003640
      f+1     :     0.000424
      f-1     :     0.000328
      f+2     :     0.000104
      f-2     :     0.000586
      f+3     :     0.000929
      f-3     :     0.000601

  5 C s       :     3.277969  s :     3.277969
      pz      :     0.989128  p :     2.863247
      px      :     0.959523
      py      :     0.914596
      dz2     :     0.005108  d :     0.083549
      dxz     :     0.018144
      dyz     :     0.011377
      dx2y2   :     0.019392
      dxy     :     0.029527
      f0      :     0.001508  f :     0.007754
      f+1     :     0.000600
      f-1     :     0.000770
      f+2     :     0.001252
      f-2     :     0.000139
      f+3     :     0.001350
      f-3     :     0.002134

  6 H s       :     0.814892  s :     0.814892
      pz      :     0.004579  p :     0.021904
      px      :     0.006482
      py      :     0.010843

  7 C s       :     3.098018  s :     3.098018
      pz      :     0.915460  p :     2.451454
      px      :     0.786261
      py      :     0.749733
      dz2     :     0.003909  d :     0.156322
      dxz     :     0.029504
      dyz     :     0.036166
      dx2y2   :     0.045912
      dxy     :     0.040831
      f0      :     0.002183  f :     0.014497
      f+1     :     0.000932
      f-1     :     0.001110
      f+2     :     0.000691
      f-2     :     0.002304
      f+3     :     0.003495
      f-3     :     0.003783

  8 N s       :     3.658443  s :     3.658443
      pz      :     1.370231  p :     3.689843
      px      :     1.040991
      py      :     1.278621
      dz2     :     0.004753  d :     0.060284
      dxz     :     0.013882
      dyz     :     0.005727
      dx2y2   :     0.016773
      dxy     :     0.019149
      f0      :     0.000668  f :     0.003640
      f+1     :     0.000424
      f-1     :     0.000328
      f+2     :     0.000104
      f-2     :     0.000586
      f+3     :     0.000929
      f-3     :     0.000601

  9 C s       :     3.277724  s :     3.277724
      pz      :     0.989134  p :     2.863459
      px      :     0.959591
      py      :     0.914734
      dz2     :     0.005106  d :     0.083551
      dxz     :     0.018144
      dyz     :     0.011377
      dx2y2   :     0.019393
      dxy     :     0.029530
      f0      :     0.001508  f :     0.007754
      f+1     :     0.000600
      f-1     :     0.000770
      f+2     :     0.001252
      f-2     :     0.000139
      f+3     :     0.001350
      f-3     :     0.002134

 10 C s       :     3.328669  s :     3.328669
      pz      :     1.005674  p :     2.961432
      px      :     0.987011
      py      :     0.968747
      dz2     :     0.003194  d :     0.076687
      dxz     :     0.013621
      dyz     :     0.017165
      dx2y2   :     0.009622
      dxy     :     0.033084
      f0      :     0.001410  f :     0.007245
      f+1     :     0.000653
      f-1     :     0.000720
      f+2     :     0.000772
      f-2     :     0.000463
      f+3     :     0.001900
      f-3     :     0.001326

 11 C s       :     3.098842  s :     3.098842
      pz      :     0.915160  p :     2.450728
      px      :     0.795430
      py      :     0.740137
      dz2     :     0.004053  d :     0.156223
      dxz     :     0.028356
      dyz     :     0.037234
      dx2y2   :     0.046174
      dxy     :     0.040405
      f0      :     0.002181  f :     0.014495
      f+1     :     0.000881
      f-1     :     0.001164
      f+2     :     0.001115
      f-2     :     0.001883
      f+3     :     0.002223
      f-3     :     0.005048

 12 N s       :     3.658003  s :     3.658003
      pz      :     1.368249  p :     3.690030
      px      :     1.277743
      py      :     1.044038
      dz2     :     0.004924  d :     0.060273
      dxz     :     0.005821
      dyz     :     0.013651
      dx2y2   :     0.016807
      dxy     :     0.019070
      f0      :     0.000663  f :     0.003639
      f+1     :     0.000321
      f-1     :     0.000437
      f+2     :     0.000108
      f-2     :     0.000589
      f+3     :     0.000600
      f-3     :     0.000920

 13 C s       :     3.277881  s :     3.277881
      pz      :     0.989674  p :     2.863525
      px      :     0.913973
      py      :     0.959877
      dz2     :     0.005120  d :     0.083549
      dxz     :     0.011729
      dyz     :     0.017809
      dx2y2   :     0.019496
      dxy     :     0.029396
      f0      :     0.001489  f :     0.007754
      f+1     :     0.000706
      f-1     :     0.000703
      f+2     :     0.001219
      f-2     :     0.000155
      f+3     :     0.002113
      f-3     :     0.001369

 14 C s       :     3.098219  s :     3.098219
      pz      :     0.915610  p :     2.451713
      px      :     0.748090
      py      :     0.788013
      dz2     :     0.003671  d :     0.156321
      dxz     :     0.037160
      dyz     :     0.028880
      dx2y2   :     0.045688
      dxy     :     0.040922
      f0      :     0.002211  f :     0.014498
      f+1     :     0.001055
      f-1     :     0.000948
      f+2     :     0.000717
      f-2     :     0.002269
      f+3     :     0.003808
      f-3     :     0.003490

 15 C s       :     3.098606  s :     3.098606
      pz      :     0.915865  p :     2.450338
      px      :     0.738547
      py      :     0.795926
      dz2     :     0.003636  d :     0.156243
      dxz     :     0.038298
      dyz     :     0.027822
      dx2y2   :     0.046020
      dxy     :     0.040466
      f0      :     0.002214  f :     0.014497
      f+1     :     0.001076
      f-1     :     0.000921
      f+2     :     0.001079
      f-2     :     0.001903
      f+3     :     0.005079
      f-3     :     0.002224

 16 C s       :     3.098864  s :     3.098864
      pz      :     0.915164  p :     2.450706
      px      :     0.795377
      py      :     0.740165
      dz2     :     0.004054  d :     0.156228
      dxz     :     0.028356
      dyz     :     0.037233
      dx2y2   :     0.046176
      dxy     :     0.040409
      f0      :     0.002181  f :     0.014495
      f+1     :     0.000881
      f-1     :     0.001164
      f+2     :     0.001115
      f-2     :     0.001883
      f+3     :     0.002223
      f-3     :     0.005048

 17 C s       :     3.098084  s :     3.098084
      pz      :     0.915472  p :     2.451443
      px      :     0.786206
      py      :     0.749766
      dz2     :     0.003910  d :     0.156321
      dxz     :     0.029504
      dyz     :     0.036165
      dx2y2   :     0.045914
      dxy     :     0.040827
      f0      :     0.002183  f :     0.014497
      f+1     :     0.000932
      f-1     :     0.001110
      f+2     :     0.000691
      f-2     :     0.002304
      f+3     :     0.003495
      f-3     :     0.003783

 18 C s       :     3.277928  s :     3.277928
      pz      :     0.989678  p :     2.863485
      px      :     0.913973
      py      :     0.959834
      dz2     :     0.005121  d :     0.083552
      dxz     :     0.011729
      dyz     :     0.017809
      dx2y2   :     0.019494
      dxy     :     0.029399
      f0      :     0.001489  f :     0.007754
      f+1     :     0.000706
      f-1     :     0.000703
      f+2     :     0.001219
      f-2     :     0.000155
      f+3     :     0.002113
      f-3     :     0.001369

 19 C s       :     3.328638  s :     3.328638
      pz      :     1.006153  p :     2.960915
      px      :     0.968096
      py      :     0.986666
      dz2     :     0.002840  d :     0.076694
      dxz     :     0.017898
      dyz     :     0.013246
      dx2y2   :     0.009660
      dxy     :     0.033049
      f0      :     0.001438  f :     0.007245
      f+1     :     0.000641
      f-1     :     0.000686
      f+2     :     0.000786
      f-2     :     0.000460
      f+3     :     0.001319
      f-3     :     0.001916

 20 C s       :     3.328459  s :     3.328459
      pz      :     1.005664  p :     2.961498
      px      :     0.987073
      py      :     0.968761
      dz2     :     0.003193  d :     0.076693
      dxz     :     0.013621
      dyz     :     0.017165
      dx2y2   :     0.009627
      dxy     :     0.033087
      f0      :     0.001410  f :     0.007245
      f+1     :     0.000653
      f-1     :     0.000720
      f+2     :     0.000772
      f-2     :     0.000463
      f+3     :     0.001900
      f-3     :     0.001326

 21 C s       :     3.277797  s :     3.277797
      pz      :     0.989444  p :     2.863435
      px      :     0.921148
      py      :     0.952843
      dz2     :     0.005330  d :     0.083547
      dxz     :     0.009534
      dyz     :     0.019756
      dx2y2   :     0.018147
      dxy     :     0.030780
      f0      :     0.001477  f :     0.007754
      f+1     :     0.000775
      f-1     :     0.000653
      f+2     :     0.000931
      f-2     :     0.000428
      f+3     :     0.002298
      f-3     :     0.001192

 22 C s       :     3.098643  s :     3.098643
      pz      :     0.915886  p :     2.450450
      px      :     0.738564
      py      :     0.796000
      dz2     :     0.003637  d :     0.156258
      dxz     :     0.038298
      dyz     :     0.027823
      dx2y2   :     0.046028
      dxy     :     0.040471
      f0      :     0.002214  f :     0.014497
      f+1     :     0.001076
      f-1     :     0.000921
      f+2     :     0.001079
      f-2     :     0.001903
      f+3     :     0.005079
      f-3     :     0.002224

 23 C s       :     3.277965  s :     3.277965
      pz      :     0.989244  p :     2.863426
      px      :     0.952417
      py      :     0.921766
      dz2     :     0.004880  d :     0.083546
      dxz     :     0.020399
      dyz     :     0.009385
      dx2y2   :     0.018058
      dxy     :     0.030825
      f0      :     0.001520  f :     0.007754
      f+1     :     0.000556
      f-1     :     0.000793
      f+2     :     0.000985
      f-2     :     0.000421
      f+3     :     0.001167
      f-3     :     0.002312

 24 C s       :     3.328668  s :     3.328668
      pz      :     1.006161  p :     2.960949
      px      :     0.968105
      py      :     0.986683
      dz2     :     0.002840  d :     0.076693
      dxz     :     0.017898
      dyz     :     0.013246
      dx2y2   :     0.009657
      dxy     :     0.033052
      f0      :     0.001438  f :     0.007245
      f+1     :     0.000641
      f-1     :     0.000686
      f+2     :     0.000786
      f-2     :     0.000459
      f+3     :     0.001319
      f-3     :     0.001916

 25 C s       :     3.098223  s :     3.098223
      pz      :     0.915609  p :     2.451590
      px      :     0.748046
      py      :     0.787935
      dz2     :     0.003668  d :     0.156316
      dxz     :     0.037160
      dyz     :     0.028882
      dx2y2   :     0.045690
      dxy     :     0.040916
      f0      :     0.002212  f :     0.014498
      f+1     :     0.001054
      f-1     :     0.000948
      f+2     :     0.000717
      f-2     :     0.002269
      f+3     :     0.003808
      f-3     :     0.003490

 26 H s       :     0.814898  s :     0.814898
      pz      :     0.004505  p :     0.021903
      px      :     0.010919
      py      :     0.006479

 27 H s       :     0.814875  s :     0.814875
      pz      :     0.004553  p :     0.021901
      px      :     0.009214
      py      :     0.008135

 28 H s       :     0.809971  s :     0.809971
      pz      :     0.004983  p :     0.022478
      px      :     0.007862
      py      :     0.009633

 29 H s       :     0.809946  s :     0.809946
      pz      :     0.004932  p :     0.022478
      px      :     0.009695
      py      :     0.007851

 30 H s       :     0.814897  s :     0.814897
      pz      :     0.004505  p :     0.021903
      px      :     0.010920
      py      :     0.006479

 31 H s       :     0.814880  s :     0.814880
      pz      :     0.004553  p :     0.021901
      px      :     0.009214
      py      :     0.008135

 32 H s       :     0.809962  s :     0.809962
      pz      :     0.004983  p :     0.022478
      px      :     0.007862
      py      :     0.009633

 33 H s       :     0.814912  s :     0.814912
      pz      :     0.004579  p :     0.021904
      px      :     0.006482
      py      :     0.010843

 34 H s       :     0.809941  s :     0.809941
      pz      :     0.004932  p :     0.022478
      px      :     0.009695
      py      :     0.007851

 35 H s       :     0.814882  s :     0.814882
      pz      :     0.004530  p :     0.021902
      px      :     0.008186
      py      :     0.009185

 36 Mgs       :     4.506515  s :     4.506515
      pz      :     2.075893  p :     6.429085
      px      :     2.177046
      py      :     2.176146
      dz2     :     0.033781  d :     0.274021
      dxz     :     0.025332
      dyz     :     0.026844
      dx2y2   :     0.174661
      dxy     :     0.013403



                     *******************************
                     * LOEWDIN POPULATION ANALYSIS *
                     *******************************

----------------------
LOEWDIN ATOMIC CHARGES
----------------------
   0 N :    0.169518
   1 H :    0.149384
   2 C :   -0.111940
   3 C :   -0.111929
   4 N :    0.169580
   5 C :   -0.111935
   6 H :    0.149387
   7 C :   -0.205289
   8 N :    0.169582
   9 C :   -0.111935
  10 C :   -0.083728
  11 C :   -0.205348
  12 N :    0.169517
  13 C :   -0.111927
  14 C :   -0.205333
  15 C :   -0.205380
  16 C :   -0.205349
  17 C :   -0.205290
  18 C :   -0.111930
  19 C :   -0.083731
  20 C :   -0.083726
  21 C :   -0.111941
  22 C :   -0.205382
  23 C :   -0.111927
  24 C :   -0.083732
  25 C :   -0.205336
  26 H :    0.149393
  27 H :    0.149393
  28 H :    0.168839
  29 H :    0.168835
  30 H :    0.149394
  31 H :    0.149392
  32 H :    0.168838
  33 H :    0.149386
  34 H :    0.168835
  35 H :    0.149384
  36 Mg:    0.324431

-------------------------------
LOEWDIN REDUCED ORBITAL CHARGES
-------------------------------
  0 N s       :     2.974129  s :     2.974129
      pz      :     1.196451  p :     3.637165
      px      :     1.332172
      py      :     1.108542
      dz2     :     0.016794  d :     0.200775
      dxz     :     0.011812
      dyz     :     0.043201
      dx2y2   :     0.059950
      dxy     :     0.069017
      f0      :     0.001144  f :     0.018413
      f+1     :     0.000880
      f-1     :     0.001693
      f+2     :     0.000376
      f-2     :     0.003521
      f+3     :     0.004104
      f-3     :     0.006696

  1 H s       :     0.789049  s :     0.789049
      pz      :     0.013626  p :     0.061567
      px      :     0.022511
      py      :     0.025430

  2 C s       :     2.763186  s :     2.763186
      pz      :     0.898529  p :     2.931343
      px      :     0.985603
      py      :     1.047211
      dz2     :     0.027474  d :     0.370574
      dxz     :     0.031243
      dyz     :     0.058591
      dx2y2   :     0.102612
      dxy     :     0.150654
      f0      :     0.003021  f :     0.046836
      f+1     :     0.003643
      f-1     :     0.003889
      f+2     :     0.007315
      f-2     :     0.002505
      f+3     :     0.017820
      f-3     :     0.008644

  3 C s       :     2.763197  s :     2.763197
      pz      :     0.897964  p :     2.931343
      px      :     1.048605
      py      :     0.984773
      dz2     :     0.026217  d :     0.370557
      dxz     :     0.060153
      dyz     :     0.030986
      dx2y2   :     0.102513
      dxy     :     0.150688
      f0      :     0.003089  f :     0.046833
      f+1     :     0.003829
      f-1     :     0.003589
      f+2     :     0.007462
      f-2     :     0.002378
      f+3     :     0.008600
      f-3     :     0.017884

  4 N s       :     2.974073  s :     2.974073
      pz      :     1.198383  p :     3.637121
      px      :     1.107795
      py      :     1.330943
      dz2     :     0.016272  d :     0.200809
      dxz     :     0.043708
      dyz     :     0.011532
      dx2y2   :     0.059984
      dxy     :     0.069314
      f0      :     0.001122  f :     0.018418
      f+1     :     0.001739
      f-1     :     0.000834
      f+2     :     0.000351
      f-2     :     0.003572
      f+3     :     0.006711
      f-3     :     0.004089

  5 C s       :     2.763205  s :     2.763205
      pz      :     0.898065  p :     2.931370
      px      :     1.046341
      py      :     0.986965
      dz2     :     0.026998  d :     0.370530
      dxz     :     0.051435
      dyz     :     0.038843
      dx2y2   :     0.102286
      dxy     :     0.150968
      f0      :     0.003056  f :     0.046829
      f+1     :     0.003820
      f-1     :     0.003662
      f+2     :     0.008987
      f-2     :     0.000819
      f+3     :     0.010164
      f-3     :     0.016320

  6 H s       :     0.789050  s :     0.789050
      pz      :     0.013747  p :     0.061563
      px      :     0.018209
      py      :     0.029607

  7 C s       :     2.696071  s :     2.696071
      pz      :     0.841859  p :     2.789974
      px      :     0.967866
      py      :     0.980248
      dz2     :     0.044016  d :     0.639105
      dxz     :     0.093390
      dyz     :     0.106358
      dx2y2   :     0.201435
      dxy     :     0.193906
      f0      :     0.004996  f :     0.080139
      f+1     :     0.004957
      f-1     :     0.005874
      f+2     :     0.005018
      f-2     :     0.014443
      f+3     :     0.022135
      f-3     :     0.022716

  8 N s       :     2.974070  s :     2.974070
      pz      :     1.198376  p :     3.637119
      px      :     1.107796
      py      :     1.330947
      dz2     :     0.016271  d :     0.200811
      dxz     :     0.043708
      dyz     :     0.011531
      dx2y2   :     0.059985
      dxy     :     0.069315
      f0      :     0.001122  f :     0.018418
      f+1     :     0.001739
      f-1     :     0.000834
      f+2     :     0.000351
      f-2     :     0.003572
      f+3     :     0.006711
      f-3     :     0.004089

  9 C s       :     2.763205  s :     2.763205
      pz      :     0.898062  p :     2.931370
      px      :     1.046340
      py      :     0.986968
      dz2     :     0.026996  d :     0.370530
      dxz     :     0.051432
      dyz     :     0.038843
      dx2y2   :     0.102288
      dxy     :     0.150971
      f0      :     0.003056  f :     0.046829
      f+1     :     0.003821
      f-1     :     0.003662
      f+2     :     0.008987
      f-2     :     0.000818
      f+3     :     0.010165
      f-3     :     0.016321

 10 C s       :     2.749762  s :     2.749762
      pz      :     0.895995  p :     2.926055
      px      :     1.012457
      py      :     1.017603
      dz2     :     0.025134  d :     0.368272
      dxz     :     0.042625
      dyz     :     0.053933
      dx2y2   :     0.095867
      dxy     :     0.150713
      f0      :     0.003176  f :     0.039638
      f+1     :     0.003572
      f-1     :     0.003899
      f+2     :     0.005946
      f-2     :     0.002261
      f+3     :     0.011409
      f-3     :     0.009377

 11 C s       :     2.696082  s :     2.696082
      pz      :     0.841481  p :     2.789973
      px      :     0.980913
      py      :     0.967579
      dz2     :     0.044349  d :     0.639148
      dxz     :     0.087834
      dyz     :     0.111744
      dx2y2   :     0.199398
      dxy     :     0.195823
      f0      :     0.004993  f :     0.080145
      f+1     :     0.004616
      f-1     :     0.006225
      f+2     :     0.007426
      f-2     :     0.012077
      f+3     :     0.014636
      f-3     :     0.030173

 12 N s       :     2.974129  s :     2.974129
      pz      :     1.196452  p :     3.637166
      px      :     1.332171
      py      :     1.108542
      dz2     :     0.016794  d :     0.200775
      dxz     :     0.011812
      dyz     :     0.043201
      dx2y2   :     0.059950
      dxy     :     0.069017
      f0      :     0.001144  f :     0.018413
      f+1     :     0.000880
      f-1     :     0.001693
      f+2     :     0.000376
      f-2     :     0.003521
      f+3     :     0.004104
      f-3     :     0.006696

 13 C s       :     2.763195  s :     2.763195
      pz      :     0.898484  p :     2.931355
      px      :     0.987859
      py      :     1.045012
      dz2     :     0.026698  d :     0.370545
      dxz     :     0.039947
      dyz     :     0.050701
      dx2y2   :     0.102515
      dxy     :     0.150684
      f0      :     0.003055  f :     0.046832
      f+1     :     0.003542
      f-1     :     0.003925
      f+2     :     0.008935
      f-2     :     0.000916
      f+3     :     0.016254
      f-3     :     0.010205

 14 C s       :     2.696059  s :     2.696059
      pz      :     0.841523  p :     2.789995
      px      :     0.981683
      py      :     0.966789
      dz2     :     0.044138  d :     0.639131
      dxz     :     0.107780
      dyz     :     0.091754
      dx2y2   :     0.201437
      dxy     :     0.194022
      f0      :     0.005019  f :     0.080148
      f+1     :     0.006095
      f-1     :     0.004724
      f+2     :     0.005094
      f-2     :     0.014310
      f+3     :     0.022828
      f-3     :     0.022077

 15 C s       :     2.696065  s :     2.696065
      pz      :     0.841850  p :     2.789972
      px      :     0.968659
      py      :     0.979463
[...]
  0-1A  -> 16-1A    5.193038   41884.7   238.8   0.250880457   0.07182  -0.03894   0.26392  -0.02545
  0-1A  -> 17-1A    5.417395   43694.2   228.9   0.001093951   0.00033   0.00033   0.00165   0.01800
  0-1A  -> 18-1A    5.478964   44190.8   226.3   0.000000000   0.00000   0.00000   0.00000   0.00000
  0-1A  -> 19-1A    5.551654   44777.1   223.3   0.000000002   0.00000   0.00002   0.00002  -0.00001
  0-1A  -> 20-1A    5.595529   45131.0   221.6   0.000000000   0.00000  -0.00000   0.00000  -0.00000
  0-1A  -> 21-1A    5.719870   46133.9   216.8   0.000000032   0.00000  -0.00007   0.00007  -0.00000
  0-1A  -> 22-1A    5.907724   47649.0   209.9   0.000000094   0.00000   0.00017  -0.00003  -0.00002
  0-1A  -> 23-1A    5.995838   48359.7   206.8   0.000000000   0.00000   0.00000  -0.00000  -0.00000
  0-1A  -> 24-1A    6.042215   48733.8   205.2   0.003432587   0.00114  -0.00053  -0.00331  -0.03365
  0-1A  -> 25-1A    6.059737   48875.1   204.6   0.000000000   0.00000   0.00000   0.00000   0.00000
  0-1A  -> 26-1A    6.068750   48947.8   204.3   0.000000025   0.00000   0.00003   0.00008  -0.00004
  0-1A  -> 27-1A    6.182435   49864.7   200.5   0.000000000   0.00000   0.00000  -0.00000   0.00000
  0-1A  -> 28-1A    6.304460   50848.9   196.7   0.000000000   0.00000  -0.00000   0.00000  -0.00000
  0-1A  -> 29-1A    6.817582   54987.5   181.9   0.000000001   0.00000  -0.00001  -0.00001   0.00001
  0-1A  -> 30-1A    6.858144   55314.7   180.8   0.000000011   0.00000   0.00006   0.00001  -0.00000

------------------------------------------------------------------------------------------
                     CD SPECTRUM VIA TRANSITION ELECTRIC DIPOLE MOMENTS    
------------------------------------------------------------------------------------------
     Transition      Energy     Energy  Wavelength    R        MX        MY        MZ   
                      (eV)      (cm-1)    (nm)   (1e40*cgs)   (au)      (au)      (au)  
------------------------------------------------------------------------------------------
  0-1A  ->  1-1A    2.167098   17478.8   572.1    0.00084   0.00000   0.00000  -0.00002
  0-1A  ->  2-1A    2.167230   17479.9   572.1   -0.00066   0.00000  -0.00000  -0.00000
  0-1A  ->  3-1A    3.376924   27236.7   367.2   -0.01084  -0.00001  -0.00001  -0.00000
  0-1A  ->  4-1A    3.376955   27237.0   367.1    0.00333  -0.00000   0.00000  -0.00000
  0-1A  ->  5-1A    4.349149   35078.3   285.1   -0.00150   0.02050   0.12188   1.23552
  0-1A  ->  6-1A    4.403458   35516.3   281.6    0.00004   0.00013   0.00025   0.00611
  0-1A  ->  7-1A    4.453482   35919.8   278.4    0.00452   0.00001   0.00004  -0.00001
  0-1A  ->  8-1A    4.454055   35924.4   278.4   -0.00443  -0.00000  -0.00001  -0.00002
  0-1A  ->  9-1A    4.695557   37872.2   264.0   -0.00000   0.00010  -0.00006   0.00018
  0-1A  -> 10-1A    4.967784   40067.9   249.6    0.00000   0.00034   0.00011  -0.00023
  0-1A  -> 11-1A    5.120198   41297.2   242.1   -0.00001  -0.00071   0.00095   0.00021
  0-1A  -> 12-1A    5.127057   41352.5   241.8   -0.00860   0.02985  -0.27426   0.02652
  0-1A  -> 13-1A    5.127533   41356.4   241.8    0.00670   0.27556   0.02929  -0.00762
  0-1A  -> 14-1A    5.164821   41657.1   240.1   -0.00002  -0.00048  -0.00050   0.00003
  0-1A  -> 15-1A    5.192843   41883.1   238.8   -0.00336  -0.00001   0.00012  -0.00002
  0-1A  -> 16-1A    5.193038   41884.7   238.8    0.00601  -0.00015  -0.00001   0.00000
  0-1A  -> 17-1A    5.417395   43694.2   228.9    0.00018   0.00000   0.00000   0.00000
  0-1A  -> 18-1A    5.478964   44190.8   226.3    0.00001  -0.01099  -0.06560  -0.66359
  0-1A  -> 19-1A    5.551654   44777.1   223.3   -0.00000   0.00000   0.00000   0.00004
  0-1A  -> 20-1A    5.595529   45131.0   221.6    0.00000   0.00008   0.00005   0.00000
  0-1A  -> 21-1A    5.719870   46133.9   216.8    0.00000   0.00000   0.00000   0.00002
  0-1A  -> 22-1A    5.907724   47649.0   209.9   -0.00000  -0.00000   0.00001   0.00007
  0-1A  -> 23-1A    5.995838   48359.7   206.8    0.00000   0.00019   0.00003   0.00001
  0-1A  -> 24-1A    6.042215   48733.8   205.2   -0.00036   0.00000   0.00000   0.00001
  0-1A  -> 25-1A    6.059737   48875.1   204.6    0.00000  -0.00040   0.00006   0.00045
  0-1A  -> 26-1A    6.068750   48947.8   204.3   -0.00000   0.00000   0.00000   0.00001
  0-1A  -> 27-1A    6.182435   49864.7   200.5    0.00000   0.00030   0.00052   0.00036
  0-1A  -> 28-1A    6.304460   50848.9   196.7   -0.00058  -0.01065  -0.06309  -0.64544
  0-1A  -> 29-1A    6.817582   54987.5   181.9   -0.00000   0.00029  -0.00002   0.00009
  0-1A  -> 30-1A    6.858144   55314.7   180.8    0.00000   0.00006  -0.00012   0.00011

------------------------------------------------------------------------------------------
                     CD SPECTRUM VIA TRANSITION VELOCITY DIPOLE MOMENTS    
------------------------------------------------------------------------------------------
     Transition      Energy     Energy  Wavelength    R        MX        MY        MZ   
                      (eV)      (cm-1)    (nm)   (1e40*cgs)   (au)      (au)      (au)  
------------------------------------------------------------------------------------------
  0-1A  ->  1-1A    2.167098   17478.8   572.1    0.00082   0.00000   0.00000  -0.00002
  0-1A  ->  2-1A    2.167230   17479.9   572.1   -0.00064   0.00000  -0.00000  -0.00000
  0-1A  ->  3-1A    3.376924   27236.7   367.2   -0.01078  -0.00001  -0.00001  -0.00000
  0-1A  ->  4-1A    3.376955   27237.0   367.1    0.00332  -0.00000   0.00000  -0.00000
  0-1A  ->  5-1A    4.349149   35078.3   285.1    0.00044   0.02050   0.12188   1.23552
  0-1A  ->  6-1A    4.403458   35516.3   281.6    0.00004   0.00013   0.00025   0.00611
  0-1A  ->  7-1A    4.453482   35919.8   278.4    0.00452   0.00001   0.00004  -0.00001
  0-1A  ->  8-1A    4.454055   35924.4   278.4   -0.00442  -0.00000  -0.00001  -0.00002
  0-1A  ->  9-1A    4.695557   37872.2   264.0   -0.00000   0.00010  -0.00006   0.00018
  0-1A  -> 10-1A    4.967784   40067.9   249.6    0.00000   0.00034   0.00011  -0.00023
  0-1A  -> 11-1A    5.120198   41297.2   242.1   -0.00001  -0.00071   0.00095   0.00021
  0-1A  -> 12-1A    5.127057   41352.5   241.8   -0.00843   0.02985  -0.27426   0.02652
  0-1A  -> 13-1A    5.127533   41356.4   241.8    0.00678   0.27556   0.02929  -0.00762
  0-1A  -> 14-1A    5.164821   41657.1   240.1   -0.00002  -0.00048  -0.00050   0.00003
  0-1A  -> 15-1A    5.192843   41883.1   238.8   -0.00335  -0.00001   0.00012  -0.00002
  0-1A  -> 16-1A    5.193038   41884.7   238.8    0.00599  -0.00015  -0.00001   0.00000
  0-1A  -> 17-1A    5.417395   43694.2   228.9    0.00019   0.00000   0.00000   0.00000
  0-1A  -> 18-1A    5.478964   44190.8   226.3   -0.00034  -0.01099  -0.06560  -0.66359
  0-1A  -> 19-1A    5.551654   44777.1   223.3   -0.00000   0.00000   0.00000   0.00004
  0-1A  -> 20-1A    5.595529   45131.0   221.6    0.00000   0.00008   0.00005   0.00000
  0-1A  -> 21-1A    5.719870   46133.9   216.8   -0.00000   0.00000   0.00000   0.00002
  0-1A  -> 22-1A    5.907724   47649.0   209.9   -0.00000  -0.00000   0.00001   0.00007
  0-1A  -> 23-1A    5.995838   48359.7   206.8    0.00000   0.00019   0.00003   0.00001
  0-1A  -> 24-1A    6.042215   48733.8   205.2   -0.00040   0.00000   0.00000   0.00001
  0-1A  -> 25-1A    6.059737   48875.1   204.6    0.00000  -0.00040   0.00006   0.00045
  0-1A  -> 26-1A    6.068750   48947.8   204.3   -0.00000   0.00000   0.00000   0.00001
  0-1A  -> 27-1A    6.182435   49864.7   200.5    0.00000   0.00030   0.00052   0.00036
  0-1A  -> 28-1A    6.304460   50848.9   196.7   -0.00016  -0.01065  -0.06309  -0.64544
  0-1A  -> 29-1A    6.817582   54987.5   181.9   -0.00000   0.00029  -0.00002   0.00009
  0-1A  -> 30-1A    6.858144   55314.7   180.8    0.00000   0.00006  -0.00012   0.00011

Total run time:     7603.107 sec

           *** ORCA-CIS/TD-DFT FINISHED WITHOUT ERROR ***
-----------------------
CIS/TD-DFT TOTAL ENERGY
-----------------------

    E(SCF)  =  -1188.620522018 Eh
    DE(CIS) =      0.079639375 Eh (Root  1)
    ----------------------------- ---------
    E(tot)  =  -1188.540882642 Eh


Maximum memory used throughout the entire CIS-calculation: 2717.8 MB
=> NOW LEAVING ORCA_CIS


-------------------------------------------------------------------------------
                          DFT DISPERSION CORRECTION                            
                                                                               
                              DFTD3 V3.1  Rev 1                                
                              USING zero damping                               
-------------------------------------------------------------------------------
The omegaB97X-D3 functional is recognized. Fit by Chai et al.
Active option DFTDOPT                   ...         3   

molecular C6(AA) [au] = 21403.553425 


            DFT-D V3
 parameters
 s6 scaling factor         :     1.0000 
 rs6 scaling factor        :     1.2810 
 s8 scaling factor         :     1.0000 
 rs8 scaling factor        :     1.0940 
 Damping factor alpha6     :    14.0000 
 Damping factor alpha8     :    16.0000 
 ad hoc parameters k1-k3   :    16.0000     1.3333    -4.0000 

 Edisp/kcal,au: -10.945814462713  -0.017443263803 
 E6   /kcal   :  -4.817587585 
 E8   /kcal   :  -6.128226878 
 % E8         :  55.986942760 

-------------------------   ----------------
Dispersion correction           -0.017443264
-------------------------   ----------------


-------------------------   --------------------
FINAL SINGLE POINT ENERGY     -1188.558325906150
-------------------------   --------------------



           ************************************************************
           *        Program running with 4 parallel MPI-processes     *
           *              working on a common directory               *
           ************************************************************

------------------------------------------------------------------------------
                              ORCA PROPERTY CALCULATIONS
------------------------------------------------------------------------------

GBWName                                 ... tddft.gbw
Number of atoms                         ...     37
Number of basis functions               ...    848
Max core memory                         ...   3000 MB

Electric properties:
Dipole moment                           ... YES
Quadrupole moment                       ...  NO
Static polarizability (Dipole/Dipole)   ...  NO
Static polarizability (Dipole/Quad.)    ...  NO
Static polarizability (Quad./Quad.)     ...  NO
Static polarizability (Velocity)        ...  NO
Static hyperpolarizability              ...  NO

Atomic electric properties:
Dipole moment                           ...  NO
Quadrupole moment                       ...  NO
Static polarizability                   ...  NO

Choice of electric origin               ... Center of mass
Position of electric origin             ...    -0.158818     5.090151     6.572142

General magnetic properties:
Magnetizability                         ...  NO

EPR properties:
g-Tensor (aka g-matrix)                 ...  NO
Zero-Field splitting spin-orbit         ...  NO
Zero-field splitting spin-spin          ...  NO
Hyperfine couplings                     ...  NO (   0 nuclei)
Quadrupole couplings                    ...  NO (   0 nuclei)
Contact density                         ...  NO (   0 nuclei)

NMR properties:
Chemical shifts                         ...  NO (   0 nuclei)
Spin-rotation constants                 ...  NO (   0 nuclei)
Spin-spin couplings                     ...  NO (   0 nuclei,    0 pairs)

Choice of magnetic origin               ... GIAO
Position of magnetic origin             ...     0.000000     0.000000     0.000000

Properties with geometric perturbations:
SCF Hessian                             ...  NO
IR spectrum                             ...  NO
VCD spectrum                            ...  NO
X-ray spectroscopy properties:
SCF XES/XAS/RIXS spectra                ...  NO

SCF SOC stabilization energy            ...  NO
Diagonal Born-Oppenheimer correction    ...  NO

-------------
DIPOLE MOMENT
-------------

Method             : SCF
Type of density    : Electron Density
Multiplicity       :   1
Irrep              :   0
Energy             : -1188.6205220177471347 Eh
Basis              : AO
                                X                 Y                 Z
Electronic contribution:      0.000009314      -0.000030916      -0.000423419
Nuclear contribution   :     -0.000008108       0.000042856       0.000532868
                        -----------------------------------------
Total Dipole Moment    :      0.000001205       0.000011940       0.000109449
                        -----------------------------------------
Magnitude (a.u.)       :      0.000110105
Magnitude (Debye)      :      0.000279865



--------------------
Rotational spectrum 
--------------------
 
Rotational constants in cm-1:             0.008916             0.008916             0.004458 
Rotational constants in MHz :           267.307767           267.296540           133.651083 

Dipole components along the rotational axes: 
x,y,z [a.u.] :     0.000001    -0.000000     0.000110 
x,y,z [Debye]:     0.000003    -0.000001     0.000280 

 

Dipole moment calculation done in   0.2 sec 

Maximum memory used throughout the entire PROP-calculation: 86.1 MB

--------------------------------
SUGGESTED CITATIONS FOR THIS RUN
--------------------------------

Below you find a list of papers that are relevant to this ORCA run
We neither can nor want to force you to cite these papers, but we appreciate if you do
You receive ORCA, which is the product of decades of hard work by many enthusiastic individuals, for free
The only thing we kindly ask in return is that you cite our papers,
We deeply appreciate it, if you show your appreciation for ORCA by not just citing the generic ORCA reference.

Please note that relegating all ORCA citations to the supporting information does *not* help us.
SI sections are not indexed - citations you put there will not count into any citation statistics
But we need these citations in order to attract the funding resources that allow us to do what we are doing

Therefore, if you are a happy ORCA user, please consider citing a few of the papers listed below in the main body of your paper

In addition to the list printed below, the program has created the file tddft.bibtex that contains the list in bibtex format
You can import this file easily into all common literature databanks and citation aid programs

It goes without saying that in many instances, there are alternative algorithms to achieve similar
results as the ones you have gotten from ORCA. It is, of course, also the case that in some instances
ORCA just re-implements algorithms worked out by others. We are fully aware of that and we are also
fully appreciative of our colleagues work. Hence this citation list should not be read as indicating
that the listed papers, which are focused on our own work, are the only ones worth citing. It simply
meant to make it easier for users to cite ORCA specific papers. It is not a substitute for doing your
own literature research and citing the relevant literature in a scientifically appropriate manner.

List of essential papers. We consider these as the minimum necessary citations

  1. Neese, F.
     Software update: the ORCA program system, version 6.0
     WIRES Comput. Molec. Sci. 2025 15(1), e70019
     doi.org/10.1002/wcms.70019

List of papers to cite with high priority. The work reported in these papers was absolutely
necessary for this run to complete.
Our perspective: the developers of density functionals and basis sets usually get cited in chemistry papers
Good! But without the algorithms to do something with them, the functionals or basis sets would not do anything.
Hence, in our opinion, the algorithm design and method developments papers are equally worthy of getting cited

  1. Neese, F.; Olbrich, G.
     Efficient use of the resolution of the identity approximation in time-dependent density functional calculations with hybrid density functionals
     Chem. Phys. Lett. 2002 362 , 170-178
     doi.org/10.1016/s0009-2614(02)01053-9
  2. Neese, F.
     An improvement of the resolution of the identity approximation for the formation of the Coulomb matrix
     J. Comp. Chem. 2003 24(14), 1740-1747
     doi.org/10.1002/jcc.10318
  3. Neese, F.; Wennmohs, F.; Hansen, A.; Becker, U.
     Efficient, approximate and parallel Hartree-Fock and hybrid DFT calculations. A 'chain-of-spheres' algorithm for the Hartree-Fock exchange
     Chem. Phys. 2009 356(1-3), 98-109
     doi.org/10.1016/j.chemphys.2008.10.036
  4. Grimme, S.; Antony, J.; Ehrlich, S.; Krieg, H.
     A consistent and accurate ab initio parametrization of density functional dispersion correction (DFT-D) for the 94 elements H-Pu
     J. Chem. Phys. 2010 132 , 154104
     doi.org/10.1063/1.3382344
  5. Garcia-Rates, M.; Neese, F.
     Effect of the Solute Cavity on the Solvation Energy and its Derivatives within the Framework of the Gaussian Charge Scheme
     J. Comput. Chem. 2020 41 , 922-939
     doi.org/10.1002/jcc.26139
  6. Helmich-Paris, B.; de Souza, B.; Neese, F.; Izsák, R.
     An improved chain of spheres for exchange algorithm
     J. Chem. Phys. 2021 155(10), 104109
     doi.org/10.1063/5.0058766
  7. Neese, F.
     The SHARK Integral Generation and Digestion System
     J. Comp. Chem. 2022 44(3), 381
     doi.org/10.1002/jcc.26942

List of suggested additional citations. These are papers that are important in the 'surrounding' of 
of this run, or papers that preceded the highly important papers. If you like your results we are grateful for a citation.

  1. Izsak, R.; Neese, F.
     An overlap fitted chain of spheres exchange method
     J. Chem. Phys. 2011 135 , 144105
     doi.org/10.1063/1.3646921
  2. Izsak, R.; Hansen, A.; Neese, F.
     The resolution of identity and chain of spheres approximations for the LPNO-CCSD singles Fock term
     Molec. Phys. 2012 110 , 2413-2417
     doi.org/10.1080/00268976.2012.687466
  3. Neese, F.
     The ORCA program system
     WIRES Comput. Molec. Sci. 2012 2(1), 73-78
     doi.org/10.1002/wcms.81
  4. Izsak, R.; Neese, F.; Klopper, W.
     Robust fitting techniques in the chain of spheres approximation to the Fock exchange: The role of the complementary space
     J. Chem. Phys. 2013 139 , 
     doi.org/10.1063/1.4819264
  5. Neese, F.
     Software update: the ORCA program system, version 4.0
     WIRES Comput. Molec. Sci. 2018 8(1), 1-6
     doi.org/10.1002/wcms.1327
  6. Neese, F.; Wennmohs, F.; Becker, U.; Riplinger, C.
     The ORCA quantum chemistry program package
     J. Chem. Phys. 2020 152(22), 224108
     doi.org/10.1063/5.0004608
  7. Neese, F.
     Software update: The ORCA program system—Version 5.0
     WIRES Comput. Molec. Sci. 2022 12(1), e1606
     doi.org/10.1002/wcms.1606

List of optional additional citations

  1. Neese, F.
     Approximate second-order SCF convergence for spin unrestricted wavefunctions
     Chem. Phys. Lett. 2000 325(1-3), 93-98
     doi.org/10.1016/s0009-2614(00)00662-x

Timings for individual modules:

Sum of individual times          ...     9296.234 sec (= 154.937 min)
Startup calculation              ...       15.873 sec (=   0.265 min)   0.2 %
SCF iterations                   ...     1671.415 sec (=  27.857 min)  18.0 %
Property integrals               ...        2.979 sec (=   0.050 min)   0.0 %
Property calculations            ...        1.887 sec (=   0.031 min)   0.0 %
CIS module                       ...     7604.080 sec (= 126.735 min)  81.8 %
                             ****ORCA TERMINATED NORMALLY****
TOTAL RUN TIME: 0 days 2 hours 34 minutes 56 seconds 852 msec
