
                                 *****************
                                 * O   R   C   A *
                                 *****************

                                            #,                                       
                                            ###                                      
                                            ####                                     
                                            #####                                    
                                            ######                                   
                                           ########,                                 
                                     ,,################,,,,,                         
                               ,,#################################,,                 
                          ,,##########################################,,             
                       ,#########################################, ''#####,          
                    ,#############################################,,   '####,        
                  ,##################################################,,,,####,       
                ,###########''''           ''''###############################       
              ,#####''   ,,,,##########,,,,          '''####'''          '####       
            ,##' ,,,,###########################,,,                        '##       
           ' ,,###''''                  '''############,,,                           
         ,,##''                                '''############,,,,        ,,,,,,###''
      ,#''                                            '''#######################'''  
     '                                                          ''''####''''         
             ,#######,   #######,   ,#######,      ##                                
            ,#'     '#,  ##    ##  ,#'     '#,    #''#        ,####,    ,#,          
            ##       ##  ##   ,#'  ##            #'  '#       #'       ,# #          
            ##       ##  #######   ##           ,######,      #####,      #          
            '#,     ,#'  ##    ##  '#,     ,#' ,#      #,     #,   #      #          
             '#######'   ##     ##  '#######'  #'      '#     '####' #    #          



                #########################################################
                #                        -***-                          #
                #          Department of theory and spectroscopy        #
                #                                                       #
                #                      Frank Neese                      #
                #                                                       #
                #     Directorship, Architecture, Infrastructure        #
                #                    SHARK, DRIVERS                     #
                #        Core code/Algorithms in most modules           #
                #                                                       #
                #        Max Planck Institute fuer Kohlenforschung      #
                #                Kaiser Wilhelm Platz 1                 #
                #                 D-45470 Muelheim/Ruhr                 #
                #                      Germany                          #
                #                                                       #
                #                  All rights reserved                  #
                #                        -***-                          #
                #########################################################


                         Program Version 6.1.1  -  RELEASE   -
                                (GIT: $487d211c$)
                          ($2025-11-21 10:33:24 +0100$)


 With contributions from (in alphabetic order):
[Max-Planck-Institut fuer Kohlenforschung]                               
  Daniel Aravena         : Magnetic Suceptibility                        
  Michael Atanasov       : Ab Initio Ligand Field Theory (pilot matlab implementation)
  Alexander A. Auer      : GIAO ZORA, VPT2 properties, NMR spectrum      
  Ute Becker             : All parallelization in ORCA, NUMFREQ, NUMCALC 
  Giovanni Bistoni       : ED, misc. LED, open-shell LED, HFLD           
  Dmytro Bykov           : pre 5.0 version of the SCF Hessian            
  Marcos Casanova-Páez   : Triplet and SCS-CIS(D). UHF-(DLPNO)-IP/EA/STEOM-CCSD. UHF-CVS-IP/STEOM-CCSD   
  Vijay G. Chilkuri      : MRCI spin determinant printing, contributions to CSF-ICE 
  Pauline Colinet        : FMM embedding                                 
  Dipayan Datta          : RHF DLPNO-CCSD density                        
  Achintya Kumar Dutta   : EOM-CC, STEOM-CC                              
  Nicolas Foglia         : Exact transition moments, OPA infrastructure, MCD improvements    
  Dmitry Ganyushin       : Spin-Orbit,Spin-Spin,Magnetic field MRCI      
  Miquel Garcia-Rates    : C-PCM and meta-GGA Hessian, CCSD/C-PCM, Gaussian charge scheme 
  Tiago L. C. Gouveia    : GS-ROHF, GS-ROCIS                             
  Yang Guo               : DLPNO-NEVPT2, F12-NEVPT2, CIM, IAO-localization        
  Andreas Hansen         : Spin unrestricted coupled pair/coupled cluster methods 
  Ingolf Harden          : AUTO-CI MPn and infrastructure                
  Benjamin Helmich-Paris : MC-RPA, TRAH-(SCF,CASSCF), AVAS, COSX integrals, SCF dyn. polar., MC-PDFT, srDFT 
  Lee Huntington         : MR-EOM, pCC                                   
  Robert Izsak           : Overlap fitted RIJCOSX, COSX-SCS-MP3, EOM     
  Riya Kayal             : Wick's Theorem for AUTO-CI, AUTO-CI UHF-CCSDT 
  Emily Kempfer          : AUTO-CI RHF CISDT and CCSDT, approximate NEVPT4
  Christian Kollmar      : KDIIS, OOCD, Brueckner-CCSD(T), CCSD density, CASPT2, CASPT2-K, improved NEVPT2 
  Axel Koslowski         : Symmetry handling                             
  Simone Kossmann        : meta-GGA functionals, TD-DFT gradient, OOMP2, (MP2 Hessian; deprecated post 5.0) 
  Lucas Lang             : DCDCAS, Hyperfine gauge corrections, ICE-SOC+SSC
  Marvin Lechner         : AUTO-CI (C++ implementation), FIC-MRCC        
  Spencer Leger          : CASSCF response                               
  Dagmar Lenk            : GEPOL surface, SMD, ORCA-2-JSON               
  Dimitrios Liakos       : Extrapolation schemes; Compound Job, Property file
  Dimitrios Manganas     : Further ROCIS development; embedding schemes. LFT, Crystal Embedding 
  Dimitrios Pantazis     : SARC Basis sets                               
  Anastasios Papadopoulos: AUTO-CI, single reference methods and gradients 
  Taras Petrenko         : pre 6.0 DFT Hessian and TD-DFT gradient,  ECA, NRVS 
  Petra Pikulova         : Analytic Raman intensities                    
  Peter Pinski           : DLPNO-MP2, DLPNO-MP2 Gradient                 
  Shashank Vittal Rao    : ES-AILFT, MagRelax                            
  Christoph Reimann      : Effective Core Potentials                     
  Marius Retegan         : Local ZFS, SOC                                
  Christoph Riplinger    : Optimizer, TS searches, QM/MM, DLPNO-CCSD(T), (RO)-DLPNO pert. Triples 
  Michael Roemelt        : Original ROCIS implementation, recursive CI coupling coefficients
  Masaaki Saitow         : Open-shell DLPNO-CCSD energy and density      
  Barbara Sandhoefer     : DKH picture change effects                    
  Yorick L. A. Schmerwitz: GMF and freeze-and-release deltaSCF, NEB S-IDPP initial path                    
  Kantharuban Sivalingam : CASSCF convergence/infrastructure, NEVPT2, NEVPT3, NEVPT4(SD), FIC-MRCI and CEPA variants
  Bernardo de Souza      : ESD, SOC TD-DFT                               
  Georgi L. Stoychev     : AutoAux, RI-MP2 NMR, DLPNO-MP2 response, X2C  
  Van Anh Tran           : RI-MP2 g-tensors                              
  Willem Van den Heuvel  : Paramagnetic NMR                              
  Zikuan Wang            : NOTCH, Electric field optimization            
  Frank Wennmohs         : Technical directorship and infrastructure     
  Hang Xu                : AUTO-CI-Response properties                   
                                                                         
[FACCTs GmbH]                                                            
  Markus Bursch, Nicolas Foglia, Miquel Garcia-Rates, Ingolf Harden, Hagen Neugebauer, Anastasios Papadopoulos, 
  Christoph Riplinger, Bernardo de Souza, Georgi L. Stoychev                                                    
                                                                 
  APM, various basis sets, CI-OPT, improved COSX, DLPNO-Multilevel,           
  DOCKER, DRACO, updates on ESD, Fragmentator, GOAT, IRC, LR-CPCM, L-BFGS, MBIS, meta-GGA TD-DFT gradient, ML-optimized integration grids, 
  MM, NACMEs, nearIR, NEB, NEB-TS, NL-DFT gradient (VV10), 2- and 3-layer-ONIOM, interface openCOSMO-RS, QMMM,   
  Crystal-QMMM, RESP, rigid body optimization, SF, symmetry and pop. for TD-DFT, various functionals, SOLVATOR                                   
                                                                         
[Other institutions]                                                     
  V. Asgeirsson          : NEB                                           
  Christoph Bannwarth    : sTDA-DFT, sTD-DFT, PBEh-3c, B97-3c, D3        
  Giovanni Bistoni       : ETS/NOCV, ADLD/ADEX, COVALED                  
  Martin Brehm           : Molecular dynamics                            
  Ronald Cardenas        : ETS/NOCV                                      
  Martina Colucci        : COVALED                                       
  Sebastian Ehlert       : rSCAN, r2SCAN, r2SCAN-3c, D4, dhf basis sets  
  Marvin Friede          : D4 for Fr, Ra, Ac-Lr                          
  Lars Goerigk           : TD-DFT with DH, B97 family of functionals     
  Stefan Grimme          : VdW corrections, initial TS optimization, DFT functionals, gCP, sTDA/sTD-DF 
  Waldemar Hujo          : DFT-NL                                        
  H. Jonsson             : NEB                                           
  Holger Kruse           : gCP                                           
  Marcel Mueller         : wB97X-3c, vDZP basis set                      
  Hagen Neugebauer       : wr2SCAN, Native XTB                           
  Gianluca Regni         : ADLD/ADEX                                     
  Tobias Risthaus        : pre 6.0 range-separated hybrid DFT and stability analysis
  Lukas Wittmann         : regularized MP2, r2SCAN double-hybrids, wr2SCAN        
                                                                         
We gratefully acknowledge several colleagues who have allowed us to      
interface, adapt or use parts of their codes:                            
  Ed Valeev, F. Pavosevic, A. Kumar             : LibInt (2-el integral package), F12 methods 
  Garnet Chan, S. Sharma, J. Yang, R. Olivares  : DMRG                   
  Ulf Ekstrom                                   : XCFun DFT Library      
  Mihaly Kallay                                 : mrcc  (arbitrary order and MRCC methods)
  Frank Weinhold                                : gennbo (NPA and NBO analysis)           
  Simon Mueller                                 : openCOSMO-RS                            
  Christopher J. Cramer and Donald G. Truhlar   : smd solvation model                     
  S Lehtola, MJT Oliveira, MAL Marques          : LibXC Library                           
  Liviu Ungur et al                             : ANISO software                          


 Your calculation uses the libint2 library for the computation of 2-el integrals
 For citations please refer to: http://libint.valeyev.net

 Your ORCA version has been built with support for libXC version: 7.0.0
 For citations please refer to: https://libxc.gitlab.io

 This ORCA versions uses:
   CBLAS   interface :  Fast vector & matrix operations
   LAPACKE interface :  Fast linear algebra routines
   SCALAPACK package :  Parallel linear algebra routines
   Shared memory     :  Shared parallel matrices
   BLAS/LAPACK       :  OpenBLAS 0.3.29  USE64BITINT DYNAMIC_ARCH NO_AFFINITY Haswell SINGLE_THREADED
        Core in use  :  Haswell
   Copyright (c) 2011-2014, The OpenBLAS Project


  ***********************************
  * Starting time: Sun Jul  5 17:08:28 2026
  * Host name:     steezy
  * Process ID:    1275771
  * Working dir.:  /home/jannes/chlorophyll-ladder/007-mg-core-ladder/mgporphin/02_tddft/pbe0
  ***********************************

NOTE: MaxCore=3000 MB was set to SCF,MP2,MDCI,CIPSI,MRCI,RASCI and CIS
      => If you want to overwrite this, your respective input block should be placed after the MaxCore statement


***************************************
The coordinates will be read from file: /home/jannes/chlorophyll-ladder/007-mg-core-ladder/mgporphin/01_opt/mgporphin_opt_b3lypd4_tzvp.xyz
***************************************


================================================================================

----- Orbital basis set information -----
Your calculation utilizes the basis: def2-TZVP
   F. Weigend and R. Ahlrichs, Phys. Chem. Chem. Phys. 7, 3297 (2005).

----- AuxJ basis set information -----
Your calculation utilizes the auxiliary basis: def2/J
   H-Rn: F. Weigend, Phys. Chem. Chem. Phys. 8, 1057 (2006).
   Fr-Lr: K. Eichkorn, F. Weigend, O. Treutler, R. Ahlrichs; Theor. Chem. Acc. 97, 119 (1997).

================================================================================
                                        WARNINGS
                       Please study these warnings very carefully!
================================================================================


WARNING: CIS/ROCIS methods need fully converged wavefunctions
  ===> : Setting SCFConvForced true
         You can overwrite this default with %scf ConvForced false 


================================================================================
                                       INPUT FILE
================================================================================
NAME = tddft.inp
|  1> %pal nprocs 4 end
|  2> %maxcore 3000
|  3> ! PBE0 def2-TZVP def2/J RIJCOSX DefGrid3 TightSCF
|  4> %tddft
|  5>   nroots 30
|  6>   triplets false
|  7> end
|  8> * xyzfile 0 1 /home/jannes/chlorophyll-ladder/007-mg-core-ladder/mgporphin/01_opt/mgporphin_opt_b3lypd4_tzvp.xyz
|  9> 
| 10>                          ****END OF INPUT****
================================================================================

                       ****************************
                       * Single Point Calculation *
                       ****************************

---------------------------------
CARTESIAN COORDINATES (ANGSTROEM)
---------------------------------
  N     -2.126632    2.522518    3.528336
  H      1.688951   -2.244306    3.936854
  C     -4.367453    3.014298    3.517091
  C     -0.399300   -1.569210    3.904114
  N      0.091157    0.660020    3.674254
  C      0.955251   -1.456037    3.870452
  H     -0.988023   -2.467894    4.003531
  C      2.861647    1.841375    3.512926
  N     -0.259245    4.727154    3.281236
  C     -1.123334    6.843238    3.085343
  C      2.534867    0.494152    3.650974
  C      2.674027    4.023168    3.301567
  N      1.958546    2.864658    3.427339
  C      4.083452    3.721259    3.307939
  C     -0.935449   -0.237004    3.780431
  C      1.256233   -0.053833    3.726030
  C     -2.842123    1.364011    3.654087
  C     -3.029725    3.545804    3.442713
  C     -4.251542    1.665928    3.647704
  C     -2.289528    0.090486    3.770544
  C     -2.702948    4.893026    3.304662
  C      4.199367    2.372883    3.438500
  C     -1.424318    5.441018    3.229591
  C      0.231221    6.956420    3.051755
  C      2.121440    5.296697    3.185130
  C      0.767360    5.624187    3.175204
  H     -5.271397    3.601806    3.474297
  H     -5.042401    0.936910    3.732428
  H     -2.986818   -0.732582    3.863624
  H      3.363051   -0.201104    3.706153
  H      5.103317    1.785376    3.481270
  H      4.874295    4.450291    3.223211
  H      2.818737    6.119763    3.092108
  H      0.819955    7.855111    2.952489
  H     -3.531147    5.588265    3.249501
  H     -1.857042    7.631509    3.019026
  Mg    -0.084042    2.693585    3.477789

----------------------------
CARTESIAN COORDINATES (A.U.)
----------------------------
  NO LB      ZA    FRAG     MASS         X           Y           Z
   0 N     7.0000    0    14.007   -4.018753    4.766868    6.667589
   1 H     1.0000    0     1.008    3.191655   -4.241124    7.439576
   2 C     6.0000    0    12.011   -8.253290    5.696197    6.646338
   3 C     6.0000    0    12.011   -0.754567   -2.965378    7.377707
   4 N     7.0000    0    14.007    0.172263    1.247257    6.943333
   5 C     6.0000    0    12.011    1.805164   -2.751510    7.314095
   6 H     1.0000    0     1.008   -1.867093   -4.663643    7.565577
   7 C     6.0000    0    12.011    5.407728    3.479694    6.638469
   8 N     7.0000    0    14.007   -0.489901    8.933026    6.200637
   9 C     6.0000    0    12.011   -2.122794   12.931846    5.830453
  10 C     6.0000    0    12.011    4.790204    0.933812    6.899342
  11 C     6.0000    0    12.011    5.053178    7.602686    6.239058
  12 N     7.0000    0    14.007    3.701116    5.413420    6.476731
  13 C     6.0000    0    12.011    7.716607    7.032160    6.251099
  14 C     6.0000    0    12.011   -1.767742   -0.447872    7.143980
  15 C     6.0000    0    12.011    2.373936   -0.101729    7.041177
  16 C     6.0000    0    12.011   -5.370834    2.577607    6.905224
  17 C     6.0000    0    12.011   -5.725351    6.700598    6.505785
  18 C     6.0000    0    12.011   -8.034249    3.148147    6.893162
  19 C     6.0000    0    12.011   -4.326581    0.170994    7.125295
  20 C     6.0000    0    12.011   -5.107832    9.246479    6.244906
  21 C     6.0000    0    12.011    7.935654    4.484099    6.497823
  22 C     6.0000    0    12.011   -2.691571   10.282033    6.103042
  23 C     6.0000    0    12.011    0.436944   13.145729    5.766981
  24 C     6.0000    0    12.011    4.008940   10.009307    6.019023
  25 C     6.0000    0    12.011    1.450100   10.628173    6.000267
  26 H     1.0000    0     1.008   -9.961497    6.806428    6.565470
  27 H     1.0000    0     1.008   -9.528758    1.770503    7.053266
  28 H     1.0000    0     1.008   -5.644268   -1.384379    7.301191
  29 H     1.0000    0     1.008    6.355246   -0.380031    7.003613
  30 H     1.0000    0     1.008    9.643871    3.373872    6.578646
  31 H     1.0000    0     1.008    9.211083    8.409831    6.090987
  32 H     1.0000    0     1.008    5.326641   11.564676    5.843236
  33 H     1.0000    0     1.008    1.549490   14.844008    5.579396
  34 H     1.0000    0     1.008   -6.672901   10.560290    6.140667
  35 H     1.0000    0     1.008   -3.509300   14.421462    5.705132
  36 Mg   12.0000    0    24.305   -0.158817    5.090138    6.572068

--------------------------------
INTERNAL COORDINATES (ANGSTROEM)
--------------------------------
 N      0   0   0     0.000000000000     0.00000000     0.00000000
 H      1   0   0     6.119491276487     0.00000000     0.00000000
 C      1   2   0     2.294177409054   140.92453006     0.00000000
 C      2   1   3     2.194906869500    33.50915004     0.03654954
 N      4   2   1     2.294090550086    95.56469348     0.04751811
 C      2   1   3     1.078931462307     4.27284844     0.40083788
 H      4   2   1     1.078939583961   105.16341269   180.06430126
 C      5   4   2     3.016162461030   125.61516112   359.95655471
 N      1   2   6     2.899761601367   101.32570715   180.34880946
 C      9   1   2     2.294087441504   117.77531267   179.96469761
 C      8   5   4     1.393144250589    53.16437800     0.06876310
 C      8   5   4     2.200021689544   108.37491839   180.08468447
 N     12   8   5     1.367433868161    36.44673543     0.00000000
 C     12   8   5     1.441412676383    73.05033634   180.01204037
 C      5   4   2     1.367422885977    36.31868910   180.00102268
 C      5   4   2     1.367357644410    70.79572404     0.00000000
 C      1   2   6     1.367434647900    70.13306991     0.35586623
 C      1   2   6     1.367487791728   177.24111910     0.97900926
 C      3   1   2     1.359631242567    72.76301102   359.95357395
 C     17   1   2     1.393122060686   125.07310744     0.00000000
 C     18   1  17     1.393143327356   125.09478022   180.00966439
 C     14  12   8     1.359631880754   106.94820236     0.00000000
 C      9   1   2     1.367356903781    81.45605938   180.00111785
 C     10   9   1     1.359689963047    72.76177076   180.05889371
 C     12   8   5     1.393121008199   161.52060847   359.96153148
 C      9   1   2     1.367416327023   171.42924741     0.34052806
 H      3   1   2     1.078940742119   159.26701397   179.95498931
 H     19   3   1     1.078936604777   127.96204490   180.00155066
 H     20  17   1     1.082736356593   116.52889429   179.96077396
 H     11   8   5     1.082734663195   116.52549896   180.00584317
 H     22  14  12     1.078943065563   127.96985474   179.99900777
 H     14  12   8     1.078934265943   125.08876244   180.00062158
 H     25  12   8     1.082734522723   116.52871416   180.07456094
 H     24  10   9     1.078937518569   127.96698994   179.97965206
 H     21  18   1     1.082734010826   116.52436251   179.96628297
 H     10   9   1     1.078932341162   159.27697815     0.03817484
 Mg    13  12   8     2.050360529877   126.45537008   180.01043791

---------------------------
INTERNAL COORDINATES (A.U.)
---------------------------
 N      0   0   0     0.000000000000     0.00000000     0.00000000
 H      1   0   0    11.564162591480     0.00000000     0.00000000
 C      1   2   0     4.335367005742   140.92453006     0.00000000
 C      2   1   3     4.147772872818    33.50915004     0.03654954
 N      4   2   1     4.335202866080    95.56469348     0.04751811
 C      2   1   3     2.038884981031     4.27284844     0.40083788
 H      4   2   1     2.038900328733   105.16341269   180.06430126
 C      5   4   2     5.699721026761   125.61516112   359.95655471
 N      1   2   6     5.479755280244   101.32570715   180.34880946
 C      9   1   2     4.335196991710   117.77531267   179.96469761
 C      8   5   4     2.632661098659    53.16437800     0.06876310
 C      8   5   4     4.157438481924   108.37491839   180.08468447
 N     12   8   5     2.584075517072    36.44673543     0.00000000
 C     12   8   5     2.723875204326    73.05033634   180.01204037
 C      5   4   2     2.584054763752    36.31868910   180.00102268
 C      5   4   2     2.583931475058    70.79572404     0.00000000
 C      1   2   6     2.584076990566    70.13306991     0.35586623
 C      1   2   6     2.584177417846   177.24111910     0.97900926
 C      3   1   2     2.569330691574    72.76301102   359.95357395
 C     17   1   2     2.632619165820   125.07310744     0.00000000
 C     18   1  17     2.632659354002   125.09478022   180.00966439
 C     14  12   8     2.569331897574   106.94820236     0.00000000
 C      9   1   2     2.583930075473    81.45605938   180.00111785
 C     10   9   1     2.569441657201    72.76177076   180.05889371
 C     12   8   5     2.632617176909   161.52060847   359.96153148
 C      9   1   2     2.584042369125   171.42924741     0.34052806
 H      3   1   2     2.038902517335   159.26701397   179.95498931
 H     19   3   1     2.038894698891   127.96204490   180.00155066
 H     20  17   1     2.046075189201   116.52889429   179.96077396
 H     11   8   5     2.046071989142   116.52549896   180.00584317
 H     22  14  12     2.038906908008   127.96985474   179.99900777
 H     14  12   8     2.038890279135   125.08876244   180.00062158
 H     25  12   8     2.046071723688   116.52871416   180.07456094
 H     24  10   9     2.038896425708   127.96698994   179.97965206
 H     21  18   1     2.046070756344   116.52436251   179.96628297
 H     10   9   1     2.038886641826   159.27697815     0.03817484
 Mg    13  12   8     3.874619877269   126.45537008   180.01043791

---------------------
BASIS SET INFORMATION
---------------------
There are 4 groups of distinct atoms

 Group   1 Type N   : 11s6p2d1f contracted to 5s3p2d1f pattern {62111/411/11/1}
 Group   2 Type H   : 5s1p contracted to 3s1p pattern {311/1}
 Group   3 Type C   : 11s6p2d1f contracted to 5s3p2d1f pattern {62111/411/11/1}
 Group   4 Type Mg  : 14s8p3d contracted to 5s4p3d pattern {73211/5111/111}

Atom   0N    basis set group =>   1
Atom   1H    basis set group =>   2
Atom   2C    basis set group =>   3
Atom   3C    basis set group =>   3
Atom   4N    basis set group =>   1
Atom   5C    basis set group =>   3
Atom   6H    basis set group =>   2
Atom   7C    basis set group =>   3
Atom   8N    basis set group =>   1
Atom   9C    basis set group =>   3
Atom  10C    basis set group =>   3
Atom  11C    basis set group =>   3
Atom  12N    basis set group =>   1
Atom  13C    basis set group =>   3
Atom  14C    basis set group =>   3
Atom  15C    basis set group =>   3
Atom  16C    basis set group =>   3
Atom  17C    basis set group =>   3
Atom  18C    basis set group =>   3
Atom  19C    basis set group =>   3
Atom  20C    basis set group =>   3
Atom  21C    basis set group =>   3
Atom  22C    basis set group =>   3
Atom  23C    basis set group =>   3
Atom  24C    basis set group =>   3
Atom  25C    basis set group =>   3
Atom  26H    basis set group =>   2
Atom  27H    basis set group =>   2
Atom  28H    basis set group =>   2
Atom  29H    basis set group =>   2
Atom  30H    basis set group =>   2
Atom  31H    basis set group =>   2
Atom  32H    basis set group =>   2
Atom  33H    basis set group =>   2
Atom  34H    basis set group =>   2
Atom  35H    basis set group =>   2
Atom  36Mg   basis set group =>   4
---------------------------------
AUXILIARY/J BASIS SET INFORMATION
---------------------------------
There are 4 groups of distinct atoms

 Group   1 Type N   : 12s5p4d2f1g contracted to 6s4p3d1f1g pattern {711111/2111/211/2/1}
 Group   2 Type H   : 5s2p1d contracted to 3s1p1d pattern {311/2/1}
 Group   3 Type C   : 12s5p4d2f1g contracted to 6s4p3d1f1g pattern {711111/2111/211/2/1}
 Group   4 Type Mg  : 14s5p5d2f1g contracted to 8s4p4d1f1g pattern {71111111/2111/2111/2/1}

Atom   0N    basis set group =>   1
Atom   1H    basis set group =>   2
Atom   2C    basis set group =>   3
Atom   3C    basis set group =>   3
Atom   4N    basis set group =>   1
Atom   5C    basis set group =>   3
Atom   6H    basis set group =>   2
Atom   7C    basis set group =>   3
Atom   8N    basis set group =>   1
Atom   9C    basis set group =>   3
Atom  10C    basis set group =>   3
Atom  11C    basis set group =>   3
Atom  12N    basis set group =>   1
Atom  13C    basis set group =>   3
Atom  14C    basis set group =>   3
Atom  15C    basis set group =>   3
Atom  16C    basis set group =>   3
Atom  17C    basis set group =>   3
Atom  18C    basis set group =>   3
Atom  19C    basis set group =>   3
Atom  20C    basis set group =>   3
Atom  21C    basis set group =>   3
Atom  22C    basis set group =>   3
Atom  23C    basis set group =>   3
Atom  24C    basis set group =>   3
Atom  25C    basis set group =>   3
Atom  26H    basis set group =>   2
Atom  27H    basis set group =>   2
Atom  28H    basis set group =>   2
Atom  29H    basis set group =>   2
Atom  30H    basis set group =>   2
Atom  31H    basis set group =>   2
Atom  32H    basis set group =>   2
Atom  33H    basis set group =>   2
Atom  34H    basis set group =>   2
Atom  35H    basis set group =>   2
Atom  36Mg   basis set group =>   4


           ************************************************************
           *        Program running with 4 parallel MPI-processes     *
           *              working on a common directory               *
           ************************************************************
------------------------------------------------------------------------------
                             ORCA STARTUP CALCULATIONS
                           -- RI-GTO INTEGRALS CHOSEN --
------------------------------------------------------------------------------
------------------------------------------------------------------------------
                   ___                                                        
                  /   \      - P O W E R E D   B Y -                         
                 /     \                                                     
                 |  |  |   _    _      __       _____    __    __             
                 |  |  |  | |  | |    /  \     |  _  \  |  |  /  |          
                  \  \/   | |  | |   /    \    | | | |  |  | /  /          
                 / \  \   | |__| |  /  /\  \   | |_| |  |  |/  /          
                |  |  |   |  __  | /  /__\  \  |    /   |      \           
                |  |  |   | |  | | |   __   |  |    \   |  |\   \          
                \     /   | |  | | |  |  |  |  | |\  \  |  | \   \       
                 \___/    |_|  |_| |__|  |__|  |_| \__\ |__|  \__/        
                                                                              
                      - O R C A' S   B I G   F R I E N D -                    
                                      &                                       
                       - I N T E G R A L  F E E D E R -                       
                                                                              
 v1 FN, 2020, v2 2021, v3 2022-2024                                           
------------------------------------------------------------------------------


----------------------
SHARK INTEGRAL PACKAGE
----------------------

Number of atoms                             ...     37
Number of basis functions                   ...    848
Number of shells                            ...    324
Maximum angular momentum                    ...      3
Integral batch strategy                     ... SHARK/LIBINT Hybrid
RI-J (if used) integral strategy            ... SPLIT-RIJ (Revised 2003 algorithm where possible)
Printlevel                                  ...      1
Contraction scheme used                     ... SEGMENTED contraction
Prescreening option                         ... SCHWARTZ
   Thresh                                   ... 2.500e-11
   Tcut                                     ... 2.500e-12
   Tpresel                                  ... 2.500e-12 
Coulomb Range Separation                    ... NOT USED
Exchange Range Separation                   ... NOT USED
Multipole approximations                    ... NOT USED
Finite Nucleus Model                        ... NOT USED
CABS basis                                  ... NOT available
Auxiliary Coulomb fitting basis             ... AVAILABLE
   # of basis functions in Aux-J            ...   1364
   # of shells in Aux-J                     ...    438
   Maximum angular momentum in Aux-J        ...      4
Auxiliary J/K fitting basis                 ... NOT available
Auxiliary Correlation fitting basis         ... NOT available
Auxiliary 'external' fitting basis          ... NOT available

Checking pre-screening integrals            ... done (  0.0 sec) Dimension = 324
   => SHARK Basis and OBASIS are compatible. Storing Pre-screening
Shell pair information
Shell pair cut-off parameter TPreSel        ...   2.5e-12
Total number of shell pairs                 ...     52650
Shell pairs after pre-screening             ...     37452
Total number of primitive shell pairs       ...    167352
Primitive shell pairs kept                  ...     77858
          la=0 lb=0:   8711 shell pairs
          la=1 lb=0:  10604 shell pairs
          la=1 lb=1:   3186 shell pairs
          la=2 lb=0:   5583 shell pairs
          la=2 lb=1:   3500 shell pairs
          la=2 lb=2:    986 shell pairs
          la=3 lb=0:   2388 shell pairs
          la=3 lb=1:   1536 shell pairs
          la=3 lb=2:    788 shell pairs
          la=3 lb=3:    170 shell pairs

Checking whether 4 symmetric matrices of dimension 848 fit in memory
:Max Core in MB      =   3000.00
 MB in use           =     49.24
 MB left             =   2950.76
 MB needed           =     10.99
 Data fit in memory  = YES
Calculating RI/J V-Matrix + Cholesky decomp.... done (  0.2 sec)
Calculating Nuclear repulsion               ... done (  0.0 sec) ENN=   2121.711186967779 Eh

Diagonalization of the overlap matrix:
Smallest eigenvalue                        ... 1.003e-05
Time for diagonalization                   ...    0.194 sec
Threshold for overlap eigenvalues          ... 1.000e-07
Number of eigenvalues below threshold      ... 0
Time for construction of square roots      ...    0.109 sec
Total time needed                          ...    0.311 sec

-------------------
DFT GRID GENERATION
-------------------

General Integration Accuracy     IntAcc      ... 4.959
Radial Grid Type                 RadialGrid  ... OptM3 with GC (2021)
Angular Grid (max. ang.)         AngularGrid ... 6 (Lebedev-590)
Angular grid pruning method      GridPruning ... 4 (adaptive)
Weight generation scheme         WeightScheme... mBecke (2022)
Basis function cutoff            BFCut       ... 1.0000e-11
Integration weight cutoff        WCut        ... 1.0000e-14
Partially contracted basis set               ... off
Rotationally invariant grid construction     ... off
Angular grids for H and He will be reduced by one unit

Total number of grid points                  ...   456655
Total number of batches                      ...     7152
Average number of points per batch           ...       63
Average number of grid points per atom       ...    12342

--------------------
COSX GRID GENERATION
--------------------

GRIDX 1
-------
General Integration Accuracy     IntAcc      ... 4.020
Radial Grid Type                 RadialGrid  ... OptM3 with GC (2021)
Angular Grid (max. ang.)         AngularGrid ... 2 (Lebedev-110)
Angular grid pruning method      GridPruning ... 4 (adaptive)
Weight generation scheme         WeightScheme... mBecke (2022)
Basis function cutoff            BFCut       ... 1.0000e-11
Integration weight cutoff        WCut        ... 1.0000e-14
Partially contracted basis set               ... on
Rotationally invariant grid construction     ... off
Angular grids for H and He will be reduced by one unit

Total number of grid points                  ...    52690
Total number of batches                      ...      428
Average number of points per batch           ...      123
Average number of grid points per atom       ...     1424
UseSFitting                                  ... on

GRIDX 2
-------
General Integration Accuracy     IntAcc      ... 4.338
Radial Grid Type                 RadialGrid  ... OptM3 with GC (2021)
Angular Grid (max. ang.)         AngularGrid ... 3 (Lebedev-194)
Angular grid pruning method      GridPruning ... 4 (adaptive)
Weight generation scheme         WeightScheme... mBecke (2022)
Basis function cutoff            BFCut       ... 1.0000e-11
Integration weight cutoff        WCut        ... 1.0000e-14
Partially contracted basis set               ... on
Rotationally invariant grid construction     ... off
Angular grids for H and He will be reduced by one unit

Total number of grid points                  ...   116101
Total number of batches                      ...      923
Average number of points per batch           ...      125
Average number of grid points per atom       ...     3138
UseSFitting                                  ... on

GRIDX 3
-------
General Integration Accuracy     IntAcc      ... 4.871
Radial Grid Type                 RadialGrid  ... OptM3 with GC (2021)
Angular Grid (max. ang.)         AngularGrid ... 4 (Lebedev-302)
Angular grid pruning method      GridPruning ... 4 (adaptive)
Weight generation scheme         WeightScheme... mBecke (2022)
Basis function cutoff            BFCut       ... 1.0000e-11
Integration weight cutoff        WCut        ... 1.0000e-14
Partially contracted basis set               ... on
Rotationally invariant grid construction     ... off
Angular grids for H and He will be reduced by one unit

Total number of grid points                  ...   212436
Total number of batches                      ...     1675
Average number of points per batch           ...      126
Average number of grid points per atom       ...     5742
UseSFitting                                  ... on
Grids setup in  14.4 sec
Initializing property integral containers    ... done (  0.0 sec)

SHARK setup successfully completed in  15.8 seconds

Maximum memory used throughout the entire STARTUP-calculation: 148.4 MB


           ************************************************************
           *        Program running with 4 parallel MPI-processes     *
           *              working on a common directory               *
           ************************************************************
-------------------------------------------------------------------------------
                                 ORCA GUESS
                   Start orbitals & Density for SCF / CASSCF
-------------------------------------------------------------------------------

------------
SCF SETTINGS
------------
Hamiltonian:
 Density Functional     Method          .... DFT(GTOs)
 Exchange Functional    Exchange        .... PBE
   PBE kappa parameter   XKappa         ....  0.804000
   PBE mue parameter    XMuePBE         ....  0.219520
 Correlation Functional Correlation     .... PBE
   PBE beta parameter  CBetaPBE         ....  0.066725
 LDA part of GGA corr.  LDAOpt          .... PW91-LDA
 Gradients option       PostSCFGGA      .... off
 Hybrid DFT is turned on
   Fraction HF Exchange ScalHFX         ....  0.250000
   Scaling of DF-GGA-X  ScalDFX         ....  0.750000
   Scaling of DF-GGA-C  ScalDFC         ....  1.000000
   Scaling of DF-LDA-C  ScalLDAC        ....  1.000000
   Perturbative correction              ....  0.000000
   NL short-range parameter             ....  6.900000
 RI-approximation to the Coulomb term is turned on
   Number of AuxJ basis functions       .... 1364
   RIJ-COSX (HFX calculated with COS-X)).... on


General Settings:
 Integral files         IntName         .... tddft
 Hartree-Fock type      HFTyp           .... RHF
 Total Charge           Charge          ....    0
 Multiplicity           Mult            ....    1
 Number of Electrons    NEL             ....  172
 Basis Dimension        Dim             ....  848
 Nuclear Repulsion      ENuc            ....   2121.7111869678 Eh

Convergence Acceleration:
 AO-DIIS                CNVDIIS         .... on
   Start iteration      DIISMaxIt       ....    12
   Startup error        DIISStart       ....  0.200000
   # of expansion vecs  DIISMaxEq       ....     5
   Bias factor          DIISBfac        ....   1.050
   Max. coefficient     DIISMaxC        ....  10.000
 MO-DIIS                CNVKDIIS        .... off
 Trust-Rad. Augm. Hess. CNVTRAH         .... auto
   Auto Start mean grad. ratio tolernc. ....  1.125000
   Auto Start start iteration           ....    50
   Auto Start num. interpolation iter.  ....    10
   Max. Number of Micro iterations      ....    24
   Max. Number of Macro iterations      .... Maxiter - #DIIS iter
   Number of Davidson start vectors     ....     2
   Converg. threshold    (grad. norm)   ....   1.000e-05
   Grad. Scal. Fac. for Micro threshold ....   0.100
   Minimum threshold for Micro iter.    ....   1.000e-02
   NR start threshold (gradient norm)   ....   1.000e-04
   Initial trust radius                 ....   0.400
   Minimum AH scaling param. (alpha)    ....   1.000
   Maximum AH scaling param. (alpha)    .... 1000.000
   Quad. conv. algorithm                .... NR
   White noise on init. David. guess    .... on
   Maximum white noise                  ....   0.010
   Pseudo random numbers                .... off
   Inactive MOs                         .... canonical
   Orbital update algorithm             .... Taylor
   Preconditioner                       .... Diag
   Full preconditioner red. dimension   ....   250
 SOSCF                 CNVSOSCF           .... on
   Start iteration     SOSCFMaxIt         ....   150
   Startup grad/error  SOSCFStart         ....  0.003300
   Hessian update      SOSCFHessUp        .... L-BFGS
   Autom. constraints  SOSCFAutoConstrain .... off
 Level Shifting         CNVShift        .... on
   Level shift para.    LevelShift      ....    0.2500
   Turn off err/grad.   ShiftErr        ....    0.0010
 Zerner damping         CNVZerner       .... off
 Static damping         CNVDamp         .... on
   Fraction old density DampFac         ....    0.7000
   Max. Damping (<1)    DampMax         ....    0.9800
   Min. Damping (>=0)   DampMin         ....    0.0000
   Turn off err/grad.   DampErr         ....    0.1000

SCF Procedure:
 Maximum # iterations   MaxIter         ....   125
 SCF integral mode      SCFMode         .... Direct
   Integral package                     .... SHARK and LIBINT hybrid scheme
 Reset frequency        DirectResetFreq ....    20
 Integral Threshold     Thresh          ....  2.500e-11 Eh
 Primitive CutOff       TCut            ....  2.500e-12 Eh

Convergence Tolerance:
 Convergence Check Mode ConvCheckMode   .... Total+1el-Energy
 Convergence forced     ConvForced      .... 1
 Energy Change          TolE            ....  1.000e-08 Eh
 1-El. energy change                    ....  1.000e-05 Eh
 Orbital Gradient       TolG            ....  1.000e-05
 Orbital Rotation angle TolX            ....  1.000e-05
 DIIS Error             TolErr          ....  5.000e-07

------------------------------
INITIAL GUESS: MODEL POTENTIAL
------------------------------
Loading Hartree-Fock densities                     ... done
Calculating cut-offs                               ... done
Initializing the effective Hamiltonian             ... done
Setting up the integral package (SHARK)            ... done
Starting the Coulomb interaction                   ... done (   1.6 sec)
Making the grid                                    ... done (   0.6 sec)
Mapping shells                                     ... done
Starting the XC term evaluation                    ... done (   0.9 sec)
  promolecular density results
     # of electrons  =    171.995110955
     EX              =   -148.115499445
     EC              =     -5.855479608
     EX+EC           =   -153.970979052
Transforming the Hamiltonian                       ... done (   0.1 sec)
Diagonalizing the Hamiltonian                      ... done (   0.2 sec)
Back transforming the eigenvectors                 ... done (   0.1 sec)
Now organizing SCF variables                       ... done
                      ------------------
                      INITIAL GUESS DONE (   3.5 sec)
                      ------------------
             **** ENERGY FILE WAS UPDATED (tddft.en.tmp) ****
Finished Guess after   4.0 sec
Maximum memory used throughout the entire GUESS-calculation: 83.5 MB


           ************************************************************
           *        Program running with 4 parallel MPI-processes     *
           *              working on a common directory               *
           ************************************************************

-------------------------------------------------------------------------------------------
                                      ORCA LEAN-SCF
                              memory conserving SCF solver
-------------------------------------------------------------------------------------------

----------------------------------------D-I-I-S--------------------------------------------
Iteration    Energy (Eh)           Delta-E    RMSDP     MaxDP     DIISErr   Damp  Time(sec)
-------------------------------------------------------------------------------------------
               ***  Starting incremental Fock matrix formation  ***
    1    -1187.1559734248376117     0.00e+00  1.79e-03  4.17e-02  2.20e-01  0.700  84.5
    2    -1187.3946324136149997    -2.39e-01  1.35e-03  3.16e-02  1.04e-01  0.700  39.7
                               ***Turning on AO-DIIS***
    3    -1187.4972399548041722    -1.03e-01  7.06e-04  1.83e-02  3.66e-02  0.700  38.8
    4    -1187.5584325874633578    -6.12e-02  1.39e-03  3.72e-02  2.19e-02  0.000  36.8
    5    -1187.6895590554022419    -1.31e-01  1.98e-04  4.82e-03  4.82e-03  0.000  38.0
                              *** Initializing SOSCF ***
---------------------------------------S-O-S-C-F--------------------------------------
Iteration    Energy (Eh)           Delta-E    RMSDP     MaxDP     MaxGrad    Time(sec)
--------------------------------------------------------------------------------------
    6    -1187.6902571743494264    -6.98e-04  8.90e-05  1.61e-03  1.31e-03    33.3
               *** Restarting incremental Fock matrix formation ***
    7    -1187.6902829370565087    -2.58e-05  7.60e-05  1.51e-03  2.14e-04   116.2
    8    -1187.6902845632230310    -1.63e-06  2.71e-05  5.29e-04  2.23e-04    57.8
    9    -1187.6902863002433151    -1.74e-06  2.08e-05  3.99e-04  1.01e-04    52.5
   10    -1187.6902865523265973    -2.52e-07  5.27e-06  1.76e-04  4.79e-05    76.9
   11    -1187.6902867253274962    -1.73e-07  8.15e-06  2.65e-04  1.70e-05    41.6
   12    -1187.6902867450630765    -1.97e-08  4.66e-06  1.31e-04  9.40e-06    41.9
   13    -1187.6902867410026374     4.06e-09  6.94e-06  2.55e-04  4.72e-06    44.1
                 **** Energy Check signals convergence ****

               *****************************************************
               *                     SUCCESS                       *
               *           SCF CONVERGED AFTER  13 CYCLES          *
               *****************************************************

Recomputing exchange energy using gridx3       ... done (  160.014 sec)
Old exchange energy                            :    -37.676445434 Eh
New exchange energy                            :    -37.676444632 Eh
Exchange energy change after final integration :      0.000000802 Eh
Total energy after final integration           :  -1187.690285960 Eh
             **** ENERGY FILE WAS UPDATED (tddft.en.tmp) ****

----------------
TOTAL SCF ENERGY
----------------

Total Energy       :      -1187.69028595999566 Eh          -32318.69573 eV

Components:
Nuclear Repulsion  :       2121.71118696777876 Eh           57734.69657 eV
Electronic Energy  :      -3309.40147372985757 Eh          -90053.39233 eV
One Electron Energy:      -5838.50590939081849 Eh         -158873.82278 eV
Two Electron Energy:       2529.10443566096092 Eh           68820.43046 eV

Virial components:
Potential Energy   :      -2369.97622099422506 Eh          -64490.33160 eV
Kinetic Energy     :       1182.28593503422940 Eh           32171.63587 eV
Virial Ratio       :          2.00457110311949

DFT components:
N(Alpha)           :       86.000002328723 electrons
N(Beta)            :       86.000002328723 electrons
N(Total)           :      172.000004657446 electrons
E(X)               :     -112.766230343273 Eh       
E(C)               :       -5.863607355699 Eh       
E(XC)              :     -118.629837698972 Eh       

---------------
SCF CONVERGENCE
---------------

  Last Energy change         ...   -4.0604e-09  Tolerance :   1.0000e-08
  Last MAX-Density change    ...    2.5529e-04  Tolerance :   1.0000e-07
  Last RMS-Density change    ...    6.9367e-06  Tolerance :   5.0000e-09
  Last DIIS Error            ...    1.3115e-03  Tolerance :   5.0000e-07
  Last Orbital Gradient      ...    4.7220e-06  Tolerance :   1.0000e-05
  Last Orbital Rotation      ...    1.4688e-05  Tolerance :   1.0000e-05


----------------
ORBITAL ENERGIES
----------------

  NO   OCC          E(Eh)            E(eV) 
   0   2.0000     -46.867916     -1275.3408 
   1   2.0000     -14.374530      -391.1509 
   2   2.0000     -14.374525      -391.1507 
   3   2.0000     -14.374519      -391.1505 
   4   2.0000     -14.374514      -391.1504 
   5   2.0000     -10.261340      -279.2253 
   6   2.0000     -10.261336      -279.2252 
   7   2.0000     -10.261330      -279.2250 
   8   2.0000     -10.261325      -279.2249 
   9   2.0000     -10.261306      -279.2243 
  10   2.0000     -10.261305      -279.2243 
  11   2.0000     -10.261298      -279.2241 
  12   2.0000     -10.261298      -279.2241 
  13   2.0000     -10.235713      -278.5279 
  14   2.0000     -10.235708      -278.5278 
  15   2.0000     -10.235707      -278.5278 
  16   2.0000     -10.235702      -278.5276 
  17   2.0000     -10.227859      -278.3142 
  18   2.0000     -10.227859      -278.3142 
  19   2.0000     -10.227855      -278.3141 
  20   2.0000     -10.227853      -278.3140 
  21   2.0000     -10.227078      -278.2929 
  22   2.0000     -10.227077      -278.2929 
  23   2.0000     -10.227075      -278.2928 
  24   2.0000     -10.227074      -278.2928 
  25   2.0000      -3.091443       -84.1224 
  26   2.0000      -1.818464       -49.4829 
  27   2.0000      -1.812525       -49.3213 
  28   2.0000      -1.812525       -49.3213 
  29   2.0000      -0.992636       -27.0110 
  30   2.0000      -0.983953       -26.7747 
  31   2.0000      -0.983929       -26.7741 
  32   2.0000      -0.974384       -26.5143 
  33   2.0000      -0.841702       -22.9039 
  34   2.0000      -0.814737       -22.1701 
  35   2.0000      -0.814736       -22.1701 
  36   2.0000      -0.795654       -21.6508 
  37   2.0000      -0.789995       -21.4969 
  38   2.0000      -0.789982       -21.4965 
  39   2.0000      -0.786188       -21.3933 
  40   2.0000      -0.763863       -20.7858 
  41   2.0000      -0.739553       -20.1242 
  42   2.0000      -0.676719       -18.4144 
  43   2.0000      -0.676710       -18.4142 
  44   2.0000      -0.616490       -16.7755 
  45   2.0000      -0.596038       -16.2190 
  46   2.0000      -0.591302       -16.0902 
  47   2.0000      -0.591294       -16.0899 
  48   2.0000      -0.588284       -16.0080 
  49   2.0000      -0.567518       -15.4429 
  50   2.0000      -0.557879       -15.1807 
  51   2.0000      -0.540769       -14.7151 
  52   2.0000      -0.540758       -14.7148 
  53   2.0000      -0.527487       -14.3537 
  54   2.0000      -0.513602       -13.9758 
  55   2.0000      -0.513601       -13.9758 
  56   2.0000      -0.462208       -12.5773 
  57   2.0000      -0.451336       -12.2815 
  58   2.0000      -0.446617       -12.1531 
  59   2.0000      -0.438469       -11.9314 
  60   2.0000      -0.438454       -11.9309 
  61   2.0000      -0.436298       -11.8723 
  62   2.0000      -0.431916       -11.7530 
  63   2.0000      -0.431907       -11.7528 
  64   2.0000      -0.424669       -11.5558 
  65   2.0000      -0.409252       -11.1363 
  66   2.0000      -0.404346       -11.0028 
  67   2.0000      -0.404332       -11.0024 
  68   2.0000      -0.398342       -10.8394 
  69   2.0000      -0.388580       -10.5738 
  70   2.0000      -0.388572       -10.5736 
  71   2.0000      -0.384211       -10.4549 
  72   2.0000      -0.380247       -10.3470 
  73   2.0000      -0.380011       -10.3406 
  74   2.0000      -0.341081        -9.2813 
  75   2.0000      -0.329354        -8.9622 
  76   2.0000      -0.329334        -8.9616 
  77   2.0000      -0.300035        -8.1644 
  78   2.0000      -0.297097        -8.0844 
  79   2.0000      -0.297095        -8.0844 
  80   2.0000      -0.276164        -7.5148 
  81   2.0000      -0.264965        -7.2101 
  82   2.0000      -0.264957        -7.2098 
  83   2.0000      -0.261144        -7.1061 
  84   2.0000      -0.208116        -5.6631 
  85   2.0000      -0.207154        -5.6369 
  86   0.0000      -0.087957        -2.3934 
  87   0.0000      -0.087946        -2.3931 
  88   0.0000      -0.025200        -0.6857 
  89   0.0000       0.019599         0.5333 
  90   0.0000       0.040479         1.1015 
  91   0.0000       0.045957         1.2505 
  92   0.0000       0.055582         1.5125 
  93   0.0000       0.055591         1.5127 
  94   0.0000       0.062973         1.7136 
  95   0.0000       0.065497         1.7823 
  96   0.0000       0.065503         1.7824 
*Only the first 10 virtual orbitals were printed.

                    ********************************
                    * MULLIKEN POPULATION ANALYSIS *
                    ********************************

-----------------------
MULLIKEN ATOMIC CHARGES
-----------------------
   0 N :   -0.329711
   1 H :    0.118911
   2 C :   -0.215466
   3 C :   -0.215378
   4 N :   -0.329827
   5 C :   -0.215376
   6 H :    0.118992
   7 C :    0.352735
   8 N :   -0.329839
   9 C :   -0.215324
  10 C :   -0.461267
  11 C :    0.352784
  12 N :   -0.329709
  13 C :   -0.215389
  14 C :    0.353010
  15 C :    0.352710
  16 C :    0.352732
  17 C :    0.352684
  18 C :   -0.215386
  19 C :   -0.461587
  20 C :   -0.461148
  21 C :   -0.215442
  22 C :    0.352581
  23 C :   -0.215373
  24 C :   -0.461673
  25 C :    0.353078
  26 H :    0.118974
  27 H :    0.118954
  28 H :    0.114740
  29 H :    0.114713
  30 H :    0.118980
  31 H :    0.118944
  32 H :    0.114740
  33 H :    0.118978
  34 H :    0.114727
  35 H :    0.118917
  36 Mg:    0.655012
Sum of atomic charges:    0.0000000

--------------------------------
MULLIKEN REDUCED ORBITAL CHARGES
--------------------------------
  0 N s       :     3.638991  s :     3.638991
      pz      :     1.356195  p :     3.626931
      px      :     1.244512
      py      :     1.026224
      dz2     :     0.004772  d :     0.060143
      dxz     :     0.006008
      dyz     :     0.014048
      dx2y2   :     0.017054
      dxy     :     0.018261
      f0      :     0.000650  f :     0.003645
      f+1     :     0.000315
      f-1     :     0.000438
      f+2     :     0.000106
      f-2     :     0.000582
      f+3     :     0.000636
      f-3     :     0.000918

  1 H s       :     0.858646  s :     0.858646
      pz      :     0.004938  p :     0.022443
      px      :     0.008237
      py      :     0.009269

  2 C s       :     3.258341  s :     3.258341
      pz      :     0.995810  p :     2.864963
      px      :     0.911888
      py      :     0.957265
      dz2     :     0.005562  d :     0.084412
      dxz     :     0.010279
      dyz     :     0.019683
      dx2y2   :     0.018255
      dxy     :     0.030632
      f0      :     0.001459  f :     0.007750
      f+1     :     0.000777
      f-1     :     0.000650
      f+2     :     0.000959
      f-2     :     0.000426
      f+3     :     0.002291
      f-3     :     0.001189

  3 C s       :     3.258197  s :     3.258197
      pz      :     0.995347  p :     2.865022
      px      :     0.956920
      py      :     0.912755
      dz2     :     0.005137  d :     0.084409
      dxz     :     0.020305
      dyz     :     0.010118
      dx2y2   :     0.018186
      dxy     :     0.030664
      f0      :     0.001500  f :     0.007750
      f+1     :     0.000556
      f-1     :     0.000795
      f+2     :     0.001011
      f-2     :     0.000418
      f+3     :     0.001165
      f-3     :     0.002306

  4 N s       :     3.639094  s :     3.639094
      pz      :     1.358130  p :     3.626933
      px      :     1.023120
      py      :     1.245683
      dz2     :     0.004598  d :     0.060154
      dxz     :     0.014283
      dyz     :     0.005910
      dx2y2   :     0.017021
      dxy     :     0.018342
      f0      :     0.000654  f :     0.003646
      f+1     :     0.000426
      f-1     :     0.000322
      f+2     :     0.000102
      f-2     :     0.000579
      f+3     :     0.000926
      f-3     :     0.000637

  5 C s       :     3.258276  s :     3.258276
      pz      :     0.995482  p :     2.864941
      px      :     0.954893
      py      :     0.914567
      dz2     :     0.005364  d :     0.084409
      dxz     :     0.017901
      dyz     :     0.012263
      dx2y2   :     0.019044
      dxy     :     0.029837
      f0      :     0.001490  f :     0.007750
      f+1     :     0.000593
      f-1     :     0.000776
      f+2     :     0.001278
      f-2     :     0.000137
      f+3     :     0.001352
      f-3     :     0.002124

  6 H s       :     0.858563  s :     0.858563
      pz      :     0.004985  p :     0.022445
      px      :     0.006578
      py      :     0.010882

  7 C s       :     3.084822  s :     3.084822
      pz      :     0.901887  p :     2.381199
      px      :     0.758566
      py      :     0.720747
      dz2     :     0.005301  d :     0.166750
      dxz     :     0.030833
      dyz     :     0.038067
      dx2y2   :     0.050938
      dxy     :     0.041612
      f0      :     0.002118  f :     0.014494
      f+1     :     0.000922
      f-1     :     0.001110
      f+2     :     0.000702
      f-2     :     0.002306
      f+3     :     0.003525
      f-3     :     0.003811

  8 N s       :     3.639101  s :     3.639101
      pz      :     1.358123  p :     3.626937
      px      :     1.023123
      py      :     1.245691
      dz2     :     0.004598  d :     0.060154
      dxz     :     0.014283
      dyz     :     0.005910
      dx2y2   :     0.017021
      dxy     :     0.018342
      f0      :     0.000654  f :     0.003646
      f+1     :     0.000426
      f-1     :     0.000322
      f+2     :     0.000102
      f-2     :     0.000579
      f+3     :     0.000926
      f-3     :     0.000637

  9 C s       :     3.258168  s :     3.258168
      pz      :     0.995490  p :     2.864998
      px      :     0.954916
      py      :     0.914592
      dz2     :     0.005363  d :     0.084409
      dxz     :     0.017900
      dyz     :     0.012264
      dx2y2   :     0.019044
      dxy     :     0.029838
      f0      :     0.001490  f :     0.007750
      f+1     :     0.000593
      f-1     :     0.000776
      f+2     :     0.001278
      f-2     :     0.000137
      f+3     :     0.001352
      f-3     :     0.002124

 10 C s       :     3.408120  s :     3.408120
      pz      :     1.015436  p :     2.968086
      px      :     0.975653
      py      :     0.976997
      dz2     :     0.003543  d :     0.077914
      dxz     :     0.014171
      dyz     :     0.017932
      dx2y2   :     0.009815
      dxy     :     0.032452
      f0      :     0.001386  f :     0.007147
      f+1     :     0.000639
      f-1     :     0.000706
      f+2     :     0.000778
      f-2     :     0.000442
      f+3     :     0.001849
      f-3     :     0.001346

 11 C s       :     3.085145  s :     3.085145
      pz      :     0.901504  p :     2.380804
      px      :     0.770566
      py      :     0.708734
      dz2     :     0.005386  d :     0.166772
      dxz     :     0.029853
      dyz     :     0.038989
      dx2y2   :     0.050159
      dxy     :     0.042385
      f0      :     0.002118  f :     0.014494
      f+1     :     0.000862
      f-1     :     0.001170
      f+2     :     0.001124
      f-2     :     0.001891
      f+3     :     0.002353
      f-3     :     0.004976

 12 N s       :     3.638987  s :     3.638987
      pz      :     1.356198  p :     3.626933
      px      :     1.244520
      py      :     1.026215
      dz2     :     0.004772  d :     0.060144
      dxz     :     0.006008
      dyz     :     0.014048
      dx2y2   :     0.017055
      dxy     :     0.018261
      f0      :     0.000650  f :     0.003645
      f+1     :     0.000315
      f-1     :     0.000438
      f+2     :     0.000106
      f-2     :     0.000582
      f+3     :     0.000636
      f-3     :     0.000918

 13 C s       :     3.258184  s :     3.258184
      pz      :     0.995803  p :     2.865044
      px      :     0.913851
      py      :     0.955390
      dz2     :     0.005342  d :     0.084412
      dxz     :     0.012645
      dyz     :     0.017562
      dx2y2   :     0.019141
      dxy     :     0.029723
      f0      :     0.001469  f :     0.007750
      f+1     :     0.000714
      f-1     :     0.000695
      f+2     :     0.001245
      f-2     :     0.000153
      f+3     :     0.002104
      f-3     :     0.001370

 14 C s       :     3.084670  s :     3.084670
      pz      :     0.901968  p :     2.381064
      px      :     0.719076
      py      :     0.760021
      dz2     :     0.005049  d :     0.166761
      dxz     :     0.039024
      dyz     :     0.030248
      dx2y2   :     0.050733
      dxy     :     0.041706
      f0      :     0.002146  f :     0.014495
      f+1     :     0.001055
      f-1     :     0.000936
      f+2     :     0.000728
      f-2     :     0.002275
      f+3     :     0.003834
      f-3     :     0.003520

 15 C s       :     3.085061  s :     3.085061
      pz      :     0.902300  p :     2.380962
      px      :     0.706800
      py      :     0.771862
      dz2     :     0.004983  d :     0.166772
      dxz     :     0.040042
      dyz     :     0.029300
      dx2y2   :     0.049972
      dxy     :     0.042475
      f0      :     0.002147  f :     0.014496
      f+1     :     0.001088
      f-1     :     0.000902
      f+2     :     0.001088
      f-2     :     0.001907
      f+3     :     0.005007
      f-3     :     0.002356

 16 C s       :     3.085131  s :     3.085131
      pz      :     0.901508  p :     2.380868
      px      :     0.770609
      py      :     0.708752
      dz2     :     0.005386  d :     0.166773
      dxz     :     0.029854
      dyz     :     0.038989
      dx2y2   :     0.050160
      dxy     :     0.042385
      f0      :     0.002118  f :     0.014494
      f+1     :     0.000862
      f-1     :     0.001170
      f+2     :     0.001124
      f-2     :     0.001891
      f+3     :     0.002353
      f-3     :     0.004976

 17 C s       :     3.084892  s :     3.084892
      pz      :     0.901888  p :     2.381179
      px      :     0.758506
      py      :     0.720785
      dz2     :     0.005302  d :     0.166751
      dxz     :     0.030833
      dyz     :     0.038066
      dx2y2   :     0.050940
      dxy     :     0.041610
      f0      :     0.002118  f :     0.014494
      f+1     :     0.000922
      f-1     :     0.001110
      f+2     :     0.000702
      f-2     :     0.002306
      f+3     :     0.003525
      f-3     :     0.003811

 18 C s       :     3.258166  s :     3.258166
      pz      :     0.995810  p :     2.865056
      px      :     0.913868
      py      :     0.955377
      dz2     :     0.005342  d :     0.084415
      dxz     :     0.012645
      dyz     :     0.017562
      dx2y2   :     0.019140
      dxy     :     0.029725
      f0      :     0.001469  f :     0.007750
      f+1     :     0.000714
      f-1     :     0.000695
      f+2     :     0.001245
      f-2     :     0.000153
      f+3     :     0.002104
      f-3     :     0.001370

 19 C s       :     3.408341  s :     3.408341
      pz      :     1.015387  p :     2.968182
      px      :     0.976660
      py      :     0.976135
      dz2     :     0.003177  d :     0.077917
      dxz     :     0.018670
      dyz     :     0.013796
      dx2y2   :     0.009860
      dxy     :     0.032415
      f0      :     0.001413  f :     0.007147
      f+1     :     0.000628
      f-1     :     0.000672
      f+2     :     0.000790
      f-2     :     0.000440
      f+3     :     0.001340
      f-3     :     0.001864

 20 C s       :     3.407933  s :     3.407933
      pz      :     1.015429  p :     2.968149
      px      :     0.975717
      py      :     0.977004
      dz2     :     0.003542  d :     0.077918
      dxz     :     0.014171
      dyz     :     0.017933
      dx2y2   :     0.009818
      dxy     :     0.032454
      f0      :     0.001386  f :     0.007147
      f+1     :     0.000639
      f-1     :     0.000706
      f+2     :     0.000778
      f-2     :     0.000442
      f+3     :     0.001849
      f-3     :     0.001346

 21 C s       :     3.258274  s :     3.258274
      pz      :     0.995806  p :     2.865007
      px      :     0.911907
      py      :     0.957294
      dz2     :     0.005562  d :     0.084411
      dxz     :     0.010279
      dyz     :     0.019683
      dx2y2   :     0.018256
      dxy     :     0.030631
      f0      :     0.001459  f :     0.007750
      f+1     :     0.000777
      f-1     :     0.000649
      f+2     :     0.000959
      f-2     :     0.000426
      f+3     :     0.002291
      f-3     :     0.001189

 22 C s       :     3.085114  s :     3.085114
      pz      :     0.902313  p :     2.381031
      px      :     0.706802
      py      :     0.771916
      dz2     :     0.004983  d :     0.166777
      dxz     :     0.040041
      dyz     :     0.029302
      dx2y2   :     0.049975
      dxy     :     0.042476
      f0      :     0.002147  f :     0.014496
      f+1     :     0.001088
      f-1     :     0.000902
      f+2     :     0.001088
      f-2     :     0.001907
      f+3     :     0.005007
      f-3     :     0.002356

 23 C s       :     3.258263  s :     3.258263
      pz      :     0.995340  p :     2.864952
      px      :     0.956892
      py      :     0.912720
      dz2     :     0.005136  d :     0.084409
      dxz     :     0.020305
      dyz     :     0.010118
      dx2y2   :     0.018186
      dxy     :     0.030663
      f0      :     0.001500  f :     0.007750
      f+1     :     0.000556
      f-1     :     0.000795
      f+2     :     0.001011
      f-2     :     0.000418
      f+3     :     0.001165
      f-3     :     0.002306

 24 C s       :     3.408408  s :     3.408408
      pz      :     1.015387  p :     2.968202
      px      :     0.976665
      py      :     0.976150
      dz2     :     0.003177  d :     0.077915
      dxz     :     0.018670
      dyz     :     0.013796
      dx2y2   :     0.009857
      dxy     :     0.032415
      f0      :     0.001413  f :     0.007147
      f+1     :     0.000628
      f-1     :     0.000672
      f+2     :     0.000790
      f-2     :     0.000440
      f+3     :     0.001340
      f-3     :     0.001864

 25 C s       :     3.084679  s :     3.084679
      pz      :     0.901973  p :     2.380990
      px      :     0.719050
      py      :     0.759967
      dz2     :     0.005045  d :     0.166757
      dxz     :     0.039024
      dyz     :     0.030250
      dx2y2   :     0.050735
      dxy     :     0.041703
      f0      :     0.002147  f :     0.014495
      f+1     :     0.001055
      f-1     :     0.000936
      f+2     :     0.000727
      f-2     :     0.002275
      f+3     :     0.003835
      f-3     :     0.003520

 26 H s       :     0.858581  s :     0.858581
      pz      :     0.004912  p :     0.022445
      px      :     0.010954
      py      :     0.006578

 27 H s       :     0.858604  s :     0.858604
      pz      :     0.004959  p :     0.022442
      px      :     0.009294
      py      :     0.008189

 28 H s       :     0.862593  s :     0.862593
      pz      :     0.005386  p :     0.022668
      px      :     0.007797
      py      :     0.009484

 29 H s       :     0.862619  s :     0.862619
      pz      :     0.005337  p :     0.022668
      px      :     0.009541
      py      :     0.007790

 30 H s       :     0.858575  s :     0.858575
      pz      :     0.004912  p :     0.022445
      px      :     0.010954
      py      :     0.006578

 31 H s       :     0.858614  s :     0.858614
      pz      :     0.004959  p :     0.022443
      px      :     0.009294
      py      :     0.008190

 32 H s       :     0.862592  s :     0.862592
      pz      :     0.005386  p :     0.022668
      px      :     0.007798
      py      :     0.009484

 33 H s       :     0.858577  s :     0.858577
      pz      :     0.004984  p :     0.022445
      px      :     0.006578
      py      :     0.010882

 34 H s       :     0.862604  s :     0.862604
      pz      :     0.005337  p :     0.022668
      px      :     0.009541
      py      :     0.007789

 35 H s       :     0.858640  s :     0.858640
      pz      :     0.004938  p :     0.022443
      px      :     0.008237
      py      :     0.009269

 36 Mgs       :     4.570186  s :     4.570186
      pz      :     2.088850  p :     6.474652
      px      :     2.193400
      py      :     2.192402
      dz2     :     0.033662  d :     0.300151
      dxz     :     0.030403
      dyz     :     0.031679
      dx2y2   :     0.176301
      dxy     :     0.028105



                     *******************************
                     * LOEWDIN POPULATION ANALYSIS *
                     *******************************

----------------------
LOEWDIN ATOMIC CHARGES
----------------------
   0 N :    0.178382
   1 H :    0.141256
   2 C :   -0.110412
   3 C :   -0.110406
   4 N :    0.178422
   5 C :   -0.110404
   6 H :    0.141269
   7 C :   -0.198337
   8 N :    0.178425
   9 C :   -0.110403
  10 C :   -0.081416
  11 C :   -0.198381
  12 N :    0.178382
  13 C :   -0.110411
  14 C :   -0.198374
  15 C :   -0.198428
  16 C :   -0.198382
  17 C :   -0.198337
  18 C :   -0.110414
  19 C :   -0.081421
  20 C :   -0.081415
  21 C :   -0.110413
  22 C :   -0.198429
  23 C :   -0.110404
  24 C :   -0.081421
  25 C :   -0.198378
  26 H :    0.141275
  27 H :    0.141263
  28 H :    0.160702
  29 H :    0.160700
  30 H :    0.141275
  31 H :    0.141262
  32 H :    0.160702
  33 H :    0.141268
  34 H :    0.160700
  35 H :    0.141256
  36 Mg:    0.309448

-------------------------------
LOEWDIN REDUCED ORBITAL CHARGES
-------------------------------
  0 N s       :     2.977212  s :     2.977212
      pz      :     1.193176  p :     3.623261
      px      :     1.324940
      py      :     1.105145
      dz2     :     0.017013  d :     0.202714
      dxz     :     0.012408
      dyz     :     0.042846
      dx2y2   :     0.060923
      dxy     :     0.069523
      f0      :     0.001170  f :     0.018430
      f+1     :     0.000893
      f-1     :     0.001725
      f+2     :     0.000369
      f-2     :     0.003487
      f+3     :     0.004121
      f-3     :     0.006665

  1 H s       :     0.796944  s :     0.796944
      pz      :     0.014213  p :     0.061800
      px      :     0.022289
      py      :     0.025297

  2 C s       :     2.763772  s :     2.763772
      pz      :     0.900963  p :     2.925879
      px      :     0.980802
      py      :     1.044115
      dz2     :     0.028497  d :     0.373959
      dxz     :     0.031421
      dyz     :     0.058866
      dx2y2   :     0.103508
      dxy     :     0.151667
      f0      :     0.003073  f :     0.046801
      f+1     :     0.003702
      f-1     :     0.003956
      f+2     :     0.007350
      f-2     :     0.002467
      f+3     :     0.017665
      f-3     :     0.008588

  3 C s       :     2.763783  s :     2.763783
      pz      :     0.900368  p :     2.925883
      px      :     1.045467
      py      :     0.980049
      dz2     :     0.027238  d :     0.373942
      dxz     :     0.060405
      dyz     :     0.031192
      dx2y2   :     0.103408
      dxy     :     0.151698
      f0      :     0.003144  f :     0.046798
      f+1     :     0.003893
      f-1     :     0.003646
      f+2     :     0.007500
      f-2     :     0.002340
      f+3     :     0.008545
      f-3     :     0.017730

  4 N s       :     2.977158  s :     2.977158
      pz      :     1.195084  p :     3.623231
      px      :     1.104393
      py      :     1.323755
      dz2     :     0.016517  d :     0.202754
      dxz     :     0.043335
      dyz     :     0.012124
      dx2y2   :     0.060966
      dxy     :     0.069813
      f0      :     0.001147  f :     0.018435
      f+1     :     0.001771
      f-1     :     0.000849
      f+2     :     0.000344
      f-2     :     0.003538
      f+3     :     0.006678
      f-3     :     0.004108

  5 C s       :     2.763790  s :     2.763790
      pz      :     0.900497  p :     2.925907
      px      :     1.042241
      py      :     0.983169
      dz2     :     0.028022  d :     0.373912
      dxz     :     0.051753
      dyz     :     0.038973
      dx2y2   :     0.102963
      dxy     :     0.152201
      f0      :     0.003111  f :     0.046794
      f+1     :     0.003888
      f-1     :     0.003714
      f+2     :     0.009009
      f-2     :     0.000798
      f+3     :     0.010123
      f-3     :     0.016152

  6 H s       :     0.796934  s :     0.796934
      pz      :     0.014330  p :     0.061797
      px      :     0.018162
      py      :     0.029305

  7 C s       :     2.696767  s :     2.696767
      pz      :     0.836877  p :     2.778388
      px      :     0.964195
      py      :     0.977316
      dz2     :     0.045321  d :     0.643301
      dxz     :     0.093927
      dyz     :     0.106799
      dx2y2   :     0.202549
      dxy     :     0.194705
      f0      :     0.005003  f :     0.079881
      f+1     :     0.005028
      f-1     :     0.005935
      f+2     :     0.005071
      f-2     :     0.014336
      f+3     :     0.021940
      f-3     :     0.022568

  8 N s       :     2.977155  s :     2.977155
      pz      :     1.195077  p :     3.623229
      px      :     1.104394
      py      :     1.323759
      dz2     :     0.016516  d :     0.202756
      dxz     :     0.043335
      dyz     :     0.012123
      dx2y2   :     0.060967
      dxy     :     0.069814
      f0      :     0.001147  f :     0.018435
      f+1     :     0.001771
      f-1     :     0.000849
      f+2     :     0.000344
      f-2     :     0.003538
      f+3     :     0.006678
      f-3     :     0.004108

  9 C s       :     2.763790  s :     2.763790
      pz      :     0.900495  p :     2.925907
      px      :     1.042240
      py      :     0.983172
      dz2     :     0.028020  d :     0.373912
      dxz     :     0.051751
      dyz     :     0.038973
      dx2y2   :     0.102965
      dxy     :     0.152203
      f0      :     0.003111  f :     0.046794
      f+1     :     0.003888
      f-1     :     0.003714
      f+2     :     0.009009
      f-2     :     0.000798
      f+3     :     0.010123
      f-3     :     0.016152

 10 C s       :     2.751025  s :     2.751025
      pz      :     0.898097  p :     2.920253
      px      :     1.007969
      py      :     1.014187
      dz2     :     0.026022  d :     0.370533
      dxz     :     0.042432
      dyz     :     0.053603
      dx2y2   :     0.096278
      dxy     :     0.152199
      f0      :     0.003219  f :     0.039604
      f+1     :     0.003637
      f-1     :     0.003956
      f+2     :     0.005876
      f-2     :     0.002246
      f+3     :     0.011333
      f-3     :     0.009337

 11 C s       :     2.696775  s :     2.696775
      pz      :     0.836512  p :     2.778384
      px      :     0.977090
      py      :     0.964782
      dz2     :     0.045641  d :     0.643334
      dxz     :     0.088454
      dyz     :     0.112113
      dx2y2   :     0.200341
      dxy     :     0.196784
      f0      :     0.005002  f :     0.079889
      f+1     :     0.004680
      f-1     :     0.006289
      f+2     :     0.007449
      f-2     :     0.012003
      f+3     :     0.014644
      f-3     :     0.029822

 12 N s       :     2.977212  s :     2.977212
      pz      :     1.193177  p :     3.623262
      px      :     1.324940
      py      :     1.105146
      dz2     :     0.017013  d :     0.202714
      dxz     :     0.012408
      dyz     :     0.042846
      dx2y2   :     0.060923
      dxy     :     0.069523
      f0      :     0.001170  f :     0.018430
      f+1     :     0.000893
      f-1     :     0.001725
      f+2     :     0.000369
      f-2     :     0.003487
      f+3     :     0.004121
      f-3     :     0.006665

 13 C s       :     2.763780  s :     2.763780
      pz      :     0.900911  p :     2.925904
      px      :     0.984011
      py      :     1.040982
      dz2     :     0.027720  d :     0.373929
      dxz     :     0.040069
      dyz     :     0.051042
      dx2y2   :     0.103186
      dxy     :     0.151913
      f0      :     0.003106  f :     0.046797
      f+1     :     0.003600
      f-1     :     0.003996
      f+2     :     0.008953
      f-2     :     0.000894
      f+3     :     0.016085
      f-3     :     0.010164

 14 C s       :     2.696754  s :     2.696754
      pz      :     0.836528  p :     2.778402
      px      :     0.978770
      py      :     0.963103
      dz2     :     0.045436  d :     0.643328
      dxz     :     0.108198
      dyz     :     0.092325
      dx2y2   :     0.202552
      dxy     :     0.194817
      f0      :     0.005031  f :     0.079890
      f+1     :     0.006150
      f-1     :     0.004793
      f+2     :     0.005148
      f-2     :     0.014208
      f+3     :     0.022675
      f-3     :     0.021885

 15 C s       :     2.696758  s :     2.696758
      pz      :     0.836876  p :     2.778399
      px      :     0.965886
      py      :     0.975637
      dz2     :     0.045114  d :     0.643371
      dxz     :     0.113761
      dyz     :     0.086941
      dx2y2   :     0.200552
      dxy     :     0.197004
      f0      :     0.005036  f :     0.079899
      f+1     :     0.006332
      f-1     :     0.004601
      f+2     :     0.007147
      f-2     :     0.012172
      f+3     :     0.029974
      f-3     :     0.014637

 16 C s       :     2.696774  s :     2.696774
      pz      :     0.836512  p :     2.778385
      px      :     0.977091
      py      :     0.964781
      dz2     :     0.045641  d :     0.643334
      dxz     :     0.088456
      dyz     :     0.112112
      dx2y2   :     0.200340
      dxy     :     0.196785
      f0      :     0.005002  f :     0.079889
      f+1     :     0.004680
      f-1     :     0.006289
      f+2     :     0.007448
      f-2     :     0.012003
      f+3     :     0.014644
      f-3     :     0.029822

 17 C s       :     2.696767  s :     2.696767
      pz      :     0.836877  p :     2.778388
      px      :     0.964194
      py      :     0.977317
      dz2     :     0.045321  d :     0.643301
      dxz     :     0.093927
      dyz     :     0.106799
      dx2y2   :     0.202549
      dxy     :     0.194705
      f0      :     0.005003  f :     0.079881
      f+1     :     0.005028
      f-1     :     0.005935
      f+2     :     0.005071
      f-2     :     0.014336
      f+3     :     0.021940
      f-3     :     0.022568

 18 C s       :     2.763779  s :     2.763779
      pz      :     0.900913  p :     2.925905
      px      :     0.984011
      py      :     1.040981
      dz2     :     0.027720  d :     0.373931
      dxz     :     0.040069
      dyz     :     0.051042
      dx2y2   :     0.103186
      dxy     :     0.151914
      f0      :     0.003106  f :     0.046798
      f+1     :     0.003600
      f-1     :     0.003996
      f+2     :     0.008953
      f-2     :     0.000894
      f+3     :     0.016085
      f-3     :     0.010164

 19 C s       :     2.751025  s :     2.751025
      pz      :     0.897897  p :     2.920256
      px      :     1.015351
      py      :     1.007007
      dz2     :     0.025211  d :     0.370536
      dxz     :     0.054994
      dyz     :     0.041622
      dx2y2   :     0.096470
      dxy     :     0.152239
      f0      :     0.003262  f :     0.039604
      f+1     :     0.003879
      f-1     :     0.003645
      f+2     :     0.005896
      f-2     :     0.002190
      f+3     :     0.009311
      f-3     :     0.011421

 20 C s       :     2.751024  s :     2.751024
      pz      :     0.898096  p :     2.920253
      px      :     1.007969
      py      :     1.014188
      dz2     :     0.026023  d :     0.370534
      dxz     :     0.042432
[...]
     Transition      Energy     Energy  Wavelength fosc(P2)      P2        PX        PY        PZ   
                      (eV)      (cm-1)    (nm)                 (au**2)    (au)      (au)      (au)  
----------------------------------------------------------------------------------------------------
  0-1A  ->  1-1A    2.470954   19929.6   501.8   0.001082475   0.00015   0.01193   0.00224  -0.00042
  0-1A  ->  2-1A    2.470975   19929.8   501.8   0.001092600   0.00015  -0.00227   0.01193  -0.00118
  0-1A  ->  3-1A    3.918926   31608.3   316.4   0.006249827   0.00135   0.03656   0.00353  -0.00096
  0-1A  ->  4-1A    3.919278   31611.1   316.3   0.006265969   0.00135  -0.00362   0.03644  -0.00357
  0-1A  ->  5-1A    3.936458   31749.7   315.0   0.000000000   0.00000   0.00000  -0.00000  -0.00000
  0-1A  ->  6-1A    3.986526   32153.5   311.0   0.000000000   0.00000  -0.00000  -0.00000  -0.00001
  0-1A  ->  7-1A    4.120587   33234.8   300.9   0.006415668   0.00146   0.03745   0.00728  -0.00131
  0-1A  ->  8-1A    4.120596   33234.9   300.9   0.006412422   0.00146   0.00737  -0.03729   0.00340
  0-1A  ->  9-1A    4.134950   33350.6   299.8   0.000000000   0.00000  -0.00000  -0.00000  -0.00001
  0-1A  -> 10-1A    4.244810   34236.7   292.1   0.000000000   0.00000   0.00000  -0.00000  -0.00001
  0-1A  -> 11-1A    4.344744   35042.7   285.4   0.000000000   0.00000  -0.00000  -0.00000  -0.00000
  0-1A  -> 12-1A    4.459863   35971.2   278.0   0.000000000   0.00000   0.00000  -0.00000  -0.00001
  0-1A  -> 13-1A    4.538516   36605.6   273.2   0.022107218   0.00553   0.07430   0.00275  -0.00150
  0-1A  -> 14-1A    4.538688   36607.0   273.2   0.022078312   0.00552  -0.00288   0.07391  -0.00722
  0-1A  -> 15-1A    4.679889   37745.9   264.9   0.000000000   0.00000  -0.00001  -0.00000   0.00000
  0-1A  -> 16-1A    4.680229   37748.6   264.9   0.000000000   0.00000  -0.00000   0.00001  -0.00000
  0-1A  -> 17-1A    4.836029   39005.2   256.4   0.000000000   0.00000  -0.00000  -0.00000  -0.00000
  0-1A  -> 18-1A    5.027747   40551.5   246.6   0.000000000   0.00000   0.00000   0.00000   0.00000
  0-1A  -> 19-1A    5.216543   42074.3   237.7   0.000001098   0.00000   0.00002   0.00006   0.00056
  0-1A  -> 20-1A    5.303931   42779.1   233.8   0.000000003   0.00000  -0.00003  -0.00000   0.00000
  0-1A  -> 21-1A    5.398124   43538.8   229.7   0.000000001   0.00000   0.00002   0.00001  -0.00000
  0-1A  -> 22-1A    5.431113   43804.9   228.3   0.000000000   0.00000  -0.00000  -0.00000  -0.00001
  0-1A  -> 23-1A    5.450886   43964.4   227.5   0.000000010   0.00000   0.00005   0.00001  -0.00001
  0-1A  -> 24-1A    5.500513   44364.6   225.4   0.000000344   0.00000   0.00001  -0.00002  -0.00032
  0-1A  -> 25-1A    5.521938   44537.4   224.5   0.012508268   0.00381   0.00101   0.00604   0.06140
  0-1A  -> 26-1A    5.572676   44946.7   222.5   0.000000000   0.00000  -0.00000   0.00000   0.00001
  0-1A  -> 27-1A    5.734240   46249.8   216.2   0.000000000   0.00000  -0.00000   0.00000  -0.00000
  0-1A  -> 28-1A    5.775888   46585.7   214.7   0.000000000   0.00000  -0.00000  -0.00000  -0.00000
  0-1A  -> 29-1A    5.843802   47133.5   212.2   0.003538233   0.00114   0.03352   0.00395  -0.00095
  0-1A  -> 30-1A    5.843976   47134.8   212.2   0.003572796   0.00115   0.00405  -0.03353   0.00326

------------------------------------------------------------------------------------------
                     CD SPECTRUM VIA TRANSITION ELECTRIC DIPOLE MOMENTS    
------------------------------------------------------------------------------------------
     Transition      Energy     Energy  Wavelength    R        MX        MY        MZ   
                      (eV)      (cm-1)    (nm)   (1e40*cgs)   (au)      (au)      (au)  
------------------------------------------------------------------------------------------
  0-1A  ->  1-1A    2.470954   19929.6   501.8    0.00038  -0.00000   0.00000   0.00001
  0-1A  ->  2-1A    2.470975   19929.8   501.8   -0.00018   0.00000   0.00000   0.00001
  0-1A  ->  3-1A    3.918926   31608.3   316.4    0.00538  -0.00001   0.00004  -0.00002
  0-1A  ->  4-1A    3.919278   31611.1   316.3   -0.00330   0.00003   0.00000  -0.00002
  0-1A  ->  5-1A    3.936458   31749.7   315.0   -0.00047  -0.01186  -0.07089  -0.71708
  0-1A  ->  6-1A    3.986526   32153.5   311.0    0.00002   0.00008   0.00000   0.00350
  0-1A  ->  7-1A    4.120587   33234.8   300.9   -0.01055   0.00001   0.00001   0.00001
  0-1A  ->  8-1A    4.120596   33234.9   300.9    0.00742  -0.00001   0.00000   0.00000
  0-1A  ->  9-1A    4.134950   33350.6   299.8    0.00002   0.00014   0.00000  -0.00006
  0-1A  -> 10-1A    4.244810   34236.7   292.1    0.00000   0.00024   0.00004   0.00032
  0-1A  -> 11-1A    4.344744   35042.7   285.4   -0.00000   0.00002  -0.00007   0.00018
  0-1A  -> 12-1A    4.459863   35971.2   278.0   -0.00000   0.00004   0.00000  -0.00001
  0-1A  -> 13-1A    4.538516   36605.6   273.2   -0.03194   0.00002  -0.00004  -0.00000
  0-1A  -> 14-1A    4.538688   36607.0   273.2    0.02493  -0.00001  -0.00002   0.00000
  0-1A  -> 15-1A    4.679889   37745.9   264.9   -0.02370   0.03350  -0.29906   0.02898
  0-1A  -> 16-1A    4.680229   37748.6   264.9    0.02484   0.30053   0.03287  -0.00818
  0-1A  -> 17-1A    4.836029   39005.2   256.4   -0.00003  -0.00453  -0.02768  -0.27622
  0-1A  -> 18-1A    5.027747   40551.5   246.6    0.00000   0.00014   0.00002  -0.00013
  0-1A  -> 19-1A    5.216543   42074.3   237.7    0.00015   0.00000   0.00001   0.00000
  0-1A  -> 20-1A    5.303931   42779.1   233.8   -0.00000   0.00000  -0.00000  -0.00003
  0-1A  -> 21-1A    5.398124   43538.8   229.7    0.00000  -0.00000   0.00000  -0.00001
  0-1A  -> 22-1A    5.431113   43804.9   228.3   -0.00000   0.00002  -0.00000   0.00001
  0-1A  -> 23-1A    5.450886   43964.4   227.5   -0.00000  -0.00000   0.00001   0.00007
  0-1A  -> 24-1A    5.500513   44364.6   225.4    0.00000   0.00000   0.00000   0.00001
  0-1A  -> 25-1A    5.521938   44537.4   224.5   -0.00011   0.00000   0.00000   0.00000
  0-1A  -> 26-1A    5.572676   44946.7   222.5   -0.00000   0.00002   0.00001   0.00045
  0-1A  -> 27-1A    5.734240   46249.8   216.2   -0.00064  -0.01269  -0.07574  -0.76775
  0-1A  -> 28-1A    5.775888   46585.7   214.7    0.00000   0.00027  -0.00008  -0.00038
  0-1A  -> 29-1A    5.843802   47133.5   212.2   -0.00184  -0.00001   0.00001  -0.00002
  0-1A  -> 30-1A    5.843976   47134.8   212.2   -0.00007  -0.00000  -0.00000  -0.00001

------------------------------------------------------------------------------------------
                     CD SPECTRUM VIA TRANSITION VELOCITY DIPOLE MOMENTS    
------------------------------------------------------------------------------------------
     Transition      Energy     Energy  Wavelength    R        MX        MY        MZ   
                      (eV)      (cm-1)    (nm)   (1e40*cgs)   (au)      (au)      (au)  
------------------------------------------------------------------------------------------
  0-1A  ->  1-1A    2.470954   19929.6   501.8   -0.00026  -0.00000   0.00000   0.00001
  0-1A  ->  2-1A    2.470975   19929.8   501.8    0.00012   0.00000   0.00000   0.00001
  0-1A  ->  3-1A    3.918926   31608.3   316.4   -0.00084  -0.00001   0.00004  -0.00002
  0-1A  ->  4-1A    3.919278   31611.1   316.3    0.00052   0.00003   0.00000  -0.00002
  0-1A  ->  5-1A    3.936458   31749.7   315.0    0.00230  -0.01186  -0.07089  -0.71708
  0-1A  ->  6-1A    3.986526   32153.5   311.0   -0.00006   0.00008   0.00000   0.00350
  0-1A  ->  7-1A    4.120587   33234.8   300.9    0.00085   0.00001   0.00001   0.00001
  0-1A  ->  8-1A    4.120596   33234.9   300.9   -0.00060  -0.00001   0.00000   0.00000
  0-1A  ->  9-1A    4.134950   33350.6   299.8   -0.00000   0.00014   0.00000  -0.00006
  0-1A  -> 10-1A    4.244810   34236.7   292.1   -0.00000   0.00024   0.00004   0.00032
  0-1A  -> 11-1A    4.344744   35042.7   285.4   -0.00000   0.00002  -0.00007   0.00018
  0-1A  -> 12-1A    4.459863   35971.2   278.0    0.00000   0.00004   0.00000  -0.00001
  0-1A  -> 13-1A    4.538516   36605.6   273.2    0.00447   0.00002  -0.00004  -0.00000
  0-1A  -> 14-1A    4.538688   36607.0   273.2   -0.00348  -0.00001  -0.00002   0.00000
  0-1A  -> 15-1A    4.679889   37745.9   264.9    0.00101   0.03350  -0.29906   0.02898
  0-1A  -> 16-1A    4.680229   37748.6   264.9   -0.00080   0.30053   0.03287  -0.00818
  0-1A  -> 17-1A    4.836029   39005.2   256.4    0.00033  -0.00453  -0.02768  -0.27622
  0-1A  -> 18-1A    5.027747   40551.5   246.6   -0.00000   0.00014   0.00002  -0.00013
  0-1A  -> 19-1A    5.216543   42074.3   237.7    0.00001   0.00000   0.00001   0.00000
  0-1A  -> 20-1A    5.303931   42779.1   233.8   -0.00000   0.00000  -0.00000  -0.00003
  0-1A  -> 21-1A    5.398124   43538.8   229.7    0.00000  -0.00000   0.00000  -0.00001
  0-1A  -> 22-1A    5.431113   43804.9   228.3   -0.00000   0.00002  -0.00000   0.00001
  0-1A  -> 23-1A    5.450886   43964.4   227.5   -0.00000  -0.00000   0.00001   0.00007
  0-1A  -> 24-1A    5.500513   44364.6   225.4   -0.00001   0.00000   0.00000   0.00001
  0-1A  -> 25-1A    5.521938   44537.4   224.5    0.00029   0.00000   0.00000   0.00000
  0-1A  -> 26-1A    5.572676   44946.7   222.5    0.00001   0.00002   0.00001   0.00045
  0-1A  -> 27-1A    5.734240   46249.8   216.2    0.00090  -0.01269  -0.07574  -0.76775
  0-1A  -> 28-1A    5.775888   46585.7   214.7    0.00000   0.00027  -0.00008  -0.00038
  0-1A  -> 29-1A    5.843802   47133.5   212.2   -0.00025  -0.00001   0.00001  -0.00002
  0-1A  -> 30-1A    5.843976   47134.8   212.2   -0.00001  -0.00000  -0.00000  -0.00001

Total run time:     3420.447 sec

           *** ORCA-CIS/TD-DFT FINISHED WITHOUT ERROR ***
-----------------------
CIS/TD-DFT TOTAL ENERGY
-----------------------

    E(SCF)  =  -1187.690285960 Eh
    DE(CIS) =      0.090805904 Eh (Root  1)
    ----------------------------- ---------
    E(tot)  =  -1187.599480056 Eh


Maximum memory used throughout the entire CIS-calculation: 2678.6 MB
=> NOW LEAVING ORCA_CIS

-------------------------   --------------------
FINAL SINGLE POINT ENERGY     -1187.599480056129
-------------------------   --------------------



           ************************************************************
           *        Program running with 4 parallel MPI-processes     *
           *              working on a common directory               *
           ************************************************************

------------------------------------------------------------------------------
                              ORCA PROPERTY CALCULATIONS
------------------------------------------------------------------------------

GBWName                                 ... tddft.gbw
Number of atoms                         ...     37
Number of basis functions               ...    848
Max core memory                         ...   3000 MB

Electric properties:
Dipole moment                           ... YES
Quadrupole moment                       ...  NO
Static polarizability (Dipole/Dipole)   ...  NO
Static polarizability (Dipole/Quad.)    ...  NO
Static polarizability (Quad./Quad.)     ...  NO
Static polarizability (Velocity)        ...  NO
Static hyperpolarizability              ...  NO

Atomic electric properties:
Dipole moment                           ...  NO
Quadrupole moment                       ...  NO
Static polarizability                   ...  NO

Choice of electric origin               ... Center of mass
Position of electric origin             ...    -0.158818     5.090151     6.572142

General magnetic properties:
Magnetizability                         ...  NO

EPR properties:
g-Tensor (aka g-matrix)                 ...  NO
Zero-Field splitting spin-orbit         ...  NO
Zero-field splitting spin-spin          ...  NO
Hyperfine couplings                     ...  NO (   0 nuclei)
Quadrupole couplings                    ...  NO (   0 nuclei)
Contact density                         ...  NO (   0 nuclei)

NMR properties:
Chemical shifts                         ...  NO (   0 nuclei)
Spin-rotation constants                 ...  NO (   0 nuclei)
Spin-spin couplings                     ...  NO (   0 nuclei,    0 pairs)

Choice of magnetic origin               ... GIAO
Position of magnetic origin             ...     0.000000     0.000000     0.000000

Properties with geometric perturbations:
SCF Hessian                             ...  NO
IR spectrum                             ...  NO
VCD spectrum                            ...  NO
X-ray spectroscopy properties:
SCF XES/XAS/RIXS spectra                ...  NO

SCF SOC stabilization energy            ...  NO
Diagonal Born-Oppenheimer correction    ...  NO

-------------
DIPOLE MOMENT
-------------

Method             : SCF
Type of density    : Electron Density
Multiplicity       :   1
Irrep              :   0
Energy             : -1187.6902859599956628 Eh
Basis              : AO
                                X                 Y                 Z
Electronic contribution:      0.000009308      -0.000038382      -0.000458194
Nuclear contribution   :     -0.000008108       0.000042856       0.000532868
                        -----------------------------------------
Total Dipole Moment    :      0.000001200       0.000004474       0.000074674
                        -----------------------------------------
Magnitude (a.u.)       :      0.000074818
Magnitude (Debye)      :      0.000190171



--------------------
Rotational spectrum 
--------------------
 
Rotational constants in cm-1:             0.008916             0.008916             0.004458 
Rotational constants in MHz :           267.307767           267.296540           133.651083 

Dipole components along the rotational axes: 
x,y,z [a.u.] :    -0.000003    -0.000001     0.000075 
x,y,z [Debye]:    -0.000007    -0.000002     0.000190 

 

Dipole moment calculation done in   0.2 sec 

Maximum memory used throughout the entire PROP-calculation: 86.1 MB

--------------------------------
SUGGESTED CITATIONS FOR THIS RUN
--------------------------------

Below you find a list of papers that are relevant to this ORCA run
We neither can nor want to force you to cite these papers, but we appreciate if you do
You receive ORCA, which is the product of decades of hard work by many enthusiastic individuals, for free
The only thing we kindly ask in return is that you cite our papers,
We deeply appreciate it, if you show your appreciation for ORCA by not just citing the generic ORCA reference.

Please note that relegating all ORCA citations to the supporting information does *not* help us.
SI sections are not indexed - citations you put there will not count into any citation statistics
But we need these citations in order to attract the funding resources that allow us to do what we are doing

Therefore, if you are a happy ORCA user, please consider citing a few of the papers listed below in the main body of your paper

In addition to the list printed below, the program has created the file tddft.bibtex that contains the list in bibtex format
You can import this file easily into all common literature databanks and citation aid programs

It goes without saying that in many instances, there are alternative algorithms to achieve similar
results as the ones you have gotten from ORCA. It is, of course, also the case that in some instances
ORCA just re-implements algorithms worked out by others. We are fully aware of that and we are also
fully appreciative of our colleagues work. Hence this citation list should not be read as indicating
that the listed papers, which are focused on our own work, are the only ones worth citing. It simply
meant to make it easier for users to cite ORCA specific papers. It is not a substitute for doing your
own literature research and citing the relevant literature in a scientifically appropriate manner.

List of essential papers. We consider these as the minimum necessary citations

  1. Neese, F.
     Software update: the ORCA program system, version 6.0
     WIRES Comput. Molec. Sci. 2025 15(1), e70019
     doi.org/10.1002/wcms.70019

List of papers to cite with high priority. The work reported in these papers was absolutely
necessary for this run to complete.
Our perspective: the developers of density functionals and basis sets usually get cited in chemistry papers
Good! But without the algorithms to do something with them, the functionals or basis sets would not do anything.
Hence, in our opinion, the algorithm design and method developments papers are equally worthy of getting cited

  1. Neese, F.; Olbrich, G.
     Efficient use of the resolution of the identity approximation in time-dependent density functional calculations with hybrid density functionals
     Chem. Phys. Lett. 2002 362 , 170-178
     doi.org/10.1016/s0009-2614(02)01053-9
  2. Neese, F.
     An improvement of the resolution of the identity approximation for the formation of the Coulomb matrix
     J. Comp. Chem. 2003 24(14), 1740-1747
     doi.org/10.1002/jcc.10318
  3. Neese, F.; Wennmohs, F.; Hansen, A.; Becker, U.
     Efficient, approximate and parallel Hartree-Fock and hybrid DFT calculations. A 'chain-of-spheres' algorithm for the Hartree-Fock exchange
     Chem. Phys. 2009 356(1-3), 98-109
     doi.org/10.1016/j.chemphys.2008.10.036
  4. Helmich-Paris, B.; de Souza, B.; Neese, F.; Izsák, R.
     An improved chain of spheres for exchange algorithm
     J. Chem. Phys. 2021 155(10), 104109
     doi.org/10.1063/5.0058766
  5. Neese, F.
     The SHARK Integral Generation and Digestion System
     J. Comp. Chem. 2022 44(3), 381
     doi.org/10.1002/jcc.26942

List of suggested additional citations. These are papers that are important in the 'surrounding' of 
of this run, or papers that preceded the highly important papers. If you like your results we are grateful for a citation.

  1. Izsak, R.; Neese, F.
     An overlap fitted chain of spheres exchange method
     J. Chem. Phys. 2011 135 , 144105
     doi.org/10.1063/1.3646921
  2. Izsak, R.; Hansen, A.; Neese, F.
     The resolution of identity and chain of spheres approximations for the LPNO-CCSD singles Fock term
     Molec. Phys. 2012 110 , 2413-2417
     doi.org/10.1080/00268976.2012.687466
  3. Neese, F.
     The ORCA program system
     WIRES Comput. Molec. Sci. 2012 2(1), 73-78
     doi.org/10.1002/wcms.81
  4. Izsak, R.; Neese, F.; Klopper, W.
     Robust fitting techniques in the chain of spheres approximation to the Fock exchange: The role of the complementary space
     J. Chem. Phys. 2013 139 , 
     doi.org/10.1063/1.4819264
  5. Neese, F.
     Software update: the ORCA program system, version 4.0
     WIRES Comput. Molec. Sci. 2018 8(1), 1-6
     doi.org/10.1002/wcms.1327
  6. Neese, F.; Wennmohs, F.; Becker, U.; Riplinger, C.
     The ORCA quantum chemistry program package
     J. Chem. Phys. 2020 152(22), 224108
     doi.org/10.1063/5.0004608
  7. Neese, F.
     Software update: The ORCA program system—Version 5.0
     WIRES Comput. Molec. Sci. 2022 12(1), e1606
     doi.org/10.1002/wcms.1606

List of optional additional citations

  1. Neese, F.
     Approximate second-order SCF convergence for spin unrestricted wavefunctions
     Chem. Phys. Lett. 2000 325(1-3), 93-98
     doi.org/10.1016/s0009-2614(00)00662-x

Timings for individual modules:

Sum of individual times          ...     4367.441 sec (=  72.791 min)
Startup calculation              ...       16.063 sec (=   0.268 min)   0.4 %
SCF iterations                   ...      926.378 sec (=  15.440 min)  21.2 %
Property integrals               ...        1.488 sec (=   0.025 min)   0.0 %
Property calculations            ...        2.027 sec (=   0.034 min)   0.0 %
CIS module                       ...     3421.484 sec (=  57.025 min)  78.3 %
                             ****ORCA TERMINATED NORMALLY****
TOTAL RUN TIME: 0 days 1 hours 12 minutes 48 seconds 280 msec
