
                                 *****************
                                 * O   R   C   A *
                                 *****************

                                            #,                                       
                                            ###                                      
                                            ####                                     
                                            #####                                    
                                            ######                                   
                                           ########,                                 
                                     ,,################,,,,,                         
                               ,,#################################,,                 
                          ,,##########################################,,             
                       ,#########################################, ''#####,          
                    ,#############################################,,   '####,        
                  ,##################################################,,,,####,       
                ,###########''''           ''''###############################       
              ,#####''   ,,,,##########,,,,          '''####'''          '####       
            ,##' ,,,,###########################,,,                        '##       
           ' ,,###''''                  '''############,,,                           
         ,,##''                                '''############,,,,        ,,,,,,###''
      ,#''                                            '''#######################'''  
     '                                                          ''''####''''         
             ,#######,   #######,   ,#######,      ##                                
            ,#'     '#,  ##    ##  ,#'     '#,    #''#        ,####,    ,#,          
            ##       ##  ##   ,#'  ##            #'  '#       #'       ,# #          
            ##       ##  #######   ##           ,######,      #####,      #          
            '#,     ,#'  ##    ##  '#,     ,#' ,#      #,     #,   #      #          
             '#######'   ##     ##  '#######'  #'      '#     '####' #    #          



                #########################################################
                #                        -***-                          #
                #          Department of theory and spectroscopy        #
                #                                                       #
                #                      Frank Neese                      #
                #                                                       #
                #     Directorship, Architecture, Infrastructure        #
                #                    SHARK, DRIVERS                     #
                #        Core code/Algorithms in most modules           #
                #                                                       #
                #        Max Planck Institute fuer Kohlenforschung      #
                #                Kaiser Wilhelm Platz 1                 #
                #                 D-45470 Muelheim/Ruhr                 #
                #                      Germany                          #
                #                                                       #
                #                  All rights reserved                  #
                #                        -***-                          #
                #########################################################


                         Program Version 6.1.1  -  RELEASE   -
                                (GIT: $487d211c$)
                          ($2025-11-21 10:33:24 +0100$)


 With contributions from (in alphabetic order):
[Max-Planck-Institut fuer Kohlenforschung]                               
  Daniel Aravena         : Magnetic Suceptibility                        
  Michael Atanasov       : Ab Initio Ligand Field Theory (pilot matlab implementation)
  Alexander A. Auer      : GIAO ZORA, VPT2 properties, NMR spectrum      
  Ute Becker             : All parallelization in ORCA, NUMFREQ, NUMCALC 
  Giovanni Bistoni       : ED, misc. LED, open-shell LED, HFLD           
  Dmytro Bykov           : pre 5.0 version of the SCF Hessian            
  Marcos Casanova-Páez   : Triplet and SCS-CIS(D). UHF-(DLPNO)-IP/EA/STEOM-CCSD. UHF-CVS-IP/STEOM-CCSD   
  Vijay G. Chilkuri      : MRCI spin determinant printing, contributions to CSF-ICE 
  Pauline Colinet        : FMM embedding                                 
  Dipayan Datta          : RHF DLPNO-CCSD density                        
  Achintya Kumar Dutta   : EOM-CC, STEOM-CC                              
  Nicolas Foglia         : Exact transition moments, OPA infrastructure, MCD improvements    
  Dmitry Ganyushin       : Spin-Orbit,Spin-Spin,Magnetic field MRCI      
  Miquel Garcia-Rates    : C-PCM and meta-GGA Hessian, CCSD/C-PCM, Gaussian charge scheme 
  Tiago L. C. Gouveia    : GS-ROHF, GS-ROCIS                             
  Yang Guo               : DLPNO-NEVPT2, F12-NEVPT2, CIM, IAO-localization        
  Andreas Hansen         : Spin unrestricted coupled pair/coupled cluster methods 
  Ingolf Harden          : AUTO-CI MPn and infrastructure                
  Benjamin Helmich-Paris : MC-RPA, TRAH-(SCF,CASSCF), AVAS, COSX integrals, SCF dyn. polar., MC-PDFT, srDFT 
  Lee Huntington         : MR-EOM, pCC                                   
  Robert Izsak           : Overlap fitted RIJCOSX, COSX-SCS-MP3, EOM     
  Riya Kayal             : Wick's Theorem for AUTO-CI, AUTO-CI UHF-CCSDT 
  Emily Kempfer          : AUTO-CI RHF CISDT and CCSDT, approximate NEVPT4
  Christian Kollmar      : KDIIS, OOCD, Brueckner-CCSD(T), CCSD density, CASPT2, CASPT2-K, improved NEVPT2 
  Axel Koslowski         : Symmetry handling                             
  Simone Kossmann        : meta-GGA functionals, TD-DFT gradient, OOMP2, (MP2 Hessian; deprecated post 5.0) 
  Lucas Lang             : DCDCAS, Hyperfine gauge corrections, ICE-SOC+SSC
  Marvin Lechner         : AUTO-CI (C++ implementation), FIC-MRCC        
  Spencer Leger          : CASSCF response                               
  Dagmar Lenk            : GEPOL surface, SMD, ORCA-2-JSON               
  Dimitrios Liakos       : Extrapolation schemes; Compound Job, Property file
  Dimitrios Manganas     : Further ROCIS development; embedding schemes. LFT, Crystal Embedding 
  Dimitrios Pantazis     : SARC Basis sets                               
  Anastasios Papadopoulos: AUTO-CI, single reference methods and gradients 
  Taras Petrenko         : pre 6.0 DFT Hessian and TD-DFT gradient,  ECA, NRVS 
  Petra Pikulova         : Analytic Raman intensities                    
  Peter Pinski           : DLPNO-MP2, DLPNO-MP2 Gradient                 
  Shashank Vittal Rao    : ES-AILFT, MagRelax                            
  Christoph Reimann      : Effective Core Potentials                     
  Marius Retegan         : Local ZFS, SOC                                
  Christoph Riplinger    : Optimizer, TS searches, QM/MM, DLPNO-CCSD(T), (RO)-DLPNO pert. Triples 
  Michael Roemelt        : Original ROCIS implementation, recursive CI coupling coefficients
  Masaaki Saitow         : Open-shell DLPNO-CCSD energy and density      
  Barbara Sandhoefer     : DKH picture change effects                    
  Yorick L. A. Schmerwitz: GMF and freeze-and-release deltaSCF, NEB S-IDPP initial path                    
  Kantharuban Sivalingam : CASSCF convergence/infrastructure, NEVPT2, NEVPT3, NEVPT4(SD), FIC-MRCI and CEPA variants
  Bernardo de Souza      : ESD, SOC TD-DFT                               
  Georgi L. Stoychev     : AutoAux, RI-MP2 NMR, DLPNO-MP2 response, X2C  
  Van Anh Tran           : RI-MP2 g-tensors                              
  Willem Van den Heuvel  : Paramagnetic NMR                              
  Zikuan Wang            : NOTCH, Electric field optimization            
  Frank Wennmohs         : Technical directorship and infrastructure     
  Hang Xu                : AUTO-CI-Response properties                   
                                                                         
[FACCTs GmbH]                                                            
  Markus Bursch, Nicolas Foglia, Miquel Garcia-Rates, Ingolf Harden, Hagen Neugebauer, Anastasios Papadopoulos, 
  Christoph Riplinger, Bernardo de Souza, Georgi L. Stoychev                                                    
                                                                 
  APM, various basis sets, CI-OPT, improved COSX, DLPNO-Multilevel,           
  DOCKER, DRACO, updates on ESD, Fragmentator, GOAT, IRC, LR-CPCM, L-BFGS, MBIS, meta-GGA TD-DFT gradient, ML-optimized integration grids, 
  MM, NACMEs, nearIR, NEB, NEB-TS, NL-DFT gradient (VV10), 2- and 3-layer-ONIOM, interface openCOSMO-RS, QMMM,   
  Crystal-QMMM, RESP, rigid body optimization, SF, symmetry and pop. for TD-DFT, various functionals, SOLVATOR                                   
                                                                         
[Other institutions]                                                     
  V. Asgeirsson          : NEB                                           
  Christoph Bannwarth    : sTDA-DFT, sTD-DFT, PBEh-3c, B97-3c, D3        
  Giovanni Bistoni       : ETS/NOCV, ADLD/ADEX, COVALED                  
  Martin Brehm           : Molecular dynamics                            
  Ronald Cardenas        : ETS/NOCV                                      
  Martina Colucci        : COVALED                                       
  Sebastian Ehlert       : rSCAN, r2SCAN, r2SCAN-3c, D4, dhf basis sets  
  Marvin Friede          : D4 for Fr, Ra, Ac-Lr                          
  Lars Goerigk           : TD-DFT with DH, B97 family of functionals     
  Stefan Grimme          : VdW corrections, initial TS optimization, DFT functionals, gCP, sTDA/sTD-DF 
  Waldemar Hujo          : DFT-NL                                        
  H. Jonsson             : NEB                                           
  Holger Kruse           : gCP                                           
  Marcel Mueller         : wB97X-3c, vDZP basis set                      
  Hagen Neugebauer       : wr2SCAN, Native XTB                           
  Gianluca Regni         : ADLD/ADEX                                     
  Tobias Risthaus        : pre 6.0 range-separated hybrid DFT and stability analysis
  Lukas Wittmann         : regularized MP2, r2SCAN double-hybrids, wr2SCAN        
                                                                         
We gratefully acknowledge several colleagues who have allowed us to      
interface, adapt or use parts of their codes:                            
  Ed Valeev, F. Pavosevic, A. Kumar             : LibInt (2-el integral package), F12 methods 
  Garnet Chan, S. Sharma, J. Yang, R. Olivares  : DMRG                   
  Ulf Ekstrom                                   : XCFun DFT Library      
  Mihaly Kallay                                 : mrcc  (arbitrary order and MRCC methods)
  Frank Weinhold                                : gennbo (NPA and NBO analysis)           
  Simon Mueller                                 : openCOSMO-RS                            
  Christopher J. Cramer and Donald G. Truhlar   : smd solvation model                     
  S Lehtola, MJT Oliveira, MAL Marques          : LibXC Library                           
  Liviu Ungur et al                             : ANISO software                          


 Your calculation uses the libint2 library for the computation of 2-el integrals
 For citations please refer to: http://libint.valeyev.net

 Your ORCA version has been built with support for libXC version: 7.0.0
 For citations please refer to: https://libxc.gitlab.io

 This ORCA versions uses:
   CBLAS   interface :  Fast vector & matrix operations
   LAPACKE interface :  Fast linear algebra routines
   SCALAPACK package :  Parallel linear algebra routines
   Shared memory     :  Shared parallel matrices
   BLAS/LAPACK       :  OpenBLAS 0.3.29  USE64BITINT DYNAMIC_ARCH NO_AFFINITY Haswell SINGLE_THREADED
        Core in use  :  Haswell
   Copyright (c) 2011-2014, The OpenBLAS Project


  ***********************************
  * Starting time: Sun Jul  5 17:08:28 2026
  * Host name:     steezy
  * Process ID:    1275767
  * Working dir.:  /home/jannes/chlorophyll-ladder/007-mg-core-ladder/mgporphin/02_tddft/wb97xd
  ***********************************

NOTE: MaxCore=3000 MB was set to SCF,MP2,MDCI,CIPSI,MRCI,RASCI and CIS
      => If you want to overwrite this, your respective input block should be placed after the MaxCore statement


***************************************
The coordinates will be read from file: /home/jannes/chlorophyll-ladder/007-mg-core-ladder/mgporphin/01_opt/mgporphin_opt_b3lypd4_tzvp.xyz
***************************************


Your calculation utilizes the atom-pairwise dispersion correction
with the zero-damping scheme (D30)


XCFun DFT library Copyright 2009-2010 Ulf Ekstrom and contributors.
See http://admol.org/xcfun for more information.
This is free software; see the source code for copying conditions.
There is ABSOLUTELY NO WARRANTY; not even for MERCHANTABILITY or FITNESS FOR A PARTICULAR PURPOSE.
For details see the documentation.
Scientific users of this library should cite U. Ekstrom, L. Visscher, R. Bast, A. J. Thorvaldsen and K. Ruud;
J.Chem.Theor.Comp. 2010, DOI: 10.1021/ct100117s
XCFun Version 0.99 

================================================================================

----- Orbital basis set information -----
Your calculation utilizes the basis: def2-TZVP
   F. Weigend and R. Ahlrichs, Phys. Chem. Chem. Phys. 7, 3297 (2005).

----- AuxJ basis set information -----
Your calculation utilizes the auxiliary basis: def2/J
   H-Rn: F. Weigend, Phys. Chem. Chem. Phys. 8, 1057 (2006).
   Fr-Lr: K. Eichkorn, F. Weigend, O. Treutler, R. Ahlrichs; Theor. Chem. Acc. 97, 119 (1997).

================================================================================
                                        WARNINGS
                       Please study these warnings very carefully!
================================================================================


WARNING: CIS/ROCIS methods need fully converged wavefunctions
  ===> : Setting SCFConvForced true
         You can overwrite this default with %scf ConvForced false 


================================================================================
                                       INPUT FILE
================================================================================
NAME = tddft.inp
|  1> %pal nprocs 4 end
|  2> %maxcore 3000
|  3> ! wB97X-D3 def2-TZVP def2/J RIJCOSX DefGrid3 TightSCF
|  4> %tddft
|  5>   nroots 30
|  6>   triplets false
|  7> end
|  8> * xyzfile 0 1 /home/jannes/chlorophyll-ladder/007-mg-core-ladder/mgporphin/01_opt/mgporphin_opt_b3lypd4_tzvp.xyz
|  9> 
| 10>                          ****END OF INPUT****
================================================================================

                       ****************************
                       * Single Point Calculation *
                       ****************************

---------------------------------
CARTESIAN COORDINATES (ANGSTROEM)
---------------------------------
  N     -2.126632    2.522518    3.528336
  H      1.688951   -2.244306    3.936854
  C     -4.367453    3.014298    3.517091
  C     -0.399300   -1.569210    3.904114
  N      0.091157    0.660020    3.674254
  C      0.955251   -1.456037    3.870452
  H     -0.988023   -2.467894    4.003531
  C      2.861647    1.841375    3.512926
  N     -0.259245    4.727154    3.281236
  C     -1.123334    6.843238    3.085343
  C      2.534867    0.494152    3.650974
  C      2.674027    4.023168    3.301567
  N      1.958546    2.864658    3.427339
  C      4.083452    3.721259    3.307939
  C     -0.935449   -0.237004    3.780431
  C      1.256233   -0.053833    3.726030
  C     -2.842123    1.364011    3.654087
  C     -3.029725    3.545804    3.442713
  C     -4.251542    1.665928    3.647704
  C     -2.289528    0.090486    3.770544
  C     -2.702948    4.893026    3.304662
  C      4.199367    2.372883    3.438500
  C     -1.424318    5.441018    3.229591
  C      0.231221    6.956420    3.051755
  C      2.121440    5.296697    3.185130
  C      0.767360    5.624187    3.175204
  H     -5.271397    3.601806    3.474297
  H     -5.042401    0.936910    3.732428
  H     -2.986818   -0.732582    3.863624
  H      3.363051   -0.201104    3.706153
  H      5.103317    1.785376    3.481270
  H      4.874295    4.450291    3.223211
  H      2.818737    6.119763    3.092108
  H      0.819955    7.855111    2.952489
  H     -3.531147    5.588265    3.249501
  H     -1.857042    7.631509    3.019026
  Mg    -0.084042    2.693585    3.477789

----------------------------
CARTESIAN COORDINATES (A.U.)
----------------------------
  NO LB      ZA    FRAG     MASS         X           Y           Z
   0 N     7.0000    0    14.007   -4.018753    4.766868    6.667589
   1 H     1.0000    0     1.008    3.191655   -4.241124    7.439576
   2 C     6.0000    0    12.011   -8.253290    5.696197    6.646338
   3 C     6.0000    0    12.011   -0.754567   -2.965378    7.377707
   4 N     7.0000    0    14.007    0.172263    1.247257    6.943333
   5 C     6.0000    0    12.011    1.805164   -2.751510    7.314095
   6 H     1.0000    0     1.008   -1.867093   -4.663643    7.565577
   7 C     6.0000    0    12.011    5.407728    3.479694    6.638469
   8 N     7.0000    0    14.007   -0.489901    8.933026    6.200637
   9 C     6.0000    0    12.011   -2.122794   12.931846    5.830453
  10 C     6.0000    0    12.011    4.790204    0.933812    6.899342
  11 C     6.0000    0    12.011    5.053178    7.602686    6.239058
  12 N     7.0000    0    14.007    3.701116    5.413420    6.476731
  13 C     6.0000    0    12.011    7.716607    7.032160    6.251099
  14 C     6.0000    0    12.011   -1.767742   -0.447872    7.143980
  15 C     6.0000    0    12.011    2.373936   -0.101729    7.041177
  16 C     6.0000    0    12.011   -5.370834    2.577607    6.905224
  17 C     6.0000    0    12.011   -5.725351    6.700598    6.505785
  18 C     6.0000    0    12.011   -8.034249    3.148147    6.893162
  19 C     6.0000    0    12.011   -4.326581    0.170994    7.125295
  20 C     6.0000    0    12.011   -5.107832    9.246479    6.244906
  21 C     6.0000    0    12.011    7.935654    4.484099    6.497823
  22 C     6.0000    0    12.011   -2.691571   10.282033    6.103042
  23 C     6.0000    0    12.011    0.436944   13.145729    5.766981
  24 C     6.0000    0    12.011    4.008940   10.009307    6.019023
  25 C     6.0000    0    12.011    1.450100   10.628173    6.000267
  26 H     1.0000    0     1.008   -9.961497    6.806428    6.565470
  27 H     1.0000    0     1.008   -9.528758    1.770503    7.053266
  28 H     1.0000    0     1.008   -5.644268   -1.384379    7.301191
  29 H     1.0000    0     1.008    6.355246   -0.380031    7.003613
  30 H     1.0000    0     1.008    9.643871    3.373872    6.578646
  31 H     1.0000    0     1.008    9.211083    8.409831    6.090987
  32 H     1.0000    0     1.008    5.326641   11.564676    5.843236
  33 H     1.0000    0     1.008    1.549490   14.844008    5.579396
  34 H     1.0000    0     1.008   -6.672901   10.560290    6.140667
  35 H     1.0000    0     1.008   -3.509300   14.421462    5.705132
  36 Mg   12.0000    0    24.305   -0.158817    5.090138    6.572068

--------------------------------
INTERNAL COORDINATES (ANGSTROEM)
--------------------------------
 N      0   0   0     0.000000000000     0.00000000     0.00000000
 H      1   0   0     6.119491276487     0.00000000     0.00000000
 C      1   2   0     2.294177409054   140.92453006     0.00000000
 C      2   1   3     2.194906869500    33.50915004     0.03654954
 N      4   2   1     2.294090550086    95.56469348     0.04751811
 C      2   1   3     1.078931462307     4.27284844     0.40083788
 H      4   2   1     1.078939583961   105.16341269   180.06430126
 C      5   4   2     3.016162461030   125.61516112   359.95655471
 N      1   2   6     2.899761601367   101.32570715   180.34880946
 C      9   1   2     2.294087441504   117.77531267   179.96469761
 C      8   5   4     1.393144250589    53.16437800     0.06876310
 C      8   5   4     2.200021689544   108.37491839   180.08468447
 N     12   8   5     1.367433868161    36.44673543     0.00000000
 C     12   8   5     1.441412676383    73.05033634   180.01204037
 C      5   4   2     1.367422885977    36.31868910   180.00102268
 C      5   4   2     1.367357644410    70.79572404     0.00000000
 C      1   2   6     1.367434647900    70.13306991     0.35586623
 C      1   2   6     1.367487791728   177.24111910     0.97900926
 C      3   1   2     1.359631242567    72.76301102   359.95357395
 C     17   1   2     1.393122060686   125.07310744     0.00000000
 C     18   1  17     1.393143327356   125.09478022   180.00966439
 C     14  12   8     1.359631880754   106.94820236     0.00000000
 C      9   1   2     1.367356903781    81.45605938   180.00111785
 C     10   9   1     1.359689963047    72.76177076   180.05889371
 C     12   8   5     1.393121008199   161.52060847   359.96153148
 C      9   1   2     1.367416327023   171.42924741     0.34052806
 H      3   1   2     1.078940742119   159.26701397   179.95498931
 H     19   3   1     1.078936604777   127.96204490   180.00155066
 H     20  17   1     1.082736356593   116.52889429   179.96077396
 H     11   8   5     1.082734663195   116.52549896   180.00584317
 H     22  14  12     1.078943065563   127.96985474   179.99900777
 H     14  12   8     1.078934265943   125.08876244   180.00062158
 H     25  12   8     1.082734522723   116.52871416   180.07456094
 H     24  10   9     1.078937518569   127.96698994   179.97965206
 H     21  18   1     1.082734010826   116.52436251   179.96628297
 H     10   9   1     1.078932341162   159.27697815     0.03817484
 Mg    13  12   8     2.050360529877   126.45537008   180.01043791

---------------------------
INTERNAL COORDINATES (A.U.)
---------------------------
 N      0   0   0     0.000000000000     0.00000000     0.00000000
 H      1   0   0    11.564162591480     0.00000000     0.00000000
 C      1   2   0     4.335367005742   140.92453006     0.00000000
 C      2   1   3     4.147772872818    33.50915004     0.03654954
 N      4   2   1     4.335202866080    95.56469348     0.04751811
 C      2   1   3     2.038884981031     4.27284844     0.40083788
 H      4   2   1     2.038900328733   105.16341269   180.06430126
 C      5   4   2     5.699721026761   125.61516112   359.95655471
 N      1   2   6     5.479755280244   101.32570715   180.34880946
 C      9   1   2     4.335196991710   117.77531267   179.96469761
 C      8   5   4     2.632661098659    53.16437800     0.06876310
 C      8   5   4     4.157438481924   108.37491839   180.08468447
 N     12   8   5     2.584075517072    36.44673543     0.00000000
 C     12   8   5     2.723875204326    73.05033634   180.01204037
 C      5   4   2     2.584054763752    36.31868910   180.00102268
 C      5   4   2     2.583931475058    70.79572404     0.00000000
 C      1   2   6     2.584076990566    70.13306991     0.35586623
 C      1   2   6     2.584177417846   177.24111910     0.97900926
 C      3   1   2     2.569330691574    72.76301102   359.95357395
 C     17   1   2     2.632619165820   125.07310744     0.00000000
 C     18   1  17     2.632659354002   125.09478022   180.00966439
 C     14  12   8     2.569331897574   106.94820236     0.00000000
 C      9   1   2     2.583930075473    81.45605938   180.00111785
 C     10   9   1     2.569441657201    72.76177076   180.05889371
 C     12   8   5     2.632617176909   161.52060847   359.96153148
 C      9   1   2     2.584042369125   171.42924741     0.34052806
 H      3   1   2     2.038902517335   159.26701397   179.95498931
 H     19   3   1     2.038894698891   127.96204490   180.00155066
 H     20  17   1     2.046075189201   116.52889429   179.96077396
 H     11   8   5     2.046071989142   116.52549896   180.00584317
 H     22  14  12     2.038906908008   127.96985474   179.99900777
 H     14  12   8     2.038890279135   125.08876244   180.00062158
 H     25  12   8     2.046071723688   116.52871416   180.07456094
 H     24  10   9     2.038896425708   127.96698994   179.97965206
 H     21  18   1     2.046070756344   116.52436251   179.96628297
 H     10   9   1     2.038886641826   159.27697815     0.03817484
 Mg    13  12   8     3.874619877269   126.45537008   180.01043791

---------------------
BASIS SET INFORMATION
---------------------
There are 4 groups of distinct atoms

 Group   1 Type N   : 11s6p2d1f contracted to 5s3p2d1f pattern {62111/411/11/1}
 Group   2 Type H   : 5s1p contracted to 3s1p pattern {311/1}
 Group   3 Type C   : 11s6p2d1f contracted to 5s3p2d1f pattern {62111/411/11/1}
 Group   4 Type Mg  : 14s8p3d contracted to 5s4p3d pattern {73211/5111/111}

Atom   0N    basis set group =>   1
Atom   1H    basis set group =>   2
Atom   2C    basis set group =>   3
Atom   3C    basis set group =>   3
Atom   4N    basis set group =>   1
Atom   5C    basis set group =>   3
Atom   6H    basis set group =>   2
Atom   7C    basis set group =>   3
Atom   8N    basis set group =>   1
Atom   9C    basis set group =>   3
Atom  10C    basis set group =>   3
Atom  11C    basis set group =>   3
Atom  12N    basis set group =>   1
Atom  13C    basis set group =>   3
Atom  14C    basis set group =>   3
Atom  15C    basis set group =>   3
Atom  16C    basis set group =>   3
Atom  17C    basis set group =>   3
Atom  18C    basis set group =>   3
Atom  19C    basis set group =>   3
Atom  20C    basis set group =>   3
Atom  21C    basis set group =>   3
Atom  22C    basis set group =>   3
Atom  23C    basis set group =>   3
Atom  24C    basis set group =>   3
Atom  25C    basis set group =>   3
Atom  26H    basis set group =>   2
Atom  27H    basis set group =>   2
Atom  28H    basis set group =>   2
Atom  29H    basis set group =>   2
Atom  30H    basis set group =>   2
Atom  31H    basis set group =>   2
Atom  32H    basis set group =>   2
Atom  33H    basis set group =>   2
Atom  34H    basis set group =>   2
Atom  35H    basis set group =>   2
Atom  36Mg   basis set group =>   4
---------------------------------
AUXILIARY/J BASIS SET INFORMATION
---------------------------------
There are 4 groups of distinct atoms

 Group   1 Type N   : 12s5p4d2f1g contracted to 6s4p3d1f1g pattern {711111/2111/211/2/1}
 Group   2 Type H   : 5s2p1d contracted to 3s1p1d pattern {311/2/1}
 Group   3 Type C   : 12s5p4d2f1g contracted to 6s4p3d1f1g pattern {711111/2111/211/2/1}
 Group   4 Type Mg  : 14s5p5d2f1g contracted to 8s4p4d1f1g pattern {71111111/2111/2111/2/1}

Atom   0N    basis set group =>   1
Atom   1H    basis set group =>   2
Atom   2C    basis set group =>   3
Atom   3C    basis set group =>   3
Atom   4N    basis set group =>   1
Atom   5C    basis set group =>   3
Atom   6H    basis set group =>   2
Atom   7C    basis set group =>   3
Atom   8N    basis set group =>   1
Atom   9C    basis set group =>   3
Atom  10C    basis set group =>   3
Atom  11C    basis set group =>   3
Atom  12N    basis set group =>   1
Atom  13C    basis set group =>   3
Atom  14C    basis set group =>   3
Atom  15C    basis set group =>   3
Atom  16C    basis set group =>   3
Atom  17C    basis set group =>   3
Atom  18C    basis set group =>   3
Atom  19C    basis set group =>   3
Atom  20C    basis set group =>   3
Atom  21C    basis set group =>   3
Atom  22C    basis set group =>   3
Atom  23C    basis set group =>   3
Atom  24C    basis set group =>   3
Atom  25C    basis set group =>   3
Atom  26H    basis set group =>   2
Atom  27H    basis set group =>   2
Atom  28H    basis set group =>   2
Atom  29H    basis set group =>   2
Atom  30H    basis set group =>   2
Atom  31H    basis set group =>   2
Atom  32H    basis set group =>   2
Atom  33H    basis set group =>   2
Atom  34H    basis set group =>   2
Atom  35H    basis set group =>   2
Atom  36Mg   basis set group =>   4


           ************************************************************
           *        Program running with 4 parallel MPI-processes     *
           *              working on a common directory               *
           ************************************************************
------------------------------------------------------------------------------
                             ORCA STARTUP CALCULATIONS
                           -- RI-GTO INTEGRALS CHOSEN --
------------------------------------------------------------------------------
------------------------------------------------------------------------------
                   ___                                                        
                  /   \      - P O W E R E D   B Y -                         
                 /     \                                                     
                 |  |  |   _    _      __       _____    __    __             
                 |  |  |  | |  | |    /  \     |  _  \  |  |  /  |          
                  \  \/   | |  | |   /    \    | | | |  |  | /  /          
                 / \  \   | |__| |  /  /\  \   | |_| |  |  |/  /          
                |  |  |   |  __  | /  /__\  \  |    /   |      \           
                |  |  |   | |  | | |   __   |  |    \   |  |\   \          
                \     /   | |  | | |  |  |  |  | |\  \  |  | \   \       
                 \___/    |_|  |_| |__|  |__|  |_| \__\ |__|  \__/        
                                                                              
                      - O R C A' S   B I G   F R I E N D -                    
                                      &                                       
                       - I N T E G R A L  F E E D E R -                       
                                                                              
 v1 FN, 2020, v2 2021, v3 2022-2024                                           
------------------------------------------------------------------------------


----------------------
SHARK INTEGRAL PACKAGE
----------------------

Number of atoms                             ...     37
Number of basis functions                   ...    848
Number of shells                            ...    324
Maximum angular momentum                    ...      3
Integral batch strategy                     ... SHARK/LIBINT Hybrid
RI-J (if used) integral strategy            ... SPLIT-RIJ (Revised 2003 algorithm where possible)
Printlevel                                  ...      1
Contraction scheme used                     ... SEGMENTED contraction
Prescreening option                         ... SCHWARTZ
   Thresh                                   ... 2.500e-11
   Tcut                                     ... 2.500e-12
   Tpresel                                  ... 2.500e-12 
Coulomb Range Separation                    ... NOT USED
Exchange Range Separation                   ... Long Range
   Mu parameter                             ... 2.500e-01
   Scaling (regular/separated)              ... 1.957e-01 8.043e-01
Robust (split-)RI terms used:
  metric    (central integrals)             ... YES
  density   (r.h.s.  integrals)             ... YES
  potential (l.h.s.  integrals)             ... YES
Multipole approximations                    ... NOT USED
Finite Nucleus Model                        ... NOT USED
CABS basis                                  ... NOT available
Auxiliary Coulomb fitting basis             ... AVAILABLE
   # of basis functions in Aux-J            ...   1364
   # of shells in Aux-J                     ...    438
   Maximum angular momentum in Aux-J        ...      4
Auxiliary J/K fitting basis                 ... NOT available
Auxiliary Correlation fitting basis         ... NOT available
Auxiliary 'external' fitting basis          ... NOT available

Checking pre-screening integrals            ... done (  0.0 sec) Dimension = 324
   => SHARK Basis and OBASIS are compatible. Storing Pre-screening
Shell pair information
Shell pair cut-off parameter TPreSel        ...   2.5e-12
Total number of shell pairs                 ...     52650
Shell pairs after pre-screening             ...     37452
Total number of primitive shell pairs       ...    167352
Primitive shell pairs kept                  ...     77858
          la=0 lb=0:   8711 shell pairs
          la=1 lb=0:  10604 shell pairs
          la=1 lb=1:   3186 shell pairs
          la=2 lb=0:   5583 shell pairs
          la=2 lb=1:   3500 shell pairs
          la=2 lb=2:    986 shell pairs
          la=3 lb=0:   2388 shell pairs
          la=3 lb=1:   1536 shell pairs
          la=3 lb=2:    788 shell pairs
          la=3 lb=3:    170 shell pairs

Checking whether 4 symmetric matrices of dimension 848 fit in memory
:Max Core in MB      =   3000.00
 MB in use           =     49.24
 MB left             =   2950.76
 MB needed           =     10.99
 Data fit in memory  = YES
Calculating RI/J V-Matrix + Cholesky decomp.... done (  0.2 sec)
Calculating Nuclear repulsion               ... done (  0.0 sec) ENN=   2121.711186967779 Eh

Diagonalization of the overlap matrix:
Smallest eigenvalue                        ... 1.003e-05
Time for diagonalization                   ...    0.196 sec
Threshold for overlap eigenvalues          ... 1.000e-07
Number of eigenvalues below threshold      ... 0
Time for construction of square roots      ...    0.101 sec
Total time needed                          ...    0.304 sec

-------------------
DFT GRID GENERATION
-------------------

General Integration Accuracy     IntAcc      ... 4.959
Radial Grid Type                 RadialGrid  ... OptM3 with GC (2021)
Angular Grid (max. ang.)         AngularGrid ... 6 (Lebedev-590)
Angular grid pruning method      GridPruning ... 4 (adaptive)
Weight generation scheme         WeightScheme... mBecke (2022)
Basis function cutoff            BFCut       ... 1.0000e-11
Integration weight cutoff        WCut        ... 1.0000e-14
Partially contracted basis set               ... off
Rotationally invariant grid construction     ... off
Angular grids for H and He will be reduced by one unit

Total number of grid points                  ...   456655
Total number of batches                      ...     7152
Average number of points per batch           ...       63
Average number of grid points per atom       ...    12342

--------------------
COSX GRID GENERATION
--------------------

GRIDX 1
-------
General Integration Accuracy     IntAcc      ... 4.020
Radial Grid Type                 RadialGrid  ... OptM3 with GC (2021)
Angular Grid (max. ang.)         AngularGrid ... 2 (Lebedev-110)
Angular grid pruning method      GridPruning ... 4 (adaptive)
Weight generation scheme         WeightScheme... mBecke (2022)
Basis function cutoff            BFCut       ... 1.0000e-11
Integration weight cutoff        WCut        ... 1.0000e-14
Partially contracted basis set               ... on
Rotationally invariant grid construction     ... off
Angular grids for H and He will be reduced by one unit

Total number of grid points                  ...    52690
Total number of batches                      ...      428
Average number of points per batch           ...      123
Average number of grid points per atom       ...     1424
UseSFitting                                  ... on

GRIDX 2
-------
General Integration Accuracy     IntAcc      ... 4.338
Radial Grid Type                 RadialGrid  ... OptM3 with GC (2021)
Angular Grid (max. ang.)         AngularGrid ... 3 (Lebedev-194)
Angular grid pruning method      GridPruning ... 4 (adaptive)
Weight generation scheme         WeightScheme... mBecke (2022)
Basis function cutoff            BFCut       ... 1.0000e-11
Integration weight cutoff        WCut        ... 1.0000e-14
Partially contracted basis set               ... on
Rotationally invariant grid construction     ... off
Angular grids for H and He will be reduced by one unit

Total number of grid points                  ...   116101
Total number of batches                      ...      923
Average number of points per batch           ...      125
Average number of grid points per atom       ...     3138
UseSFitting                                  ... on

GRIDX 3
-------
General Integration Accuracy     IntAcc      ... 4.871
Radial Grid Type                 RadialGrid  ... OptM3 with GC (2021)
Angular Grid (max. ang.)         AngularGrid ... 4 (Lebedev-302)
Angular grid pruning method      GridPruning ... 4 (adaptive)
Weight generation scheme         WeightScheme... mBecke (2022)
Basis function cutoff            BFCut       ... 1.0000e-11
Integration weight cutoff        WCut        ... 1.0000e-14
Partially contracted basis set               ... on
Rotationally invariant grid construction     ... off
Angular grids for H and He will be reduced by one unit

Total number of grid points                  ...   212436
Total number of batches                      ...     1675
Average number of points per batch           ...      126
Average number of grid points per atom       ...     5742
UseSFitting                                  ... on
Grids setup in  14.4 sec
Initializing property integral containers    ... done (  0.0 sec)

SHARK setup successfully completed in  15.7 seconds

Maximum memory used throughout the entire STARTUP-calculation: 148.4 MB


           ************************************************************
           *        Program running with 4 parallel MPI-processes     *
           *              working on a common directory               *
           ************************************************************
-------------------------------------------------------------------------------
                                 ORCA GUESS
                   Start orbitals & Density for SCF / CASSCF
-------------------------------------------------------------------------------

------------
SCF SETTINGS
------------
Hamiltonian:
 Density Functional     Method          .... DFT(GTOs)
 Exchange Functional    Exchange        .... WB97X-D3
 Correlation Functional Correlation     .... WB97X-D3
 Gradients option       PostSCFGGA      .... off
 Hybrid DFT is turned on
   Fraction HF Exchange ScalHFX         ....  0.195728
   Scaling of DF-GGA-X  ScalDFX         ....  0.000000
   Scaling of DF-GGA-C  ScalDFC         ....  1.000000
   Scaling of DF-LDA-C  ScalLDAC        ....  1.000000
   Perturbative correction              ....  0.000000
 Long-range corrected/Screened/Range-Separated Hybrid DFT is turned on
   Amount of maximum screened exact exchange              ....  0.804272
   Range separation parameter mu (erf(mu*r12)/r12)        ....  0.250000
 RI-approximation to the Coulomb term is turned on
   Number of AuxJ basis functions       .... 1364
   RIJ-COSX (HFX calculated with COS-X)).... on


General Settings:
 Integral files         IntName         .... tddft
 Hartree-Fock type      HFTyp           .... RHF
 Total Charge           Charge          ....    0
 Multiplicity           Mult            ....    1
 Number of Electrons    NEL             ....  172
 Basis Dimension        Dim             ....  848
 Nuclear Repulsion      ENuc            ....   2121.7111869678 Eh

Convergence Acceleration:
 AO-DIIS                CNVDIIS         .... on
   Start iteration      DIISMaxIt       ....    12
   Startup error        DIISStart       ....  0.200000
   # of expansion vecs  DIISMaxEq       ....     5
   Bias factor          DIISBfac        ....   1.050
   Max. coefficient     DIISMaxC        ....  10.000
 MO-DIIS                CNVKDIIS        .... off
 Trust-Rad. Augm. Hess. CNVTRAH         .... auto
   Auto Start mean grad. ratio tolernc. ....  1.125000
   Auto Start start iteration           ....    50
   Auto Start num. interpolation iter.  ....    10
   Max. Number of Micro iterations      ....    24
   Max. Number of Macro iterations      .... Maxiter - #DIIS iter
   Number of Davidson start vectors     ....     2
   Converg. threshold    (grad. norm)   ....   1.000e-05
   Grad. Scal. Fac. for Micro threshold ....   0.100
   Minimum threshold for Micro iter.    ....   1.000e-02
   NR start threshold (gradient norm)   ....   1.000e-04
   Initial trust radius                 ....   0.400
   Minimum AH scaling param. (alpha)    ....   1.000
   Maximum AH scaling param. (alpha)    .... 1000.000
   Quad. conv. algorithm                .... NR
   White noise on init. David. guess    .... on
   Maximum white noise                  ....   0.010
   Pseudo random numbers                .... off
   Inactive MOs                         .... canonical
   Orbital update algorithm             .... Taylor
   Preconditioner                       .... Diag
   Full preconditioner red. dimension   ....   250
 SOSCF                 CNVSOSCF           .... on
   Start iteration     SOSCFMaxIt         ....   150
   Startup grad/error  SOSCFStart         ....  0.003300
   Hessian update      SOSCFHessUp        .... L-BFGS
   Autom. constraints  SOSCFAutoConstrain .... off
 Level Shifting         CNVShift        .... on
   Level shift para.    LevelShift      ....    0.2500
   Turn off err/grad.   ShiftErr        ....    0.0010
 Zerner damping         CNVZerner       .... off
 Static damping         CNVDamp         .... on
   Fraction old density DampFac         ....    0.7000
   Max. Damping (<1)    DampMax         ....    0.9800
   Min. Damping (>=0)   DampMin         ....    0.0000
   Turn off err/grad.   DampErr         ....    0.1000

SCF Procedure:
 Maximum # iterations   MaxIter         ....   125
 SCF integral mode      SCFMode         .... Direct
   Integral package                     .... SHARK and LIBINT hybrid scheme
 Reset frequency        DirectResetFreq ....    20
 Integral Threshold     Thresh          ....  2.500e-11 Eh
 Primitive CutOff       TCut            ....  2.500e-12 Eh

Convergence Tolerance:
 Convergence Check Mode ConvCheckMode   .... Total+1el-Energy
 Convergence forced     ConvForced      .... 1
 Energy Change          TolE            ....  1.000e-08 Eh
 1-El. energy change                    ....  1.000e-05 Eh
 Orbital Gradient       TolG            ....  1.000e-05
 Orbital Rotation angle TolX            ....  1.000e-05
 DIIS Error             TolErr          ....  5.000e-07

------------------------------
INITIAL GUESS: MODEL POTENTIAL
------------------------------
Loading Hartree-Fock densities                     ... done
Calculating cut-offs                               ... done
Initializing the effective Hamiltonian             ... done
Setting up the integral package (SHARK)            ... done
Starting the Coulomb interaction                   ... done (   1.6 sec)
Making the grid                                    ... done (   0.6 sec)
Mapping shells                                     ... done
Starting the XC term evaluation                    ... done (   0.9 sec)
  promolecular density results
     # of electrons  =    171.995110955
     EX              =   -148.115499445
     EC              =     -5.855479608
     EX+EC           =   -153.970979052
Transforming the Hamiltonian                       ... done (   0.1 sec)
Diagonalizing the Hamiltonian                      ... done (   0.2 sec)
Back transforming the eigenvectors                 ... done (   0.1 sec)
Now organizing SCF variables                       ... done
                      ------------------
                      INITIAL GUESS DONE (   3.5 sec)
                      ------------------
             **** ENERGY FILE WAS UPDATED (tddft.en.tmp) ****
Finished Guess after   4.0 sec
Maximum memory used throughout the entire GUESS-calculation: 83.5 MB


           ************************************************************
           *        Program running with 4 parallel MPI-processes     *
           *              working on a common directory               *
           ************************************************************

-------------------------------------------------------------------------------------------
                                      ORCA LEAN-SCF
                              memory conserving SCF solver
-------------------------------------------------------------------------------------------

----------------------------------------D-I-I-S--------------------------------------------
Iteration    Energy (Eh)           Delta-E    RMSDP     MaxDP     DIISErr   Damp  Time(sec)
-------------------------------------------------------------------------------------------
               ***  Starting incremental Fock matrix formation  ***
    1    -1188.0796067376818428     0.00e+00  1.70e-03  3.61e-02  2.14e-01  0.700 139.7
    2    -1188.2899712353068935    -2.10e-01  1.39e-03  3.08e-02  1.16e-01  0.700  60.2
                               ***Turning on AO-DIIS***
    3    -1188.3987324777899630    -1.09e-01  9.00e-04  2.17e-02  5.22e-02  0.700  58.3
    4    -1188.4645406603867741    -6.58e-02  2.00e-03  4.73e-02  3.68e-02  0.000  56.5
    5    -1188.6062576949907452    -1.42e-01  1.98e-04  5.39e-03  4.07e-03  0.000  84.4
                              *** Initializing SOSCF ***
---------------------------------------S-O-S-C-F--------------------------------------
Iteration    Energy (Eh)           Delta-E    RMSDP     MaxDP     MaxGrad    Time(sec)
--------------------------------------------------------------------------------------
    6    -1188.6067068039137666    -4.49e-04  8.00e-05  2.05e-03  2.11e-03    50.5
               *** Restarting incremental Fock matrix formation ***
    7    -1188.6067744414049230    -6.76e-05  7.26e-05  2.65e-03  7.99e-04   170.5
    8    -1188.6067969562150211    -2.25e-05  3.50e-05  6.83e-04  3.53e-04   125.2
    9    -1188.6068014316920198    -4.48e-06  8.93e-06  3.28e-04  1.13e-04    94.3
   10    -1188.6068017727111510    -3.41e-07  4.68e-06  8.36e-05  6.23e-05   109.1
   11    -1188.6068019196468413    -1.47e-07  5.78e-06  1.01e-04  1.32e-05    73.5
   12    -1188.6068019231774997    -3.53e-09  3.02e-06  6.74e-05  1.12e-05    96.9
                 **** Energy Check signals convergence ****

               *****************************************************
               *                     SUCCESS                       *
               *           SCF CONVERGED AFTER  12 CYCLES          *
               *****************************************************

Recomputing exchange energy using gridx3       ... done (  311.097 sec)
Old exchange energy                            :    -47.913597207 Eh
New exchange energy                            :    -47.913591727 Eh
Exchange energy change after final integration :      0.000005480 Eh
Total energy after final integration           :  -1188.606796408 Eh
             **** ENERGY FILE WAS UPDATED (tddft.en.tmp) ****

----------------
TOTAL SCF ENERGY
----------------

Total Energy       :      -1188.60679640754302 Eh          -32343.63525 eV

Components:
Nuclear Repulsion  :       2121.71118696777876 Eh           57734.69657 eV
Electronic Energy  :      -3310.31798885521084 Eh          -90078.33197 eV
One Electron Energy:      -5838.64133533777658 Eh         -158877.50791 eV
Two Electron Energy:       2528.32334648256574 Eh           68799.17594 eV

Virial components:
Potential Energy   :      -2372.03580362211187 Eh          -64546.37569 eV
Kinetic Energy     :       1183.42900721456886 Eh           32202.74044 eV
Virial Ratio       :          2.00437524275762

DFT components:
N(Alpha)           :       86.000002285561 electrons
N(Beta)            :       86.000002285561 electrons
N(Total)           :      172.000004571122 electrons
E(XC)              :     -109.384189143476 Eh       

---------------
SCF CONVERGENCE
---------------

  Last Energy change         ...    3.5307e-09  Tolerance :   1.0000e-08
  Last MAX-Density change    ...    6.7413e-05  Tolerance :   1.0000e-07
  Last RMS-Density change    ...    3.0210e-06  Tolerance :   5.0000e-09
  Last DIIS Error            ...    2.1122e-03  Tolerance :   5.0000e-07
  Last Orbital Gradient      ...    1.1168e-05  Tolerance :   1.0000e-05
  Last Orbital Rotation      ...    1.1607e-05  Tolerance :   1.0000e-05


----------------
ORBITAL ENERGIES
----------------

  NO   OCC          E(Eh)            E(eV) 
   0   2.0000     -46.850871     -1274.8770 
   1   2.0000     -14.410714      -392.1355 
   2   2.0000     -14.410709      -392.1353 
   3   2.0000     -14.410707      -392.1353 
   4   2.0000     -14.410705      -392.1352 
   5   2.0000     -10.314675      -280.6766 
   6   2.0000     -10.314671      -280.6765 
   7   2.0000     -10.314668      -280.6764 
   8   2.0000     -10.314665      -280.6763 
   9   2.0000     -10.314633      -280.6754 
  10   2.0000     -10.314632      -280.6754 
  11   2.0000     -10.314628      -280.6753 
  12   2.0000     -10.314627      -280.6753 
  13   2.0000     -10.289560      -279.9932 
  14   2.0000     -10.289556      -279.9930 
  15   2.0000     -10.289554      -279.9930 
  16   2.0000     -10.289550      -279.9929 
  17   2.0000     -10.282005      -279.7876 
  18   2.0000     -10.282004      -279.7876 
  19   2.0000     -10.282002      -279.7875 
  20   2.0000     -10.282000      -279.7874 
  21   2.0000     -10.281271      -279.7676 
  22   2.0000     -10.281269      -279.7676 
  23   2.0000     -10.281268      -279.7675 
  24   2.0000     -10.281268      -279.7675 
  25   2.0000      -3.161381       -86.0255 
  26   2.0000      -1.899716       -51.6939 
  27   2.0000      -1.893646       -51.5287 
  28   2.0000      -1.893645       -51.5287 
  29   2.0000      -1.083232       -29.4762 
  30   2.0000      -1.074401       -29.2359 
  31   2.0000      -1.074375       -29.2352 
  32   2.0000      -1.064620       -28.9698 
  33   2.0000      -0.934868       -25.4391 
  34   2.0000      -0.907535       -24.6953 
  35   2.0000      -0.907533       -24.6952 
  36   2.0000      -0.888138       -24.1675 
  37   2.0000      -0.882037       -24.0015 
  38   2.0000      -0.882027       -24.0012 
  39   2.0000      -0.878027       -23.8923 
  40   2.0000      -0.855694       -23.2846 
  41   2.0000      -0.831368       -22.6227 
  42   2.0000      -0.767129       -20.8746 
  43   2.0000      -0.767120       -20.8744 
  44   2.0000      -0.706933       -19.2366 
  45   2.0000      -0.684328       -18.6215 
  46   2.0000      -0.680642       -18.5212 
  47   2.0000      -0.680631       -18.5209 
  48   2.0000      -0.676644       -18.4124 
  49   2.0000      -0.655483       -17.8366 
  50   2.0000      -0.647687       -17.6245 
  51   2.0000      -0.629095       -17.1185 
  52   2.0000      -0.629086       -17.1183 
  53   2.0000      -0.615595       -16.7512 
  54   2.0000      -0.599875       -16.3234 
  55   2.0000      -0.599873       -16.3234 
  56   2.0000      -0.548169       -14.9164 
  57   2.0000      -0.537784       -14.6338 
  58   2.0000      -0.533336       -14.5128 
  59   2.0000      -0.522948       -14.2301 
  60   2.0000      -0.522932       -14.2297 
  61   2.0000      -0.521721       -14.1967 
  62   2.0000      -0.521710       -14.1965 
  63   2.0000      -0.520759       -14.1706 
  64   2.0000      -0.508795       -13.8450 
  65   2.0000      -0.496648       -13.5145 
  66   2.0000      -0.486362       -13.2346 
  67   2.0000      -0.486346       -13.2342 
  68   2.0000      -0.480384       -13.0719 
  69   2.0000      -0.470357       -12.7991 
  70   2.0000      -0.470348       -12.7988 
  71   2.0000      -0.464777       -12.6472 
  72   2.0000      -0.464230       -12.6323 
  73   2.0000      -0.461456       -12.5569 
  74   2.0000      -0.425822       -11.5872 
  75   2.0000      -0.410252       -11.1635 
  76   2.0000      -0.410239       -11.1632 
  77   2.0000      -0.379312       -10.3216 
  78   2.0000      -0.373421       -10.1613 
  79   2.0000      -0.373419       -10.1612 
  80   2.0000      -0.354991        -9.6598 
  81   2.0000      -0.342113        -9.3094 
  82   2.0000      -0.342107        -9.3092 
  83   2.0000      -0.337694        -9.1891 
  84   2.0000      -0.258898        -7.0450 
  85   2.0000      -0.255556        -6.9540 
  86   0.0000      -0.038036        -1.0350 
  87   0.0000      -0.038021        -1.0346 
  88   0.0000       0.046122         1.2550 
  89   0.0000       0.075107         2.0438 
  90   0.0000       0.102743         2.7958 
  91   0.0000       0.122269         3.3271 
  92   0.0000       0.131848         3.5878 
  93   0.0000       0.131857         3.5880 
  94   0.0000       0.134128         3.6498 
  95   0.0000       0.135757         3.6941 
  96   0.0000       0.135761         3.6942 
*Only the first 10 virtual orbitals were printed.

                    ********************************
                    * MULLIKEN POPULATION ANALYSIS *
                    ********************************

-----------------------
MULLIKEN ATOMIC CHARGES
-----------------------
   0 N :   -0.412828
   1 H :    0.127573
   2 C :   -0.202262
   3 C :   -0.202201
   4 N :   -0.413114
   5 C :   -0.202075
   6 H :    0.127639
   7 C :    0.291348
   8 N :   -0.413120
   9 C :   -0.201950
  10 C :   -0.335876
  11 C :    0.291494
  12 N :   -0.412797
  13 C :   -0.202286
  14 C :    0.290897
  15 C :    0.292145
  16 C :    0.291399
  17 C :    0.291400
  18 C :   -0.202178
  19 C :   -0.335279
  20 C :   -0.335801
  21 C :   -0.202120
  22 C :    0.291947
  23 C :   -0.202250
  24 C :   -0.335315
  25 C :    0.290986
  26 H :    0.127622
  27 H :    0.127637
  28 H :    0.125826
  29 H :    0.125838
  30 H :    0.127618
  31 H :    0.127597
  32 H :    0.125838
  33 H :    0.127613
  34 H :    0.125845
  35 H :    0.127598
  36 Mg:    0.755589
Sum of atomic charges:    0.0000000

--------------------------------
MULLIKEN REDUCED ORBITAL CHARGES
--------------------------------
  0 N s       :     3.653957  s :     3.653957
      pz      :     1.369246  p :     3.695030
      px      :     1.277263
      py      :     1.048520
      dz2     :     0.004954  d :     0.060191
      dxz     :     0.005733
      dyz     :     0.013694
      dx2y2   :     0.016785
      dxy     :     0.019026
      f0      :     0.000673  f :     0.003650
      f+1     :     0.000325
      f-1     :     0.000444
      f+2     :     0.000107
      f-2     :     0.000586
      f+3     :     0.000598
      f-3     :     0.000917

  1 H s       :     0.850266  s :     0.850266
      pz      :     0.004654  p :     0.022161
      px      :     0.008212
      py      :     0.009295

  2 C s       :     3.247504  s :     3.247504
      pz      :     0.993303  p :     2.866277
      px      :     0.914515
      py      :     0.958458
      dz2     :     0.005391  d :     0.080663
      dxz     :     0.009619
      dyz     :     0.020110
      dx2y2   :     0.017178
      dxy     :     0.028365
      f0      :     0.001518  f :     0.007819
      f+1     :     0.000772
      f-1     :     0.000663
      f+2     :     0.000956
      f-2     :     0.000434
      f+3     :     0.002281
      f-3     :     0.001196

  3 C s       :     3.247277  s :     3.247277
      pz      :     0.992958  p :     2.866449
      px      :     0.958116
      py      :     0.915375
      dz2     :     0.004936  d :     0.080656
      dxz     :     0.020746
      dyz     :     0.009467
      dx2y2   :     0.017095
      dxy     :     0.028412
      f0      :     0.001560  f :     0.007819
      f+1     :     0.000564
      f-1     :     0.000791
      f+2     :     0.001011
      f-2     :     0.000428
      f+3     :     0.001170
      f-3     :     0.002295

  4 N s       :     3.654342  s :     3.654342
      pz      :     1.371259  p :     3.694921
      px      :     1.045495
      py      :     1.278166
      dz2     :     0.004780  d :     0.060201
      dxz     :     0.013924
      dyz     :     0.005642
      dx2y2   :     0.016748
      dxy     :     0.019107
      f0      :     0.000678  f :     0.003650
      f+1     :     0.000431
      f-1     :     0.000333
      f+2     :     0.000103
      f-2     :     0.000582
      f+3     :     0.000925
      f-3     :     0.000598

  5 C s       :     3.247390  s :     3.247390
      pz      :     0.992903  p :     2.866207
      px      :     0.962683
      py      :     0.910620
      dz2     :     0.005171  d :     0.080659
      dxz     :     0.018274
      dyz     :     0.011686
      dx2y2   :     0.018852
      dxy     :     0.026676
      f0      :     0.001549  f :     0.007819
      f+1     :     0.000604
      f-1     :     0.000771
      f+2     :     0.001287
      f-2     :     0.000136
      f+3     :     0.001352
      f-3     :     0.002119

  6 H s       :     0.850199  s :     0.850199
      pz      :     0.004702  p :     0.022161
      px      :     0.006506
      py      :     0.010953

  7 C s       :     3.097522  s :     3.097522
      pz      :     0.902947  p :     2.441781
      px      :     0.781610
      py      :     0.757223
      dz2     :     0.004037  d :     0.154804
      dxz     :     0.029852
      dyz     :     0.036645
      dx2y2   :     0.044417
      dxy     :     0.039854
      f0      :     0.002229  f :     0.014545
      f+1     :     0.000946
      f-1     :     0.001129
      f+2     :     0.000708
      f-2     :     0.002315
      f+3     :     0.003455
      f-3     :     0.003762

  8 N s       :     3.654340  s :     3.654340
      pz      :     1.371252  p :     3.694928
      px      :     1.045493
      py      :     1.278183
      dz2     :     0.004780  d :     0.060202
      dxz     :     0.013925
      dyz     :     0.005642
      dx2y2   :     0.016749
      dxy     :     0.019106
      f0      :     0.000678  f :     0.003650
      f+1     :     0.000431
      f-1     :     0.000333
      f+2     :     0.000103
      f-2     :     0.000582
      f+3     :     0.000925
      f-3     :     0.000598

  9 C s       :     3.247102  s :     3.247102
      pz      :     0.992911  p :     2.866370
      px      :     0.962737
      py      :     0.910722
      dz2     :     0.005169  d :     0.080659
      dxz     :     0.018274
      dyz     :     0.011686
      dx2y2   :     0.018853
      dxy     :     0.026677
      f0      :     0.001549  f :     0.007819
      f+1     :     0.000604
      f-1     :     0.000771
      f+2     :     0.001287
      f-2     :     0.000136
      f+3     :     0.001352
      f-3     :     0.002119

 10 C s       :     3.284753  s :     3.284753
      pz      :     1.014704  p :     2.969107
      px      :     0.982978
      py      :     0.971424
      dz2     :     0.003456  d :     0.074800
      dxz     :     0.013763
      dyz     :     0.017513
      dx2y2   :     0.009328
      dxy     :     0.030740
      f0      :     0.001437  f :     0.007217
      f+1     :     0.000643
      f-1     :     0.000716
      f+2     :     0.000769
      f-2     :     0.000452
      f+3     :     0.001887
      f-3     :     0.001314

 11 C s       :     3.098349  s :     3.098349
      pz      :     0.902605  p :     2.440924
      px      :     0.792407
      py      :     0.745912
      dz2     :     0.004173  d :     0.154690
      dxz     :     0.028832
      dyz     :     0.037586
      dx2y2   :     0.044737
      dxy     :     0.039361
      f0      :     0.002228  f :     0.014543
      f+1     :     0.000897
      f-1     :     0.001182
      f+2     :     0.001134
      f-2     :     0.001893
      f+3     :     0.002212
      f-3     :     0.004998

 12 N s       :     3.653948  s :     3.653948
      pz      :     1.369249  p :     3.695007
      px      :     1.277261
      py      :     1.048497
      dz2     :     0.004954  d :     0.060192
      dxz     :     0.005733
      dyz     :     0.013694
      dx2y2   :     0.016785
      dxy     :     0.019026
      f0      :     0.000673  f :     0.003650
      f+1     :     0.000325
      f-1     :     0.000444
      f+2     :     0.000107
      f-2     :     0.000586
      f+3     :     0.000598
      f-3     :     0.000917

 13 C s       :     3.247384  s :     3.247384
      pz      :     0.993472  p :     2.866426
      px      :     0.909913
      py      :     0.963041
      dz2     :     0.005178  d :     0.080656
      dxz     :     0.012015
      dyz     :     0.017952
      dx2y2   :     0.018961
      dxy     :     0.026550
      f0      :     0.001528  f :     0.007819
      f+1     :     0.000705
      f-1     :     0.000712
      f+2     :     0.001253
      f-2     :     0.000152
      f+3     :     0.002098
      f-3     :     0.001371

 14 C s       :     3.097750  s :     3.097750
      pz      :     0.902956  p :     2.442010
      px      :     0.755761
      py      :     0.783293
      dz2     :     0.003786  d :     0.154797
      dxz     :     0.037660
      dyz     :     0.029220
      dx2y2   :     0.044186
      dxy     :     0.039945
      f0      :     0.002259  f :     0.014545
      f+1     :     0.001071
      f-1     :     0.000964
      f+2     :     0.000735
      f-2     :     0.002281
      f+3     :     0.003787
      f-3     :     0.003449

 15 C s       :     3.098061  s :     3.098061
      pz      :     0.903284  p :     2.440535
      px      :     0.744383
      py      :     0.792868
      dz2     :     0.003761  d :     0.154715
      dxz     :     0.038664
      dyz     :     0.028290
      dx2y2   :     0.044577
      dxy     :     0.039423
      f0      :     0.002261  f :     0.014544
      f+1     :     0.001091
      f-1     :     0.000939
      f+2     :     0.001099
      f-2     :     0.001912
      f+3     :     0.005029
      f-3     :     0.002213

 16 C s       :     3.098364  s :     3.098364
      pz      :     0.902608  p :     2.440999
      px      :     0.792470
      py      :     0.745921
      dz2     :     0.004174  d :     0.154695
      dxz     :     0.028832
      dyz     :     0.037585
      dx2y2   :     0.044740
      dxy     :     0.039365
      f0      :     0.002228  f :     0.014543
      f+1     :     0.000897
      f-1     :     0.001182
      f+2     :     0.001134
      f-2     :     0.001893
      f+3     :     0.002212
      f-3     :     0.004998

 17 C s       :     3.097559  s :     3.097559
      pz      :     0.902957  p :     2.441692
      px      :     0.781496
      py      :     0.757239
      dz2     :     0.004039  d :     0.154804
      dxz     :     0.029853
      dyz     :     0.036644
      dx2y2   :     0.044419
      dxy     :     0.039850
      f0      :     0.002229  f :     0.014545
      f+1     :     0.000946
      f-1     :     0.001129
      f+2     :     0.000708
      f-2     :     0.002315
      f+3     :     0.003454
      f-3     :     0.003762

 18 C s       :     3.247223  s :     3.247223
      pz      :     0.993481  p :     2.866475
      px      :     0.909954
      py      :     0.963041
      dz2     :     0.005178  d :     0.080661
      dxz     :     0.012015
      dyz     :     0.017952
      dx2y2   :     0.018959
      dxy     :     0.026556
      f0      :     0.001528  f :     0.007819
      f+1     :     0.000705
      f-1     :     0.000712
      f+2     :     0.001253
      f-2     :     0.000152
      f+3     :     0.002098
      f-3     :     0.001371

 19 C s       :     3.284601  s :     3.284601
      pz      :     1.015028  p :     2.968654
      px      :     0.970697
      py      :     0.982929
      dz2     :     0.003097  d :     0.074807
      dxz     :     0.018227
      dyz     :     0.013403
      dx2y2   :     0.009372
      dxy     :     0.030709
      f0      :     0.001465  f :     0.007217
      f+1     :     0.000634
      f-1     :     0.000678
      f+2     :     0.000782
      f-2     :     0.000448
      f+3     :     0.001307
      f-3     :     0.001902

 20 C s       :     3.284575  s :     3.284575
      pz      :     1.014694  p :     2.969202
      px      :     0.983073
      py      :     0.971435
      dz2     :     0.003454  d :     0.074807
      dxz     :     0.013763
      dyz     :     0.017513
      dx2y2   :     0.009333
      dxy     :     0.030743
      f0      :     0.001437  f :     0.007217
      f+1     :     0.000643
      f-1     :     0.000716
      f+2     :     0.000769
      f-2     :     0.000452
      f+3     :     0.001887
      f-3     :     0.001314

 21 C s       :     3.247350  s :     3.247350
      pz      :     0.993302  p :     2.866293
      px      :     0.914514
      py      :     0.958477
      dz2     :     0.005390  d :     0.080659
      dxz     :     0.009619
      dyz     :     0.020110
      dx2y2   :     0.017180
      dxy     :     0.028360
      f0      :     0.001518  f :     0.007819
      f+1     :     0.000772
      f-1     :     0.000663
      f+2     :     0.000956
      f-2     :     0.000434
      f+3     :     0.002281
      f-3     :     0.001196

 22 C s       :     3.098111  s :     3.098111
      pz      :     0.903308  p :     2.440667
      px      :     0.744388
      py      :     0.792972
      dz2     :     0.003762  d :     0.154730
      dxz     :     0.038663
      dyz     :     0.028292
      dx2y2   :     0.044585
      dxy     :     0.039428
      f0      :     0.002261  f :     0.014544
      f+1     :     0.001091
      f-1     :     0.000938
      f+2     :     0.001099
      f-2     :     0.001912
      f+3     :     0.005029
      f-3     :     0.002214

 23 C s       :     3.247463  s :     3.247463
      pz      :     0.992954  p :     2.866312
      px      :     0.958073
      py      :     0.915285
      dz2     :     0.004936  d :     0.080656
      dxz     :     0.020746
      dyz     :     0.009467
      dx2y2   :     0.017096
      dxy     :     0.028411
      f0      :     0.001560  f :     0.007819
      f+1     :     0.000564
      f-1     :     0.000791
      f+2     :     0.001011
      f-2     :     0.000428
      f+3     :     0.001170
      f-3     :     0.002295

 24 C s       :     3.284578  s :     3.284578
      pz      :     1.015036  p :     2.968714
      px      :     0.970719
      py      :     0.982959
      dz2     :     0.003097  d :     0.074806
      dxz     :     0.018227
      dyz     :     0.013403
      dx2y2   :     0.009368
      dxy     :     0.030712
      f0      :     0.001465  f :     0.007217
      f+1     :     0.000634
      f-1     :     0.000678
      f+2     :     0.000782
      f-2     :     0.000448
      f+3     :     0.001307
      f-3     :     0.001902

 25 C s       :     3.097758  s :     3.097758
      pz      :     0.902956  p :     2.441919
      px      :     0.755756
      py      :     0.783207
      dz2     :     0.003782  d :     0.154792
      dxz     :     0.037660
      dyz     :     0.029223
      dx2y2   :     0.044189
      dxy     :     0.039939
      f0      :     0.002259  f :     0.014545
      f+1     :     0.001071
      f-1     :     0.000964
      f+2     :     0.000735
      f-2     :     0.002281
      f+3     :     0.003787
      f-3     :     0.003449

 26 H s       :     0.850217  s :     0.850217
      pz      :     0.004627  p :     0.022161
      px      :     0.011030
      py      :     0.006504

 27 H s       :     0.850204  s :     0.850204
      pz      :     0.004675  p :     0.022160
      px      :     0.009323
      py      :     0.008162

 28 H s       :     0.851436  s :     0.851436
      pz      :     0.005141  p :     0.022737
      px      :     0.007910
      py      :     0.009686

 29 H s       :     0.851424  s :     0.851424
      pz      :     0.005090  p :     0.022737
      px      :     0.009748
      py      :     0.007900

 30 H s       :     0.850220  s :     0.850220
      pz      :     0.004627  p :     0.022161
      px      :     0.011030
      py      :     0.006504

 31 H s       :     0.850243  s :     0.850243
      pz      :     0.004675  p :     0.022160
      px      :     0.009323
      py      :     0.008162

 32 H s       :     0.851424  s :     0.851424
      pz      :     0.005141  p :     0.022737
      px      :     0.007910
      py      :     0.009686

 33 H s       :     0.850226  s :     0.850226
      pz      :     0.004702  p :     0.022162
      px      :     0.006506
      py      :     0.010954

 34 H s       :     0.851418  s :     0.851418
      pz      :     0.005090  p :     0.022737
      px      :     0.009748
      py      :     0.007900

 35 H s       :     0.850241  s :     0.850241
      pz      :     0.004653  p :     0.022160
      px      :     0.008212
      py      :     0.009295

 36 Mgs       :     4.512751  s :     4.512751
      pz      :     2.084990  p :     6.449296
      px      :     2.182604
      py      :     2.181703
      dz2     :     0.032495  d :     0.282363
      dxz     :     0.028279
      dyz     :     0.029669
      dx2y2   :     0.175112
      dxy     :     0.016808



                     *******************************
                     * LOEWDIN POPULATION ANALYSIS *
                     *******************************

----------------------
LOEWDIN ATOMIC CHARGES
----------------------
   0 N :    0.171853
   1 H :    0.141084
   2 C :   -0.108431
   3 C :   -0.108423
   4 N :    0.171892
   5 C :   -0.108423
   6 H :    0.141094
   7 C :   -0.196930
   8 N :    0.171895
   9 C :   -0.108422
  10 C :   -0.081249
  11 C :   -0.196979
  12 N :    0.171852
  13 C :   -0.108429
  14 C :   -0.196973
  15 C :   -0.197030
  16 C :   -0.196981
  17 C :   -0.196931
  18 C :   -0.108432
  19 C :   -0.081249
  20 C :   -0.081247
  21 C :   -0.108432
  22 C :   -0.197032
  23 C :   -0.108422
  24 C :   -0.081250
  25 C :   -0.196976
  26 H :    0.141098
  27 H :    0.141091
  28 H :    0.159623
  29 H :    0.159622
  30 H :    0.141099
  31 H :    0.141090
  32 H :    0.159623
  33 H :    0.141094
  34 H :    0.159622
  35 H :    0.141084
  36 Mg:    0.313526

-------------------------------
LOEWDIN REDUCED ORBITAL CHARGES
-------------------------------
  0 N s       :     2.973843  s :     2.973843
      pz      :     1.196669  p :     3.635652
      px      :     1.330965
      py      :     1.108017
      dz2     :     0.016789  d :     0.200251
      dxz     :     0.011746
      dyz     :     0.042984
      dx2y2   :     0.059880
      dxy     :     0.068853
      f0      :     0.001152  f :     0.018401
      f+1     :     0.000887
      f-1     :     0.001705
      f+2     :     0.000376
      f-2     :     0.003519
      f+3     :     0.004091
      f-3     :     0.006671

  1 H s       :     0.798299  s :     0.798299
      pz      :     0.013864  p :     0.060617
      px      :     0.021905
      py      :     0.024847

  2 C s       :     2.761584  s :     2.761584
      pz      :     0.900099  p :     2.929000
      px      :     0.982570
      py      :     1.046331
      dz2     :     0.027851  d :     0.370903
      dxz     :     0.031029
      dyz     :     0.058733
      dx2y2   :     0.102356
      dxy     :     0.150933
      f0      :     0.003080  f :     0.046945
      f+1     :     0.003712
      f-1     :     0.003946
      f+2     :     0.007339
      f-2     :     0.002500
      f+3     :     0.017739
      f-3     :     0.008629

  3 C s       :     2.761594  s :     2.761594
      pz      :     0.899497  p :     2.929004
      px      :     1.047713
      py      :     0.981794
      dz2     :     0.026567  d :     0.370884
      dxz     :     0.060306
      dyz     :     0.030802
      dx2y2   :     0.102249
      dxy     :     0.150961
      f0      :     0.003152  f :     0.046941
      f+1     :     0.003882
      f-1     :     0.003655
      f+2     :     0.007490
      f-2     :     0.002375
      f+3     :     0.008585
      f-3     :     0.017803

  4 N s       :     2.973786  s :     2.973786
      pz      :     1.198613  p :     3.635629
      px      :     1.107265
      py      :     1.329751
      dz2     :     0.016271  d :     0.200288
      dxz     :     0.043486
      dyz     :     0.011469
      dx2y2   :     0.059915
      dxy     :     0.069148
      f0      :     0.001130  f :     0.018405
      f+1     :     0.001751
      f-1     :     0.000841
      f+2     :     0.000351
      f-2     :     0.003570
      f+3     :     0.006685
      f-3     :     0.004077

  5 C s       :     2.761601  s :     2.761601
      pz      :     0.899621  p :     2.929025
      px      :     1.044430
      py      :     0.984975
      dz2     :     0.027367  d :     0.370859
      dxz     :     0.051510
      dyz     :     0.038706
      dx2y2   :     0.101854
      dxy     :     0.151422
      f0      :     0.003118  f :     0.046938
      f+1     :     0.003882
      f-1     :     0.003721
      f+2     :     0.009010
      f-2     :     0.000818
      f+3     :     0.010165
      f-3     :     0.016224

  6 H s       :     0.798292  s :     0.798292
      pz      :     0.013978  p :     0.060614
      px      :     0.017856
      py      :     0.028779

  7 C s       :     2.695423  s :     2.695423
      pz      :     0.837913  p :     2.783849
      px      :     0.966447
      py      :     0.979489
      dz2     :     0.044116  d :     0.637493
      dxz     :     0.093226
      dyz     :     0.106322
      dx2y2   :     0.201002
      dxy     :     0.192827
      f0      :     0.005098  f :     0.080166
      f+1     :     0.005003
      f-1     :     0.005924
      f+2     :     0.005059
      f-2     :     0.014431
      f+3     :     0.022018
      f-3     :     0.022632

  8 N s       :     2.973783  s :     2.973783
      pz      :     1.198606  p :     3.635627
      px      :     1.107266
      py      :     1.329755
      dz2     :     0.016271  d :     0.200290
      dxz     :     0.043486
      dyz     :     0.011468
      dx2y2   :     0.059916
      dxy     :     0.069148
      f0      :     0.001130  f :     0.018405
      f+1     :     0.001751
      f-1     :     0.000841
      f+2     :     0.000351
      f-2     :     0.003570
      f+3     :     0.006685
      f-3     :     0.004077

  9 C s       :     2.761601  s :     2.761601
      pz      :     0.899618  p :     2.929025
      px      :     1.044428
      py      :     0.984978
      dz2     :     0.027365  d :     0.370859
      dxz     :     0.051507
      dyz     :     0.038706
      dx2y2   :     0.101856
      dxy     :     0.151424
      f0      :     0.003118  f :     0.046937
      f+1     :     0.003882
      f-1     :     0.003721
      f+2     :     0.009010
      f-2     :     0.000818
      f+3     :     0.010165
      f-3     :     0.016224

 10 C s       :     2.748557  s :     2.748557
      pz      :     0.898890  p :     2.924164
      px      :     1.009457
      py      :     1.015817
      dz2     :     0.025501  d :     0.368744
      dxz     :     0.042392
      dyz     :     0.053714
      dx2y2   :     0.095526
      dxy     :     0.151611
      f0      :     0.003216  f :     0.039783
      f+1     :     0.003637
      f-1     :     0.003955
      f+2     :     0.005928
      f-2     :     0.002258
      f+3     :     0.011395
      f-3     :     0.009394

 11 C s       :     2.695434  s :     2.695434
      pz      :     0.837533  p :     2.783841
      px      :     0.979365
      py      :     0.966942
      dz2     :     0.044451  d :     0.637533
      dxz     :     0.087700
      dyz     :     0.111670
      dx2y2   :     0.198842
      dxy     :     0.194870
      f0      :     0.005095  f :     0.080172
      f+1     :     0.004662
      f-1     :     0.006274
      f+2     :     0.007460
      f-2     :     0.012074
      f+3     :     0.014611
      f-3     :     0.029996

 12 N s       :     2.973843  s :     2.973843
      pz      :     1.196670  p :     3.635653
      px      :     1.330965
      py      :     1.108018
      dz2     :     0.016789  d :     0.200251
      dxz     :     0.011746
      dyz     :     0.042984
      dx2y2   :     0.059880
      dxy     :     0.068853
      f0      :     0.001152  f :     0.018401
      f+1     :     0.000887
      f-1     :     0.001705
      f+2     :     0.000376
      f-2     :     0.003519
      f+3     :     0.004091
      f-3     :     0.006671

 13 C s       :     2.761592  s :     2.761592
      pz      :     0.900035  p :     2.929023
      px      :     0.985845
      py      :     1.043144
      dz2     :     0.027059  d :     0.370874
      dxz     :     0.039818
      dyz     :     0.050786
      dx2y2   :     0.102084
      dxy     :     0.151127
      f0      :     0.003115  f :     0.046940
      f+1     :     0.003602
      f-1     :     0.003988
      f+2     :     0.008956
      f-2     :     0.000916
      f+3     :     0.016156
      f-3     :     0.010207

 14 C s       :     2.695412  s :     2.695412
      pz      :     0.837570  p :     2.783867
      px      :     0.980953
      py      :     0.965344
      dz2     :     0.044232  d :     0.637519
      dxz     :     0.107735
      dyz     :     0.091606
      dx2y2   :     0.201000
      dxy     :     0.192947
      f0      :     0.005121  f :     0.080174
      f+1     :     0.006140
      f-1     :     0.004773
      f+2     :     0.005136
      f-2     :     0.014301
      f+3     :     0.022743
      f-3     :     0.021960

 15 C s       :     2.695417  s :     2.695417
      pz      :     0.837900  p :     2.783853
      px      :     0.968056
      py      :     0.977897
      dz2     :     0.043909  d :     0.637578
      dxz     :     0.113341
      dyz     :     0.086183
      dx2y2   :     0.199055
      dxy     :     0.195089
      f0      :     0.005128  f :     0.080182
      f+1     :     0.006314
      f-1     :     0.004590
      f+2     :     0.007152
      f-2     :     0.012247
      f+3     :     0.030150
      f-3     :     0.014602

 16 C s       :     2.695433  s :     2.695433
      pz      :     0.837533  p :     2.783841
      px      :     0.979367
      py      :     0.966941
      dz2     :     0.044450  d :     0.637534
      dxz     :     0.087702
      dyz     :     0.111669
      dx2y2   :     0.198842
      dxy     :     0.194871
      f0      :     0.005095  f :     0.080172
      f+1     :     0.004662
      f-1     :     0.006274
      f+2     :     0.007460
      f-2     :     0.012074
      f+3     :     0.014611
      f-3     :     0.029996

 17 C s       :     2.695423  s :     2.695423
      pz      :     0.837914  p :     2.783850
      px      :     0.966447
      py      :     0.979489
      dz2     :     0.044116  d :     0.637493
      dxz     :     0.093226
      dyz     :     0.106322
      dx2y2   :     0.201002
      dxy     :     0.192827
      f0      :     0.005098  f :     0.080166
      f+1     :     0.005003
      f-1     :     0.005924
      f+2     :     0.005059
      f-2     :     0.014431
      f+3     :     0.022018
      f-3     :     0.022632

 18 C s       :     2.761590  s :     2.761590
      pz      :     0.900037  p :     2.929025
      px      :     0.985845
      py      :     1.043143
      dz2     :     0.027060  d :     0.370876
      dxz     :     0.039819
      dyz     :     0.050787
      dx2y2   :     0.102084
      dxy     :     0.151128
      f0      :     0.003115  f :     0.046941
      f+1     :     0.003602
      f-1     :     0.003989
      f+2     :     0.008956
      f-2     :     0.000916
      f+3     :     0.016156
      f-3     :     0.010207

 19 C s       :     2.748556  s :     2.748556
[...]
  0-1A  -> 13-1A    5.280633   42591.2   234.8   0.000000000   0.00000   0.00000   0.00000   0.00000
  0-1A  -> 14-1A    5.337138   43046.9   232.3   0.000000000   0.00000  -0.00000   0.00000   0.00001
  0-1A  -> 15-1A    5.358975   43223.1   231.4   0.002104149   0.00062  -0.02488  -0.00148   0.00058
  0-1A  -> 16-1A    5.359209   43224.9   231.3   0.002102450   0.00062  -0.00150   0.02475  -0.00249
  0-1A  -> 17-1A    5.458870   44028.8   227.1   0.000060679   0.00002  -0.00010  -0.00042  -0.00425
  0-1A  -> 18-1A    5.535920   44650.2   224.0   0.000000000   0.00000  -0.00000  -0.00000  -0.00000
  0-1A  -> 19-1A    5.555696   44809.7   223.2   0.000000005   0.00000  -0.00003  -0.00002   0.00001
  0-1A  -> 20-1A    5.698470   45961.3   217.6   0.000000000   0.00000  -0.00000  -0.00000  -0.00000
  0-1A  -> 21-1A    5.764083   46490.5   215.1   0.000000014   0.00000   0.00006  -0.00001   0.00003
  0-1A  -> 22-1A    5.955254   48032.4   208.2   0.000000010   0.00000   0.00000   0.00000   0.00006
  0-1A  -> 23-1A    5.982367   48251.0   207.2   0.000000000   0.00000  -0.00000  -0.00000  -0.00000
  0-1A  -> 24-1A    6.112286   49298.9   202.8   0.017898557   0.00603  -0.00127  -0.00758  -0.07728
  0-1A  -> 25-1A    6.130417   49445.2   202.2   0.000000160   0.00000  -0.00003  -0.00006  -0.00022
  0-1A  -> 26-1A    6.152632   49624.3   201.5   0.000000000   0.00000  -0.00000   0.00000  -0.00000
  0-1A  -> 27-1A    6.291386   50743.5   197.1   0.000000000   0.00000   0.00000  -0.00000   0.00000
  0-1A  -> 28-1A    6.563181   52935.6   188.9   0.000000000   0.00000   0.00000   0.00000  -0.00000
  0-1A  -> 29-1A    6.889758   55569.7   180.0   0.000000000   0.00000  -0.00000   0.00000   0.00001
  0-1A  -> 30-1A    6.921091   55822.4   179.1   0.000000000   0.00000  -0.00000   0.00000  -0.00000

------------------------------------------------------------------------------------------
                     CD SPECTRUM VIA TRANSITION ELECTRIC DIPOLE MOMENTS    
------------------------------------------------------------------------------------------
     Transition      Energy     Energy  Wavelength    R        MX        MY        MZ   
                      (eV)      (cm-1)    (nm)   (1e40*cgs)   (au)      (au)      (au)  
------------------------------------------------------------------------------------------
  0-1A  ->  1-1A    2.428222   19584.9   510.6   -0.00028   0.00000   0.00000   0.00003
  0-1A  ->  2-1A    2.428263   19585.3   510.6    0.00074  -0.00001  -0.00000   0.00000
  0-1A  ->  3-1A    4.223063   34061.3   293.6    0.00352  -0.00000   0.00003  -0.00001
  0-1A  ->  4-1A    4.223142   34061.9   293.6   -0.00717   0.00002   0.00001   0.00001
  0-1A  ->  5-1A    4.435173   35772.1   279.5   -0.00087  -0.01455  -0.08675  -0.87793
  0-1A  ->  6-1A    4.506599   36348.2   275.1    0.00001  -0.00011   0.00012  -0.00286
  0-1A  ->  7-1A    4.631505   37355.6   267.7   -0.01397   0.00002  -0.00004   0.00001
  0-1A  ->  8-1A    4.631981   37359.5   267.7    0.00697  -0.00000  -0.00001   0.00000
  0-1A  ->  9-1A    4.870271   39281.4   254.6   -0.00000  -0.00010  -0.00006  -0.00014
  0-1A  -> 10-1A    5.141637   41470.1   241.1    0.00000   0.00057   0.00039  -0.00034
  0-1A  -> 11-1A    5.176567   41751.8   239.5   -0.01152  -0.03796   0.34230  -0.03306
  0-1A  -> 12-1A    5.177051   41755.7   239.5    0.01011   0.34397   0.03711  -0.00947
  0-1A  -> 13-1A    5.280633   42591.2   234.8    0.00000  -0.00008   0.00024  -0.00028
  0-1A  -> 14-1A    5.337138   43046.9   232.3    0.00000  -0.00021   0.00008  -0.00008
  0-1A  -> 15-1A    5.358975   43223.1   231.4    0.00054   0.00000  -0.00004   0.00002
  0-1A  -> 16-1A    5.359209   43224.9   231.3   -0.00258   0.00008   0.00001  -0.00001
  0-1A  -> 17-1A    5.458870   44028.8   227.1    0.00021   0.00000  -0.00000  -0.00000
  0-1A  -> 18-1A    5.535920   44650.2   224.0   -0.00003  -0.00777  -0.04617  -0.46574
  0-1A  -> 19-1A    5.555696   44809.7   223.2    0.00000  -0.00001  -0.00001  -0.00013
  0-1A  -> 20-1A    5.698470   45961.3   217.6    0.00000  -0.00004  -0.00004   0.00018
  0-1A  -> 21-1A    5.764083   46490.5   215.1   -0.00000  -0.00000  -0.00000  -0.00002
  0-1A  -> 22-1A    5.955254   48032.4   208.2   -0.00001  -0.00000   0.00001   0.00008
  0-1A  -> 23-1A    5.982367   48251.0   207.2    0.00001   0.00033  -0.00001  -0.00060
  0-1A  -> 24-1A    6.112286   49298.9   202.8    0.00007  -0.00000  -0.00000   0.00000
  0-1A  -> 25-1A    6.130417   49445.2   202.2    0.00001   0.00000   0.00001   0.00006
  0-1A  -> 26-1A    6.152632   49624.3   201.5   -0.00089  -0.01112  -0.06617  -0.67520
  0-1A  -> 27-1A    6.291386   50743.5   197.1    0.00000   0.00010  -0.00014  -0.00008
  0-1A  -> 28-1A    6.563181   52935.6   188.9    0.00000   0.00008   0.00011  -0.00026
  0-1A  -> 29-1A    6.889758   55569.7   180.0    0.00000  -0.00028   0.00009  -0.00005
  0-1A  -> 30-1A    6.921091   55822.4   179.1    0.00000  -0.00000   0.00009   0.00005

------------------------------------------------------------------------------------------
                     CD SPECTRUM VIA TRANSITION VELOCITY DIPOLE MOMENTS    
------------------------------------------------------------------------------------------
     Transition      Energy     Energy  Wavelength    R        MX        MY        MZ   
                      (eV)      (cm-1)    (nm)   (1e40*cgs)   (au)      (au)      (au)  
------------------------------------------------------------------------------------------
  0-1A  ->  1-1A    2.428222   19584.9   510.6    0.00019   0.00000   0.00000   0.00003
  0-1A  ->  2-1A    2.428263   19585.3   510.6   -0.00051  -0.00001  -0.00000   0.00000
  0-1A  ->  3-1A    4.223063   34061.3   293.6   -0.00025  -0.00000   0.00003  -0.00001
  0-1A  ->  4-1A    4.223142   34061.9   293.6    0.00051   0.00002   0.00001   0.00001
  0-1A  ->  5-1A    4.435173   35772.1   279.5    0.00302  -0.01455  -0.08675  -0.87793
  0-1A  ->  6-1A    4.506599   36348.2   275.1   -0.00004  -0.00011   0.00012  -0.00286
  0-1A  ->  7-1A    4.631505   37355.6   267.7    0.00024   0.00002  -0.00004   0.00001
  0-1A  ->  8-1A    4.631981   37359.5   267.7   -0.00012  -0.00000  -0.00001   0.00000
  0-1A  ->  9-1A    4.870271   39281.4   254.6    0.00000  -0.00010  -0.00006  -0.00014
  0-1A  -> 10-1A    5.141637   41470.1   241.1   -0.00001   0.00057   0.00039  -0.00034
  0-1A  -> 11-1A    5.176567   41751.8   239.5   -0.00149  -0.03796   0.34230  -0.03306
  0-1A  -> 12-1A    5.177051   41755.7   239.5    0.00210   0.34397   0.03711  -0.00947
  0-1A  -> 13-1A    5.280633   42591.2   234.8   -0.00000  -0.00008   0.00024  -0.00028
  0-1A  -> 14-1A    5.337138   43046.9   232.3   -0.00000  -0.00021   0.00008  -0.00008
  0-1A  -> 15-1A    5.358975   43223.1   231.4   -0.00004   0.00000  -0.00004   0.00002
  0-1A  -> 16-1A    5.359209   43224.9   231.3    0.00017   0.00008   0.00001  -0.00001
  0-1A  -> 17-1A    5.458870   44028.8   227.1    0.00004   0.00000  -0.00000  -0.00000
  0-1A  -> 18-1A    5.535920   44650.2   224.0    0.00046  -0.00777  -0.04617  -0.46574
  0-1A  -> 19-1A    5.555696   44809.7   223.2   -0.00000  -0.00001  -0.00001  -0.00013
  0-1A  -> 20-1A    5.698470   45961.3   217.6   -0.00000  -0.00004  -0.00004   0.00018
  0-1A  -> 21-1A    5.764083   46490.5   215.1   -0.00000  -0.00000  -0.00000  -0.00002
  0-1A  -> 22-1A    5.955254   48032.4   208.2    0.00001  -0.00000   0.00001   0.00008
  0-1A  -> 23-1A    5.982367   48251.0   207.2    0.00000   0.00033  -0.00001  -0.00060
  0-1A  -> 24-1A    6.112286   49298.9   202.8   -0.00018  -0.00000  -0.00000   0.00000
  0-1A  -> 25-1A    6.130417   49445.2   202.2   -0.00003   0.00000   0.00001   0.00006
  0-1A  -> 26-1A    6.152632   49624.3   201.5    0.00167  -0.01112  -0.06617  -0.67520
  0-1A  -> 27-1A    6.291386   50743.5   197.1   -0.00000   0.00010  -0.00014  -0.00008
  0-1A  -> 28-1A    6.563181   52935.6   188.9    0.00000   0.00008   0.00011  -0.00026
  0-1A  -> 29-1A    6.889758   55569.7   180.0    0.00000  -0.00028   0.00009  -0.00005
  0-1A  -> 30-1A    6.921091   55822.4   179.1   -0.00000  -0.00000   0.00009   0.00005

Total run time:     5898.877 sec

           *** ORCA-CIS/TD-DFT FINISHED WITHOUT ERROR ***
-----------------------
CIS/TD-DFT TOTAL ENERGY
-----------------------

    E(SCF)  =  -1188.606796408 Eh
    DE(CIS) =      0.089235512 Eh (Root  1)
    ----------------------------- ---------
    E(tot)  =  -1188.517560895 Eh


Maximum memory used throughout the entire CIS-calculation: 2678.6 MB
=> NOW LEAVING ORCA_CIS


-------------------------------------------------------------------------------
                          DFT DISPERSION CORRECTION                            
                                                                               
                              DFTD3 V3.1  Rev 1                                
                              USING zero damping                               
-------------------------------------------------------------------------------
The omegaB97X-D3 functional is recognized. Fit by Chai et al.
Active option DFTDOPT                   ...         3   

molecular C6(AA) [au] = 21403.553425 


            DFT-D V3
 parameters
 s6 scaling factor         :     1.0000 
 rs6 scaling factor        :     1.2810 
 s8 scaling factor         :     1.0000 
 rs8 scaling factor        :     1.0940 
 Damping factor alpha6     :    14.0000 
 Damping factor alpha8     :    16.0000 
 ad hoc parameters k1-k3   :    16.0000     1.3333    -4.0000 

 Edisp/kcal,au: -10.945814462713  -0.017443263803 
 E6   /kcal   :  -4.817587585 
 E8   /kcal   :  -6.128226878 
 % E8         :  55.986942760 

-------------------------   ----------------
Dispersion correction           -0.017443264
-------------------------   ----------------


-------------------------   --------------------
FINAL SINGLE POINT ENERGY     -1188.535004158893
-------------------------   --------------------



           ************************************************************
           *        Program running with 4 parallel MPI-processes     *
           *              working on a common directory               *
           ************************************************************

------------------------------------------------------------------------------
                              ORCA PROPERTY CALCULATIONS
------------------------------------------------------------------------------

GBWName                                 ... tddft.gbw
Number of atoms                         ...     37
Number of basis functions               ...    848
Max core memory                         ...   3000 MB

Electric properties:
Dipole moment                           ... YES
Quadrupole moment                       ...  NO
Static polarizability (Dipole/Dipole)   ...  NO
Static polarizability (Dipole/Quad.)    ...  NO
Static polarizability (Quad./Quad.)     ...  NO
Static polarizability (Velocity)        ...  NO
Static hyperpolarizability              ...  NO

Atomic electric properties:
Dipole moment                           ...  NO
Quadrupole moment                       ...  NO
Static polarizability                   ...  NO

Choice of electric origin               ... Center of mass
Position of electric origin             ...    -0.158818     5.090151     6.572142

General magnetic properties:
Magnetizability                         ...  NO

EPR properties:
g-Tensor (aka g-matrix)                 ...  NO
Zero-Field splitting spin-orbit         ...  NO
Zero-field splitting spin-spin          ...  NO
Hyperfine couplings                     ...  NO (   0 nuclei)
Quadrupole couplings                    ...  NO (   0 nuclei)
Contact density                         ...  NO (   0 nuclei)

NMR properties:
Chemical shifts                         ...  NO (   0 nuclei)
Spin-rotation constants                 ...  NO (   0 nuclei)
Spin-spin couplings                     ...  NO (   0 nuclei,    0 pairs)

Choice of magnetic origin               ... GIAO
Position of magnetic origin             ...     0.000000     0.000000     0.000000

Properties with geometric perturbations:
SCF Hessian                             ...  NO
IR spectrum                             ...  NO
VCD spectrum                            ...  NO
X-ray spectroscopy properties:
SCF XES/XAS/RIXS spectra                ...  NO

SCF SOC stabilization energy            ...  NO
Diagonal Born-Oppenheimer correction    ...  NO

-------------
DIPOLE MOMENT
-------------

Method             : SCF
Type of density    : Electron Density
Multiplicity       :   1
Irrep              :   0
Energy             : -1188.6067964075430154 Eh
Basis              : AO
                                X                 Y                 Z
Electronic contribution:      0.000008958      -0.000037594      -0.000456066
Nuclear contribution   :     -0.000008108       0.000042856       0.000532868
                        -----------------------------------------
Total Dipole Moment    :      0.000000850       0.000005261       0.000076802
                        -----------------------------------------
Magnitude (a.u.)       :      0.000076987
Magnitude (Debye)      :      0.000195685



--------------------
Rotational spectrum 
--------------------
 
Rotational constants in cm-1:             0.008916             0.008916             0.004458 
Rotational constants in MHz :           267.307767           267.296540           133.651083 

Dipole components along the rotational axes: 
x,y,z [a.u.] :    -0.000002    -0.000001     0.000077 
x,y,z [Debye]:    -0.000005    -0.000002     0.000196 

 

Dipole moment calculation done in   0.0 sec 

Maximum memory used throughout the entire PROP-calculation: 86.1 MB

--------------------------------
SUGGESTED CITATIONS FOR THIS RUN
--------------------------------

Below you find a list of papers that are relevant to this ORCA run
We neither can nor want to force you to cite these papers, but we appreciate if you do
You receive ORCA, which is the product of decades of hard work by many enthusiastic individuals, for free
The only thing we kindly ask in return is that you cite our papers,
We deeply appreciate it, if you show your appreciation for ORCA by not just citing the generic ORCA reference.

Please note that relegating all ORCA citations to the supporting information does *not* help us.
SI sections are not indexed - citations you put there will not count into any citation statistics
But we need these citations in order to attract the funding resources that allow us to do what we are doing

Therefore, if you are a happy ORCA user, please consider citing a few of the papers listed below in the main body of your paper

In addition to the list printed below, the program has created the file tddft.bibtex that contains the list in bibtex format
You can import this file easily into all common literature databanks and citation aid programs

It goes without saying that in many instances, there are alternative algorithms to achieve similar
results as the ones you have gotten from ORCA. It is, of course, also the case that in some instances
ORCA just re-implements algorithms worked out by others. We are fully aware of that and we are also
fully appreciative of our colleagues work. Hence this citation list should not be read as indicating
that the listed papers, which are focused on our own work, are the only ones worth citing. It simply
meant to make it easier for users to cite ORCA specific papers. It is not a substitute for doing your
own literature research and citing the relevant literature in a scientifically appropriate manner.

List of essential papers. We consider these as the minimum necessary citations

  1. Neese, F.
     Software update: the ORCA program system, version 6.0
     WIRES Comput. Molec. Sci. 2025 15(1), e70019
     doi.org/10.1002/wcms.70019

List of papers to cite with high priority. The work reported in these papers was absolutely
necessary for this run to complete.
Our perspective: the developers of density functionals and basis sets usually get cited in chemistry papers
Good! But without the algorithms to do something with them, the functionals or basis sets would not do anything.
Hence, in our opinion, the algorithm design and method developments papers are equally worthy of getting cited

  1. Neese, F.; Olbrich, G.
     Efficient use of the resolution of the identity approximation in time-dependent density functional calculations with hybrid density functionals
     Chem. Phys. Lett. 2002 362 , 170-178
     doi.org/10.1016/s0009-2614(02)01053-9
  2. Neese, F.
     An improvement of the resolution of the identity approximation for the formation of the Coulomb matrix
     J. Comp. Chem. 2003 24(14), 1740-1747
     doi.org/10.1002/jcc.10318
  3. Neese, F.; Wennmohs, F.; Hansen, A.; Becker, U.
     Efficient, approximate and parallel Hartree-Fock and hybrid DFT calculations. A 'chain-of-spheres' algorithm for the Hartree-Fock exchange
     Chem. Phys. 2009 356(1-3), 98-109
     doi.org/10.1016/j.chemphys.2008.10.036
  4. Grimme, S.; Antony, J.; Ehrlich, S.; Krieg, H.
     A consistent and accurate ab initio parametrization of density functional dispersion correction (DFT-D) for the 94 elements H-Pu
     J. Chem. Phys. 2010 132 , 154104
     doi.org/10.1063/1.3382344
  5. Helmich-Paris, B.; de Souza, B.; Neese, F.; Izsák, R.
     An improved chain of spheres for exchange algorithm
     J. Chem. Phys. 2021 155(10), 104109
     doi.org/10.1063/5.0058766
  6. Neese, F.
     The SHARK Integral Generation and Digestion System
     J. Comp. Chem. 2022 44(3), 381
     doi.org/10.1002/jcc.26942

List of suggested additional citations. These are papers that are important in the 'surrounding' of 
of this run, or papers that preceded the highly important papers. If you like your results we are grateful for a citation.

  1. Izsak, R.; Neese, F.
     An overlap fitted chain of spheres exchange method
     J. Chem. Phys. 2011 135 , 144105
     doi.org/10.1063/1.3646921
  2. Izsak, R.; Hansen, A.; Neese, F.
     The resolution of identity and chain of spheres approximations for the LPNO-CCSD singles Fock term
     Molec. Phys. 2012 110 , 2413-2417
     doi.org/10.1080/00268976.2012.687466
  3. Neese, F.
     The ORCA program system
     WIRES Comput. Molec. Sci. 2012 2(1), 73-78
     doi.org/10.1002/wcms.81
  4. Izsak, R.; Neese, F.; Klopper, W.
     Robust fitting techniques in the chain of spheres approximation to the Fock exchange: The role of the complementary space
     J. Chem. Phys. 2013 139 , 
     doi.org/10.1063/1.4819264
  5. Neese, F.
     Software update: the ORCA program system, version 4.0
     WIRES Comput. Molec. Sci. 2018 8(1), 1-6
     doi.org/10.1002/wcms.1327
  6. Neese, F.; Wennmohs, F.; Becker, U.; Riplinger, C.
     The ORCA quantum chemistry program package
     J. Chem. Phys. 2020 152(22), 224108
     doi.org/10.1063/5.0004608
  7. Neese, F.
     Software update: The ORCA program system—Version 5.0
     WIRES Comput. Molec. Sci. 2022 12(1), e1606
     doi.org/10.1002/wcms.1606

List of optional additional citations

  1. Neese, F.
     Approximate second-order SCF convergence for spin unrestricted wavefunctions
     Chem. Phys. Lett. 2000 325(1-3), 93-98
     doi.org/10.1016/s0009-2614(00)00662-x

Timings for individual modules:

Sum of individual times          ...     7423.971 sec (= 123.733 min)
Startup calculation              ...       15.952 sec (=   0.266 min)   0.2 %
SCF iterations                   ...     1506.786 sec (=  25.113 min)  20.3 %
Property integrals               ...        0.976 sec (=   0.016 min)   0.0 %
Property calculations            ...        0.744 sec (=   0.012 min)   0.0 %
CIS module                       ...     5899.513 sec (=  98.325 min)  79.5 %
                             ****ORCA TERMINATED NORMALLY****
TOTAL RUN TIME: 0 days 2 hours 3 minutes 44 seconds 390 msec
