
                                 *****************
                                 * O   R   C   A *
                                 *****************

                                            #,                                       
                                            ###                                      
                                            ####                                     
                                            #####                                    
                                            ######                                   
                                           ########,                                 
                                     ,,################,,,,,                         
                               ,,#################################,,                 
                          ,,##########################################,,             
                       ,#########################################, ''#####,          
                    ,#############################################,,   '####,        
                  ,##################################################,,,,####,       
                ,###########''''           ''''###############################       
              ,#####''   ,,,,##########,,,,          '''####'''          '####       
            ,##' ,,,,###########################,,,                        '##       
           ' ,,###''''                  '''############,,,                           
         ,,##''                                '''############,,,,        ,,,,,,###''
      ,#''                                            '''#######################'''  
     '                                                          ''''####''''         
             ,#######,   #######,   ,#######,      ##                                
            ,#'     '#,  ##    ##  ,#'     '#,    #''#        ,####,    ,#,          
            ##       ##  ##   ,#'  ##            #'  '#       #'       ,# #          
            ##       ##  #######   ##           ,######,      #####,      #          
            '#,     ,#'  ##    ##  '#,     ,#' ,#      #,     #,   #      #          
             '#######'   ##     ##  '#######'  #'      '#     '####' #    #          



                #########################################################
                #                        -***-                          #
                #          Department of theory and spectroscopy        #
                #                                                       #
                #                      Frank Neese                      #
                #                                                       #
                #     Directorship, Architecture, Infrastructure        #
                #                    SHARK, DRIVERS                     #
                #        Core code/Algorithms in most modules           #
                #                                                       #
                #        Max Planck Institute fuer Kohlenforschung      #
                #                Kaiser Wilhelm Platz 1                 #
                #                 D-45470 Muelheim/Ruhr                 #
                #                      Germany                          #
                #                                                       #
                #                  All rights reserved                  #
                #                        -***-                          #
                #########################################################


                         Program Version 6.1.1  -  RELEASE   -
                                (GIT: $487d211c$)
                          ($2025-11-21 10:33:24 +0100$)


 With contributions from (in alphabetic order):
[Max-Planck-Institut fuer Kohlenforschung]                               
  Daniel Aravena         : Magnetic Suceptibility                        
  Michael Atanasov       : Ab Initio Ligand Field Theory (pilot matlab implementation)
  Alexander A. Auer      : GIAO ZORA, VPT2 properties, NMR spectrum      
  Ute Becker             : All parallelization in ORCA, NUMFREQ, NUMCALC 
  Giovanni Bistoni       : ED, misc. LED, open-shell LED, HFLD           
  Dmytro Bykov           : pre 5.0 version of the SCF Hessian            
  Marcos Casanova-Páez   : Triplet and SCS-CIS(D). UHF-(DLPNO)-IP/EA/STEOM-CCSD. UHF-CVS-IP/STEOM-CCSD   
  Vijay G. Chilkuri      : MRCI spin determinant printing, contributions to CSF-ICE 
  Pauline Colinet        : FMM embedding                                 
  Dipayan Datta          : RHF DLPNO-CCSD density                        
  Achintya Kumar Dutta   : EOM-CC, STEOM-CC                              
  Nicolas Foglia         : Exact transition moments, OPA infrastructure, MCD improvements    
  Dmitry Ganyushin       : Spin-Orbit,Spin-Spin,Magnetic field MRCI      
  Miquel Garcia-Rates    : C-PCM and meta-GGA Hessian, CCSD/C-PCM, Gaussian charge scheme 
  Tiago L. C. Gouveia    : GS-ROHF, GS-ROCIS                             
  Yang Guo               : DLPNO-NEVPT2, F12-NEVPT2, CIM, IAO-localization        
  Andreas Hansen         : Spin unrestricted coupled pair/coupled cluster methods 
  Ingolf Harden          : AUTO-CI MPn and infrastructure                
  Benjamin Helmich-Paris : MC-RPA, TRAH-(SCF,CASSCF), AVAS, COSX integrals, SCF dyn. polar., MC-PDFT, srDFT 
  Lee Huntington         : MR-EOM, pCC                                   
  Robert Izsak           : Overlap fitted RIJCOSX, COSX-SCS-MP3, EOM     
  Riya Kayal             : Wick's Theorem for AUTO-CI, AUTO-CI UHF-CCSDT 
  Emily Kempfer          : AUTO-CI RHF CISDT and CCSDT, approximate NEVPT4
  Christian Kollmar      : KDIIS, OOCD, Brueckner-CCSD(T), CCSD density, CASPT2, CASPT2-K, improved NEVPT2 
  Axel Koslowski         : Symmetry handling                             
  Simone Kossmann        : meta-GGA functionals, TD-DFT gradient, OOMP2, (MP2 Hessian; deprecated post 5.0) 
  Lucas Lang             : DCDCAS, Hyperfine gauge corrections, ICE-SOC+SSC
  Marvin Lechner         : AUTO-CI (C++ implementation), FIC-MRCC        
  Spencer Leger          : CASSCF response                               
  Dagmar Lenk            : GEPOL surface, SMD, ORCA-2-JSON               
  Dimitrios Liakos       : Extrapolation schemes; Compound Job, Property file
  Dimitrios Manganas     : Further ROCIS development; embedding schemes. LFT, Crystal Embedding 
  Dimitrios Pantazis     : SARC Basis sets                               
  Anastasios Papadopoulos: AUTO-CI, single reference methods and gradients 
  Taras Petrenko         : pre 6.0 DFT Hessian and TD-DFT gradient,  ECA, NRVS 
  Petra Pikulova         : Analytic Raman intensities                    
  Peter Pinski           : DLPNO-MP2, DLPNO-MP2 Gradient                 
  Shashank Vittal Rao    : ES-AILFT, MagRelax                            
  Christoph Reimann      : Effective Core Potentials                     
  Marius Retegan         : Local ZFS, SOC                                
  Christoph Riplinger    : Optimizer, TS searches, QM/MM, DLPNO-CCSD(T), (RO)-DLPNO pert. Triples 
  Michael Roemelt        : Original ROCIS implementation, recursive CI coupling coefficients
  Masaaki Saitow         : Open-shell DLPNO-CCSD energy and density      
  Barbara Sandhoefer     : DKH picture change effects                    
  Yorick L. A. Schmerwitz: GMF and freeze-and-release deltaSCF, NEB S-IDPP initial path                    
  Kantharuban Sivalingam : CASSCF convergence/infrastructure, NEVPT2, NEVPT3, NEVPT4(SD), FIC-MRCI and CEPA variants
  Bernardo de Souza      : ESD, SOC TD-DFT                               
  Georgi L. Stoychev     : AutoAux, RI-MP2 NMR, DLPNO-MP2 response, X2C  
  Van Anh Tran           : RI-MP2 g-tensors                              
  Willem Van den Heuvel  : Paramagnetic NMR                              
  Zikuan Wang            : NOTCH, Electric field optimization            
  Frank Wennmohs         : Technical directorship and infrastructure     
  Hang Xu                : AUTO-CI-Response properties                   
                                                                         
[FACCTs GmbH]                                                            
  Markus Bursch, Nicolas Foglia, Miquel Garcia-Rates, Ingolf Harden, Hagen Neugebauer, Anastasios Papadopoulos, 
  Christoph Riplinger, Bernardo de Souza, Georgi L. Stoychev                                                    
                                                                 
  APM, various basis sets, CI-OPT, improved COSX, DLPNO-Multilevel,           
  DOCKER, DRACO, updates on ESD, Fragmentator, GOAT, IRC, LR-CPCM, L-BFGS, MBIS, meta-GGA TD-DFT gradient, ML-optimized integration grids, 
  MM, NACMEs, nearIR, NEB, NEB-TS, NL-DFT gradient (VV10), 2- and 3-layer-ONIOM, interface openCOSMO-RS, QMMM,   
  Crystal-QMMM, RESP, rigid body optimization, SF, symmetry and pop. for TD-DFT, various functionals, SOLVATOR                                   
                                                                         
[Other institutions]                                                     
  V. Asgeirsson          : NEB                                           
  Christoph Bannwarth    : sTDA-DFT, sTD-DFT, PBEh-3c, B97-3c, D3        
  Giovanni Bistoni       : ETS/NOCV, ADLD/ADEX, COVALED                  
  Martin Brehm           : Molecular dynamics                            
  Ronald Cardenas        : ETS/NOCV                                      
  Martina Colucci        : COVALED                                       
  Sebastian Ehlert       : rSCAN, r2SCAN, r2SCAN-3c, D4, dhf basis sets  
  Marvin Friede          : D4 for Fr, Ra, Ac-Lr                          
  Lars Goerigk           : TD-DFT with DH, B97 family of functionals     
  Stefan Grimme          : VdW corrections, initial TS optimization, DFT functionals, gCP, sTDA/sTD-DF 
  Waldemar Hujo          : DFT-NL                                        
  H. Jonsson             : NEB                                           
  Holger Kruse           : gCP                                           
  Marcel Mueller         : wB97X-3c, vDZP basis set                      
  Hagen Neugebauer       : wr2SCAN, Native XTB                           
  Gianluca Regni         : ADLD/ADEX                                     
  Tobias Risthaus        : pre 6.0 range-separated hybrid DFT and stability analysis
  Lukas Wittmann         : regularized MP2, r2SCAN double-hybrids, wr2SCAN        
                                                                         
We gratefully acknowledge several colleagues who have allowed us to      
interface, adapt or use parts of their codes:                            
  Ed Valeev, F. Pavosevic, A. Kumar             : LibInt (2-el integral package), F12 methods 
  Garnet Chan, S. Sharma, J. Yang, R. Olivares  : DMRG                   
  Ulf Ekstrom                                   : XCFun DFT Library      
  Mihaly Kallay                                 : mrcc  (arbitrary order and MRCC methods)
  Frank Weinhold                                : gennbo (NPA and NBO analysis)           
  Simon Mueller                                 : openCOSMO-RS                            
  Christopher J. Cramer and Donald G. Truhlar   : smd solvation model                     
  S Lehtola, MJT Oliveira, MAL Marques          : LibXC Library                           
  Liviu Ungur et al                             : ANISO software                          


 Your calculation uses the libint2 library for the computation of 2-el integrals
 For citations please refer to: http://libint.valeyev.net

 Your ORCA version has been built with support for libXC version: 7.0.0
 For citations please refer to: https://libxc.gitlab.io

 This ORCA versions uses:
   CBLAS   interface :  Fast vector & matrix operations
   LAPACKE interface :  Fast linear algebra routines
   SCALAPACK package :  Parallel linear algebra routines
   Shared memory     :  Shared parallel matrices
   BLAS/LAPACK       :  OpenBLAS 0.3.29  USE64BITINT DYNAMIC_ARCH NO_AFFINITY Haswell SINGLE_THREADED
        Core in use  :  Haswell
   Copyright (c) 2011-2014, The OpenBLAS Project


  ***********************************
  * Starting time: Sun Jul  5 20:36:01 2026
  * Host name:     steezy
  * Process ID:    1294987
  * Working dir.:  /home/jannes/chlorophyll-ladder/007-mg-core-ladder/mgporphin/03_tddft_ch2cl2/m062x
  ***********************************

NOTE: MaxCore=3000 MB was set to SCF,MP2,MDCI,CIPSI,MRCI,RASCI and CIS
      => If you want to overwrite this, your respective input block should be placed after the MaxCore statement


***************************************
The coordinates will be read from file: /home/jannes/chlorophyll-ladder/007-mg-core-ladder/mgporphin/01_opt/mgporphin_opt_b3lypd4_tzvp.xyz
***************************************


XCFun DFT library Copyright 2009-2010 Ulf Ekstrom and contributors.
See http://admol.org/xcfun for more information.
This is free software; see the source code for copying conditions.
There is ABSOLUTELY NO WARRANTY; not even for MERCHANTABILITY or FITNESS FOR A PARTICULAR PURPOSE.
For details see the documentation.
Scientific users of this library should cite U. Ekstrom, L. Visscher, R. Bast, A. J. Thorvaldsen and K. Ruud;
J.Chem.Theor.Comp. 2010, DOI: 10.1021/ct100117s
XCFun Version 0.99 

================================================================================

----- Orbital basis set information -----
Your calculation utilizes the basis: def2-TZVP
   F. Weigend and R. Ahlrichs, Phys. Chem. Chem. Phys. 7, 3297 (2005).

----- AuxJ basis set information -----
Your calculation utilizes the auxiliary basis: def2/J
   H-Rn: F. Weigend, Phys. Chem. Chem. Phys. 8, 1057 (2006).
   Fr-Lr: K. Eichkorn, F. Weigend, O. Treutler, R. Ahlrichs; Theor. Chem. Acc. 97, 119 (1997).

================================================================================
                                        WARNINGS
                       Please study these warnings very carefully!
================================================================================

WARNING: Functional chosen is sensitive to the integration grid.
         DEFGRID3 seems to be a minimum grid for robust results!

WARNING: CIS/ROCIS methods need fully converged wavefunctions
  ===> : Setting SCFConvForced true
         You can overwrite this default with %scf ConvForced false 


================================================================================
                                       INPUT FILE
================================================================================
NAME = tddft.inp
|  1> %pal nprocs 4 end
|  2> %maxcore 3000
|  3> ! M062X def2-TZVP def2/J RIJCOSX DefGrid3 TightSCF CPCM(CH2Cl2)
|  4> %tddft
|  5>   nroots 30
|  6>   tda false
|  7>   triplets false
|  8> end
|  9> * xyzfile 0 1 /home/jannes/chlorophyll-ladder/007-mg-core-ladder/mgporphin/01_opt/mgporphin_opt_b3lypd4_tzvp.xyz
| 10> 
| 11>                          ****END OF INPUT****
================================================================================

                       ****************************
                       * Single Point Calculation *
                       ****************************

---------------------------------
CARTESIAN COORDINATES (ANGSTROEM)
---------------------------------
  N     -2.126632    2.522518    3.528336
  H      1.688951   -2.244306    3.936854
  C     -4.367453    3.014298    3.517091
  C     -0.399300   -1.569210    3.904114
  N      0.091157    0.660020    3.674254
  C      0.955251   -1.456037    3.870452
  H     -0.988023   -2.467894    4.003531
  C      2.861647    1.841375    3.512926
  N     -0.259245    4.727154    3.281236
  C     -1.123334    6.843238    3.085343
  C      2.534867    0.494152    3.650974
  C      2.674027    4.023168    3.301567
  N      1.958546    2.864658    3.427339
  C      4.083452    3.721259    3.307939
  C     -0.935449   -0.237004    3.780431
  C      1.256233   -0.053833    3.726030
  C     -2.842123    1.364011    3.654087
  C     -3.029725    3.545804    3.442713
  C     -4.251542    1.665928    3.647704
  C     -2.289528    0.090486    3.770544
  C     -2.702948    4.893026    3.304662
  C      4.199367    2.372883    3.438500
  C     -1.424318    5.441018    3.229591
  C      0.231221    6.956420    3.051755
  C      2.121440    5.296697    3.185130
  C      0.767360    5.624187    3.175204
  H     -5.271397    3.601806    3.474297
  H     -5.042401    0.936910    3.732428
  H     -2.986818   -0.732582    3.863624
  H      3.363051   -0.201104    3.706153
  H      5.103317    1.785376    3.481270
  H      4.874295    4.450291    3.223211
  H      2.818737    6.119763    3.092108
  H      0.819955    7.855111    2.952489
  H     -3.531147    5.588265    3.249501
  H     -1.857042    7.631509    3.019026
  Mg    -0.084042    2.693585    3.477789

----------------------------
CARTESIAN COORDINATES (A.U.)
----------------------------
  NO LB      ZA    FRAG     MASS         X           Y           Z
   0 N     7.0000    0    14.007   -4.018753    4.766868    6.667589
   1 H     1.0000    0     1.008    3.191655   -4.241124    7.439576
   2 C     6.0000    0    12.011   -8.253290    5.696197    6.646338
   3 C     6.0000    0    12.011   -0.754567   -2.965378    7.377707
   4 N     7.0000    0    14.007    0.172263    1.247257    6.943333
   5 C     6.0000    0    12.011    1.805164   -2.751510    7.314095
   6 H     1.0000    0     1.008   -1.867093   -4.663643    7.565577
   7 C     6.0000    0    12.011    5.407728    3.479694    6.638469
   8 N     7.0000    0    14.007   -0.489901    8.933026    6.200637
   9 C     6.0000    0    12.011   -2.122794   12.931846    5.830453
  10 C     6.0000    0    12.011    4.790204    0.933812    6.899342
  11 C     6.0000    0    12.011    5.053178    7.602686    6.239058
  12 N     7.0000    0    14.007    3.701116    5.413420    6.476731
  13 C     6.0000    0    12.011    7.716607    7.032160    6.251099
  14 C     6.0000    0    12.011   -1.767742   -0.447872    7.143980
  15 C     6.0000    0    12.011    2.373936   -0.101729    7.041177
  16 C     6.0000    0    12.011   -5.370834    2.577607    6.905224
  17 C     6.0000    0    12.011   -5.725351    6.700598    6.505785
  18 C     6.0000    0    12.011   -8.034249    3.148147    6.893162
  19 C     6.0000    0    12.011   -4.326581    0.170994    7.125295
  20 C     6.0000    0    12.011   -5.107832    9.246479    6.244906
  21 C     6.0000    0    12.011    7.935654    4.484099    6.497823
  22 C     6.0000    0    12.011   -2.691571   10.282033    6.103042
  23 C     6.0000    0    12.011    0.436944   13.145729    5.766981
  24 C     6.0000    0    12.011    4.008940   10.009307    6.019023
  25 C     6.0000    0    12.011    1.450100   10.628173    6.000267
  26 H     1.0000    0     1.008   -9.961497    6.806428    6.565470
  27 H     1.0000    0     1.008   -9.528758    1.770503    7.053266
  28 H     1.0000    0     1.008   -5.644268   -1.384379    7.301191
  29 H     1.0000    0     1.008    6.355246   -0.380031    7.003613
  30 H     1.0000    0     1.008    9.643871    3.373872    6.578646
  31 H     1.0000    0     1.008    9.211083    8.409831    6.090987
  32 H     1.0000    0     1.008    5.326641   11.564676    5.843236
  33 H     1.0000    0     1.008    1.549490   14.844008    5.579396
  34 H     1.0000    0     1.008   -6.672901   10.560290    6.140667
  35 H     1.0000    0     1.008   -3.509300   14.421462    5.705132
  36 Mg   12.0000    0    24.305   -0.158817    5.090138    6.572068

--------------------------------
INTERNAL COORDINATES (ANGSTROEM)
--------------------------------
 N      0   0   0     0.000000000000     0.00000000     0.00000000
 H      1   0   0     6.119491276487     0.00000000     0.00000000
 C      1   2   0     2.294177409054   140.92453006     0.00000000
 C      2   1   3     2.194906869500    33.50915004     0.03654954
 N      4   2   1     2.294090550086    95.56469348     0.04751811
 C      2   1   3     1.078931462307     4.27284844     0.40083788
 H      4   2   1     1.078939583961   105.16341269   180.06430126
 C      5   4   2     3.016162461030   125.61516112   359.95655471
 N      1   2   6     2.899761601367   101.32570715   180.34880946
 C      9   1   2     2.294087441504   117.77531267   179.96469761
 C      8   5   4     1.393144250589    53.16437800     0.06876310
 C      8   5   4     2.200021689544   108.37491839   180.08468447
 N     12   8   5     1.367433868161    36.44673543     0.00000000
 C     12   8   5     1.441412676383    73.05033634   180.01204037
 C      5   4   2     1.367422885977    36.31868910   180.00102268
 C      5   4   2     1.367357644410    70.79572404     0.00000000
 C      1   2   6     1.367434647900    70.13306991     0.35586623
 C      1   2   6     1.367487791728   177.24111910     0.97900926
 C      3   1   2     1.359631242567    72.76301102   359.95357395
 C     17   1   2     1.393122060686   125.07310744     0.00000000
 C     18   1  17     1.393143327356   125.09478022   180.00966439
 C     14  12   8     1.359631880754   106.94820236     0.00000000
 C      9   1   2     1.367356903781    81.45605938   180.00111785
 C     10   9   1     1.359689963047    72.76177076   180.05889371
 C     12   8   5     1.393121008199   161.52060847   359.96153148
 C      9   1   2     1.367416327023   171.42924741     0.34052806
 H      3   1   2     1.078940742119   159.26701397   179.95498931
 H     19   3   1     1.078936604777   127.96204490   180.00155066
 H     20  17   1     1.082736356593   116.52889429   179.96077396
 H     11   8   5     1.082734663195   116.52549896   180.00584317
 H     22  14  12     1.078943065563   127.96985474   179.99900777
 H     14  12   8     1.078934265943   125.08876244   180.00062158
 H     25  12   8     1.082734522723   116.52871416   180.07456094
 H     24  10   9     1.078937518569   127.96698994   179.97965206
 H     21  18   1     1.082734010826   116.52436251   179.96628297
 H     10   9   1     1.078932341162   159.27697815     0.03817484
 Mg    13  12   8     2.050360529877   126.45537008   180.01043791

---------------------------
INTERNAL COORDINATES (A.U.)
---------------------------
 N      0   0   0     0.000000000000     0.00000000     0.00000000
 H      1   0   0    11.564162591480     0.00000000     0.00000000
 C      1   2   0     4.335367005742   140.92453006     0.00000000
 C      2   1   3     4.147772872818    33.50915004     0.03654954
 N      4   2   1     4.335202866080    95.56469348     0.04751811
 C      2   1   3     2.038884981031     4.27284844     0.40083788
 H      4   2   1     2.038900328733   105.16341269   180.06430126
 C      5   4   2     5.699721026761   125.61516112   359.95655471
 N      1   2   6     5.479755280244   101.32570715   180.34880946
 C      9   1   2     4.335196991710   117.77531267   179.96469761
 C      8   5   4     2.632661098659    53.16437800     0.06876310
 C      8   5   4     4.157438481924   108.37491839   180.08468447
 N     12   8   5     2.584075517072    36.44673543     0.00000000
 C     12   8   5     2.723875204326    73.05033634   180.01204037
 C      5   4   2     2.584054763752    36.31868910   180.00102268
 C      5   4   2     2.583931475058    70.79572404     0.00000000
 C      1   2   6     2.584076990566    70.13306991     0.35586623
 C      1   2   6     2.584177417846   177.24111910     0.97900926
 C      3   1   2     2.569330691574    72.76301102   359.95357395
 C     17   1   2     2.632619165820   125.07310744     0.00000000
 C     18   1  17     2.632659354002   125.09478022   180.00966439
 C     14  12   8     2.569331897574   106.94820236     0.00000000
 C      9   1   2     2.583930075473    81.45605938   180.00111785
 C     10   9   1     2.569441657201    72.76177076   180.05889371
 C     12   8   5     2.632617176909   161.52060847   359.96153148
 C      9   1   2     2.584042369125   171.42924741     0.34052806
 H      3   1   2     2.038902517335   159.26701397   179.95498931
 H     19   3   1     2.038894698891   127.96204490   180.00155066
 H     20  17   1     2.046075189201   116.52889429   179.96077396
 H     11   8   5     2.046071989142   116.52549896   180.00584317
 H     22  14  12     2.038906908008   127.96985474   179.99900777
 H     14  12   8     2.038890279135   125.08876244   180.00062158
 H     25  12   8     2.046071723688   116.52871416   180.07456094
 H     24  10   9     2.038896425708   127.96698994   179.97965206
 H     21  18   1     2.046070756344   116.52436251   179.96628297
 H     10   9   1     2.038886641826   159.27697815     0.03817484
 Mg    13  12   8     3.874619877269   126.45537008   180.01043791

---------------------
BASIS SET INFORMATION
---------------------
There are 4 groups of distinct atoms

 Group   1 Type N   : 11s6p2d1f contracted to 5s3p2d1f pattern {62111/411/11/1}
 Group   2 Type H   : 5s1p contracted to 3s1p pattern {311/1}
 Group   3 Type C   : 11s6p2d1f contracted to 5s3p2d1f pattern {62111/411/11/1}
 Group   4 Type Mg  : 14s8p3d contracted to 5s4p3d pattern {73211/5111/111}

Atom   0N    basis set group =>   1
Atom   1H    basis set group =>   2
Atom   2C    basis set group =>   3
Atom   3C    basis set group =>   3
Atom   4N    basis set group =>   1
Atom   5C    basis set group =>   3
Atom   6H    basis set group =>   2
Atom   7C    basis set group =>   3
Atom   8N    basis set group =>   1
Atom   9C    basis set group =>   3
Atom  10C    basis set group =>   3
Atom  11C    basis set group =>   3
Atom  12N    basis set group =>   1
Atom  13C    basis set group =>   3
Atom  14C    basis set group =>   3
Atom  15C    basis set group =>   3
Atom  16C    basis set group =>   3
Atom  17C    basis set group =>   3
Atom  18C    basis set group =>   3
Atom  19C    basis set group =>   3
Atom  20C    basis set group =>   3
Atom  21C    basis set group =>   3
Atom  22C    basis set group =>   3
Atom  23C    basis set group =>   3
Atom  24C    basis set group =>   3
Atom  25C    basis set group =>   3
Atom  26H    basis set group =>   2
Atom  27H    basis set group =>   2
Atom  28H    basis set group =>   2
Atom  29H    basis set group =>   2
Atom  30H    basis set group =>   2
Atom  31H    basis set group =>   2
Atom  32H    basis set group =>   2
Atom  33H    basis set group =>   2
Atom  34H    basis set group =>   2
Atom  35H    basis set group =>   2
Atom  36Mg   basis set group =>   4
---------------------------------
AUXILIARY/J BASIS SET INFORMATION
---------------------------------
There are 4 groups of distinct atoms

 Group   1 Type N   : 12s5p4d2f1g contracted to 6s4p3d1f1g pattern {711111/2111/211/2/1}
 Group   2 Type H   : 5s2p1d contracted to 3s1p1d pattern {311/2/1}
 Group   3 Type C   : 12s5p4d2f1g contracted to 6s4p3d1f1g pattern {711111/2111/211/2/1}
 Group   4 Type Mg  : 14s5p5d2f1g contracted to 8s4p4d1f1g pattern {71111111/2111/2111/2/1}

Atom   0N    basis set group =>   1
Atom   1H    basis set group =>   2
Atom   2C    basis set group =>   3
Atom   3C    basis set group =>   3
Atom   4N    basis set group =>   1
Atom   5C    basis set group =>   3
Atom   6H    basis set group =>   2
Atom   7C    basis set group =>   3
Atom   8N    basis set group =>   1
Atom   9C    basis set group =>   3
Atom  10C    basis set group =>   3
Atom  11C    basis set group =>   3
Atom  12N    basis set group =>   1
Atom  13C    basis set group =>   3
Atom  14C    basis set group =>   3
Atom  15C    basis set group =>   3
Atom  16C    basis set group =>   3
Atom  17C    basis set group =>   3
Atom  18C    basis set group =>   3
Atom  19C    basis set group =>   3
Atom  20C    basis set group =>   3
Atom  21C    basis set group =>   3
Atom  22C    basis set group =>   3
Atom  23C    basis set group =>   3
Atom  24C    basis set group =>   3
Atom  25C    basis set group =>   3
Atom  26H    basis set group =>   2
Atom  27H    basis set group =>   2
Atom  28H    basis set group =>   2
Atom  29H    basis set group =>   2
Atom  30H    basis set group =>   2
Atom  31H    basis set group =>   2
Atom  32H    basis set group =>   2
Atom  33H    basis set group =>   2
Atom  34H    basis set group =>   2
Atom  35H    basis set group =>   2
Atom  36Mg   basis set group =>   4


           ************************************************************
           *        Program running with 4 parallel MPI-processes     *
           *              working on a common directory               *
           ************************************************************
------------------------------------------------------------------------------
                             ORCA STARTUP CALCULATIONS
                           -- RI-GTO INTEGRALS CHOSEN --
------------------------------------------------------------------------------
------------------------------------------------------------------------------
                   ___                                                        
                  /   \      - P O W E R E D   B Y -                         
                 /     \                                                     
                 |  |  |   _    _      __       _____    __    __             
                 |  |  |  | |  | |    /  \     |  _  \  |  |  /  |          
                  \  \/   | |  | |   /    \    | | | |  |  | /  /          
                 / \  \   | |__| |  /  /\  \   | |_| |  |  |/  /          
                |  |  |   |  __  | /  /__\  \  |    /   |      \           
                |  |  |   | |  | | |   __   |  |    \   |  |\   \          
                \     /   | |  | | |  |  |  |  | |\  \  |  | \   \       
                 \___/    |_|  |_| |__|  |__|  |_| \__\ |__|  \__/        
                                                                              
                      - O R C A' S   B I G   F R I E N D -                    
                                      &                                       
                       - I N T E G R A L  F E E D E R -                       
                                                                              
 v1 FN, 2020, v2 2021, v3 2022-2024                                           
------------------------------------------------------------------------------


----------------------
SHARK INTEGRAL PACKAGE
----------------------

Number of atoms                             ...     37
Number of basis functions                   ...    848
Number of shells                            ...    324
Maximum angular momentum                    ...      3
Integral batch strategy                     ... SHARK/LIBINT Hybrid
RI-J (if used) integral strategy            ... SPLIT-RIJ (Revised 2003 algorithm where possible)
Printlevel                                  ...      1
Contraction scheme used                     ... SEGMENTED contraction
Prescreening option                         ... SCHWARTZ
   Thresh                                   ... 2.500e-11
   Tcut                                     ... 2.500e-12
   Tpresel                                  ... 2.500e-12 
Coulomb Range Separation                    ... NOT USED
Exchange Range Separation                   ... NOT USED
Multipole approximations                    ... NOT USED
Finite Nucleus Model                        ... NOT USED
CABS basis                                  ... NOT available
Auxiliary Coulomb fitting basis             ... AVAILABLE
   # of basis functions in Aux-J            ...   1364
   # of shells in Aux-J                     ...    438
   Maximum angular momentum in Aux-J        ...      4
Auxiliary J/K fitting basis                 ... NOT available
Auxiliary Correlation fitting basis         ... NOT available
Auxiliary 'external' fitting basis          ... NOT available

Checking pre-screening integrals            ... done (  0.0 sec) Dimension = 324
   => SHARK Basis and OBASIS are compatible. Storing Pre-screening
Shell pair information
Shell pair cut-off parameter TPreSel        ...   2.5e-12
Total number of shell pairs                 ...     52650
Shell pairs after pre-screening             ...     37452
Total number of primitive shell pairs       ...    167352
Primitive shell pairs kept                  ...     77858
          la=0 lb=0:   8711 shell pairs
          la=1 lb=0:  10604 shell pairs
          la=1 lb=1:   3186 shell pairs
          la=2 lb=0:   5583 shell pairs
          la=2 lb=1:   3500 shell pairs
          la=2 lb=2:    986 shell pairs
          la=3 lb=0:   2388 shell pairs
          la=3 lb=1:   1536 shell pairs
          la=3 lb=2:    788 shell pairs
          la=3 lb=3:    170 shell pairs

Checking whether 4 symmetric matrices of dimension 848 fit in memory
:Max Core in MB      =   3000.00
 MB in use           =     49.24
 MB left             =   2950.76
 MB needed           =     10.99
 Data fit in memory  = YES
Calculating RI/J V-Matrix + Cholesky decomp.... done (  0.1 sec)
Calculating Nuclear repulsion               ... done (  0.0 sec) ENN=   2121.711186967779 Eh

Diagonalization of the overlap matrix:
Smallest eigenvalue                        ... 1.003e-05
Time for diagonalization                   ...    0.190 sec
Threshold for overlap eigenvalues          ... 1.000e-07
Number of eigenvalues below threshold      ... 0
Time for construction of square roots      ...    0.095 sec
Total time needed                          ...    0.293 sec

-------------------
DFT GRID GENERATION
-------------------

General Integration Accuracy     IntAcc      ... 4.959
Radial Grid Type                 RadialGrid  ... OptM3 with GC (2021)
Angular Grid (max. ang.)         AngularGrid ... 6 (Lebedev-590)
Angular grid pruning method      GridPruning ... 4 (adaptive)
Weight generation scheme         WeightScheme... mBecke (2022)
Basis function cutoff            BFCut       ... 1.0000e-11
Integration weight cutoff        WCut        ... 1.0000e-14
Partially contracted basis set               ... off
Rotationally invariant grid construction     ... off
Angular grids for H and He will be reduced by one unit

Total number of grid points                  ...   456655
Total number of batches                      ...     7152
Average number of points per batch           ...       63
Average number of grid points per atom       ...    12342

--------------------
COSX GRID GENERATION
--------------------

GRIDX 1
-------
General Integration Accuracy     IntAcc      ... 4.020
Radial Grid Type                 RadialGrid  ... OptM3 with GC (2021)
Angular Grid (max. ang.)         AngularGrid ... 2 (Lebedev-110)
Angular grid pruning method      GridPruning ... 4 (adaptive)
Weight generation scheme         WeightScheme... mBecke (2022)
Basis function cutoff            BFCut       ... 1.0000e-11
Integration weight cutoff        WCut        ... 1.0000e-14
Partially contracted basis set               ... on
Rotationally invariant grid construction     ... off
Angular grids for H and He will be reduced by one unit

Total number of grid points                  ...    52690
Total number of batches                      ...      428
Average number of points per batch           ...      123
Average number of grid points per atom       ...     1424
UseSFitting                                  ... on

GRIDX 2
-------
General Integration Accuracy     IntAcc      ... 4.338
Radial Grid Type                 RadialGrid  ... OptM3 with GC (2021)
Angular Grid (max. ang.)         AngularGrid ... 3 (Lebedev-194)
Angular grid pruning method      GridPruning ... 4 (adaptive)
Weight generation scheme         WeightScheme... mBecke (2022)
Basis function cutoff            BFCut       ... 1.0000e-11
Integration weight cutoff        WCut        ... 1.0000e-14
Partially contracted basis set               ... on
Rotationally invariant grid construction     ... off
Angular grids for H and He will be reduced by one unit

Total number of grid points                  ...   116101
Total number of batches                      ...      923
Average number of points per batch           ...      125
Average number of grid points per atom       ...     3138
UseSFitting                                  ... on

GRIDX 3
-------
General Integration Accuracy     IntAcc      ... 4.871
Radial Grid Type                 RadialGrid  ... OptM3 with GC (2021)
Angular Grid (max. ang.)         AngularGrid ... 4 (Lebedev-302)
Angular grid pruning method      GridPruning ... 4 (adaptive)
Weight generation scheme         WeightScheme... mBecke (2022)
Basis function cutoff            BFCut       ... 1.0000e-11
Integration weight cutoff        WCut        ... 1.0000e-14
Partially contracted basis set               ... on
Rotationally invariant grid construction     ... off
Angular grids for H and He will be reduced by one unit

Total number of grid points                  ...   212436
Total number of batches                      ...     1675
Average number of points per batch           ...      126
Average number of grid points per atom       ...     5742
UseSFitting                                  ... on
Grids setup in  14.5 sec
Initializing property integral containers    ... done (  0.0 sec)

SHARK setup successfully completed in  15.7 seconds

Maximum memory used throughout the entire STARTUP-calculation: 148.4 MB


           ************************************************************
           *        Program running with 4 parallel MPI-processes     *
           *              working on a common directory               *
           ************************************************************
-------------------------------------------------------------------------------
                                 ORCA GUESS
                   Start orbitals & Density for SCF / CASSCF
-------------------------------------------------------------------------------

------------
SCF SETTINGS
------------
Hamiltonian:
 Density Functional     Method          .... DFT(GTOs)
 Exchange Functional    Exchange        .... M062X
 Correlation Functional Correlation     .... M062X
 Gradients option       PostSCFGGA      .... off
 Hybrid DFT is turned on
   Fraction HF Exchange ScalHFX         ....  0.540000
   Scaling of DF-GGA-X  ScalDFX         ....  0.460000
   Scaling of DF-GGA-C  ScalDFC         ....  1.000000
   Scaling of DF-LDA-C  ScalLDAC        ....  1.000000
   Perturbative correction              ....  0.000000
 RI-approximation to the Coulomb term is turned on
   Number of AuxJ basis functions       .... 1364
   RIJ-COSX (HFX calculated with COS-X)).... on


General Settings:
 Integral files         IntName         .... tddft
 Hartree-Fock type      HFTyp           .... RHF
 Total Charge           Charge          ....    0
 Multiplicity           Mult            ....    1
 Number of Electrons    NEL             ....  172
 Basis Dimension        Dim             ....  848
 Nuclear Repulsion      ENuc            ....   2121.7111869678 Eh

Convergence Acceleration:
 AO-DIIS                CNVDIIS         .... on
   Start iteration      DIISMaxIt       ....    12
   Startup error        DIISStart       ....  0.200000
   # of expansion vecs  DIISMaxEq       ....     5
   Bias factor          DIISBfac        ....   1.050
   Max. coefficient     DIISMaxC        ....  10.000
 MO-DIIS                CNVKDIIS        .... off
 Trust-Rad. Augm. Hess. CNVTRAH         .... auto
   Auto Start mean grad. ratio tolernc. ....  1.125000
   Auto Start start iteration           ....    50
   Auto Start num. interpolation iter.  ....    10
   Max. Number of Micro iterations      ....    24
   Max. Number of Macro iterations      .... Maxiter - #DIIS iter
   Number of Davidson start vectors     ....     2
   Converg. threshold    (grad. norm)   ....   1.000e-05
   Grad. Scal. Fac. for Micro threshold ....   0.100
   Minimum threshold for Micro iter.    ....   1.000e-02
   NR start threshold (gradient norm)   ....   1.000e-04
   Initial trust radius                 ....   0.400
   Minimum AH scaling param. (alpha)    ....   1.000
   Maximum AH scaling param. (alpha)    .... 1000.000
   Quad. conv. algorithm                .... NR
   White noise on init. David. guess    .... on
   Maximum white noise                  ....   0.010
   Pseudo random numbers                .... off
   Inactive MOs                         .... canonical
   Orbital update algorithm             .... Taylor
   Preconditioner                       .... Diag
   Full preconditioner red. dimension   ....   250
 SOSCF                 CNVSOSCF           .... on
   Start iteration     SOSCFMaxIt         ....   150
   Startup grad/error  SOSCFStart         ....  0.003300
   Hessian update      SOSCFHessUp        .... L-BFGS
   Autom. constraints  SOSCFAutoConstrain .... off
 Level Shifting         CNVShift        .... on
   Level shift para.    LevelShift      ....    0.2500
   Turn off err/grad.   ShiftErr        ....    0.0010
 Zerner damping         CNVZerner       .... off
 Static damping         CNVDamp         .... on
   Fraction old density DampFac         ....    0.7000
   Max. Damping (<1)    DampMax         ....    0.9800
   Min. Damping (>=0)   DampMin         ....    0.0000
   Turn off err/grad.   DampErr         ....    0.1000

SCF Procedure:
 Maximum # iterations   MaxIter         ....   125
 SCF integral mode      SCFMode         .... Direct
   Integral package                     .... SHARK and LIBINT hybrid scheme
 Reset frequency        DirectResetFreq ....    20
 Integral Threshold     Thresh          ....  2.500e-11 Eh
 Primitive CutOff       TCut            ....  2.500e-12 Eh

Convergence Tolerance:
 Convergence Check Mode ConvCheckMode   .... Total+1el-Energy
 Convergence forced     ConvForced      .... 1
 Energy Change          TolE            ....  1.000e-08 Eh
 1-El. energy change                    ....  1.000e-05 Eh
 Orbital Gradient       TolG            ....  1.000e-05
 Orbital Rotation angle TolX            ....  1.000e-05
 DIIS Error             TolErr          ....  5.000e-07

------------------------------
INITIAL GUESS: MODEL POTENTIAL
------------------------------
Loading Hartree-Fock densities                     ... done
Calculating cut-offs                               ... done
Initializing the effective Hamiltonian             ... done
Setting up the integral package (SHARK)            ... done
Starting the Coulomb interaction                   ... done (   1.7 sec)
Making the grid                                    ... done (   0.6 sec)
Mapping shells                                     ... done
Starting the XC term evaluation                    ... done (   0.9 sec)
  promolecular density results
     # of electrons  =    171.995110955
     EX              =   -148.115499445
     EC              =     -5.855479608
     EX+EC           =   -153.970979052
Transforming the Hamiltonian                       ... done (   0.1 sec)
Diagonalizing the Hamiltonian                      ... done (   0.2 sec)
Back transforming the eigenvectors                 ... done (   0.1 sec)
Now organizing SCF variables                       ... done
                      ------------------
                      INITIAL GUESS DONE (   3.6 sec)
                      ------------------
             **** ENERGY FILE WAS UPDATED (tddft.en.tmp) ****
Finished Guess after   4.1 sec
Maximum memory used throughout the entire GUESS-calculation: 83.5 MB


           ************************************************************
           *        Program running with 4 parallel MPI-processes     *
           *              working on a common directory               *
           ************************************************************

-------------------------------------------------------------------------------------------
                                      ORCA LEAN-SCF
                              memory conserving SCF solver
-------------------------------------------------------------------------------------------

--------------------
CPCM SOLVATION MODEL
--------------------
CPCM parameters:
  Epsilon                                         ...       8.9990
  Refrac                                          ...       1.4242
  Rsolv                                           ...       1.3000
  Surface type                                    ... GAUSSIAN VDW
  Discretization scheme                           ... Constant charge density
    Threshold for H atoms                         ...       5.0000 (charges/Ang^2)
    Threshold for non-H atoms                     ...       5.0000 (charges/Ang^2)
  Epsilon function type                           ...         CPCM
Solvent:                                          ... DICHLOROMETHANE
Radii:
  Scheme                                          ... Element-dependent radii
  Radius for N  used is    3.5149 Bohr (=   1.8600 Ang.)
  Radius for H  used is    2.4944 Bohr (=   1.3200 Ang.)
  Radius for C  used is    3.8550 Bohr (=   2.0400 Ang.)
  Radius for Mg used is    3.9231 Bohr (=   2.0760 Ang.)
Calculating surface                               ...        done! (  0.0s)
Cavity surface points                             ...         3494
Cavity Volume                                     ...    2478.6237
Cavity Surface-area                               ...    1177.4362
Calculating surface distance matrix               ...        done! (  0.3s)
Performing Cholesky decomposition & store         ...        done! (  0.7s)
Overall time for CPCM initialization              ...                 1.0s

----------------------------------------D-I-I-S--------------------------------------------
Iteration    Energy (Eh)           Delta-E    RMSDP     MaxDP     DIISErr   Damp  Time(sec)
-------------------------------------------------------------------------------------------
               ***  Starting incremental Fock matrix formation  ***
    1    -1187.9813304495323791     0.00e+00  2.45e-03  5.43e-02  2.33e-01  0.700  99.3
    2    -1188.2152490048438267    -2.34e-01  2.01e-03  4.22e-02  1.25e-01  0.700  52.3
                               ***Turning on AO-DIIS***
    3    -1188.3327379101874612    -1.17e-01  1.38e-03  3.12e-02  5.43e-02  0.700  51.3
    4    -1188.4023990995829081    -6.97e-02  3.14e-03  6.90e-02  3.77e-02  0.000  49.1
    5    -1188.5507999751548596    -1.48e-01  2.15e-04  3.53e-03  4.17e-03  0.000  51.6
                              *** Initializing SOSCF ***
---------------------------------------S-O-S-C-F--------------------------------------
Iteration    Energy (Eh)           Delta-E    RMSDP     MaxDP     MaxGrad    Time(sec)
--------------------------------------------------------------------------------------
    6    -1188.5512250415508788    -4.25e-04  8.30e-05  1.51e-03  2.25e-03    70.7
               *** Restarting incremental Fock matrix formation ***
    7    -1188.5512714242381662    -4.64e-05  6.09e-05  1.99e-03  4.19e-04   104.9
    8    -1188.5512831385008212    -1.17e-05  2.50e-05  6.24e-04  1.75e-04    99.3
    9    -1188.5512843232531850    -1.18e-06  6.62e-06  2.30e-04  1.06e-04    66.3
   10    -1188.5512846532556068    -3.30e-07  3.17e-06  9.00e-05  2.59e-05    76.0
   11    -1188.5512846973479100    -4.41e-08  1.08e-06  1.96e-05  8.07e-06    60.1
   12    -1188.5512846894639551     7.88e-09  9.92e-07  2.17e-05  6.04e-06    42.7
                 **** Energy Check signals convergence ****

               *****************************************************
               *                     SUCCESS                       *
               *           SCF CONVERGED AFTER  12 CYCLES          *
               *****************************************************

Recomputing exchange energy using gridx3       ... done (  169.990 sec)
Old exchange energy                            :    -81.389198685 Eh
New exchange energy                            :    -81.389187742 Eh
Exchange energy change after final integration :      0.000010943 Eh
Total energy after final integration           :  -1188.551273773 Eh
             **** ENERGY FILE WAS UPDATED (tddft.en.tmp) ****

----------------
TOTAL SCF ENERGY
----------------

Total Energy       :      -1188.55127377286271 Eh          -32342.12440 eV

Components:
Nuclear Repulsion  :       2121.71118696777876 Eh           57734.69657 eV
Electronic Energy  :      -3310.24674349697489 Eh          -90076.39329 eV
One Electron Energy:      -5838.64650288216217 Eh         -158877.64853 eV
Two Electron Energy:       2528.39975938518728 Eh           68801.25524 eV
CPCM Dielectric    :         -0.01572818706962 Eh              -0.42799 eV

Virial components:
Potential Energy   :      -2371.46585949023620 Eh          -64530.86672 eV
Kinetic Energy     :       1182.91458571737348 Eh           32188.74232 eV
Virial Ratio       :          2.00476508458307

DFT components:
N(Alpha)           :       86.000002375971 electrons
N(Beta)            :       86.000002375971 electrons
N(Total)           :      172.000004751941 electrons
E(XC)              :      -75.764352438287 Eh       

CPCM Solvation Model Properties:
Surface-charge          :         -0.03659685030549
Corrected charge        :          0.00000000000000
Outlying charge corr.   :          0.00006399129837 Eh               0.00174 eV
Free-energy (cav+disp)  :  This term is not implemented in the current solvation scheme

---------------
SCF CONVERGENCE
---------------

  Last Energy change         ...   -7.8840e-09  Tolerance :   1.0000e-08
  Last MAX-Density change    ...    2.1667e-05  Tolerance :   1.0000e-07
  Last RMS-Density change    ...    9.9190e-07  Tolerance :   5.0000e-09
  Last DIIS Error            ...    2.2520e-03  Tolerance :   5.0000e-07
  Last Orbital Gradient      ...    6.0352e-06  Tolerance :   1.0000e-05
  Last Orbital Rotation      ...    5.3526e-06  Tolerance :   1.0000e-05


----------------
ORBITAL ENERGIES
----------------

  NO   OCC          E(Eh)            E(eV) 
   0   2.0000     -47.512758     -1292.8879 
   1   2.0000     -14.742840      -401.1731 
   2   2.0000     -14.742837      -401.1730 
   3   2.0000     -14.742832      -401.1728 
   4   2.0000     -14.742829      -401.1728 
   5   2.0000     -10.578921      -287.8671 
   6   2.0000     -10.578917      -287.8670 
   7   2.0000     -10.578915      -287.8669 
   8   2.0000     -10.578912      -287.8668 
   9   2.0000     -10.578880      -287.8660 
  10   2.0000     -10.578879      -287.8659 
  11   2.0000     -10.578874      -287.8658 
  12   2.0000     -10.578873      -287.8658 
  13   2.0000     -10.552250      -287.1413 
  14   2.0000     -10.552248      -287.1413 
  15   2.0000     -10.552244      -287.1412 
  16   2.0000     -10.552241      -287.1411 
  17   2.0000     -10.543322      -286.8984 
  18   2.0000     -10.543322      -286.8984 
  19   2.0000     -10.543317      -286.8982 
  20   2.0000     -10.543316      -286.8982 
  21   2.0000     -10.542353      -286.8720 
  22   2.0000     -10.542352      -286.8720 
  23   2.0000     -10.542348      -286.8719 
  24   2.0000     -10.542347      -286.8719 
  25   2.0000      -3.268016       -88.9272 
  26   2.0000      -1.962993       -53.4158 
  27   2.0000      -1.959526       -53.3214 
  28   2.0000      -1.959525       -53.3214 
  29   2.0000      -1.078213       -29.3397 
  30   2.0000      -1.068823       -29.0841 
  31   2.0000      -1.068794       -29.0834 
  32   2.0000      -1.058418       -28.8010 
  33   2.0000      -0.920318       -25.0431 
  34   2.0000      -0.891274       -24.2528 
  35   2.0000      -0.891271       -24.2527 
  36   2.0000      -0.871452       -23.7134 
  37   2.0000      -0.865422       -23.5493 
  38   2.0000      -0.865411       -23.5490 
  39   2.0000      -0.861299       -23.4371 
  40   2.0000      -0.836143       -22.7526 
  41   2.0000      -0.811974       -22.0949 
  42   2.0000      -0.744021       -20.2458 
  43   2.0000      -0.744011       -20.2456 
  44   2.0000      -0.680263       -18.5109 
  45   2.0000      -0.657329       -17.8868 
  46   2.0000      -0.653414       -17.7803 
  47   2.0000      -0.653403       -17.7800 
  48   2.0000      -0.649953       -17.6861 
  49   2.0000      -0.628134       -17.0924 
  50   2.0000      -0.620578       -16.8868 
  51   2.0000      -0.601334       -16.3631 
  52   2.0000      -0.601325       -16.3629 
  53   2.0000      -0.586319       -15.9546 
  54   2.0000      -0.569648       -15.5009 
  55   2.0000      -0.569647       -15.5009 
  56   2.0000      -0.515681       -14.0324 
  57   2.0000      -0.510706       -13.8970 
  58   2.0000      -0.502446       -13.6722 
  59   2.0000      -0.494428       -13.4541 
  60   2.0000      -0.494420       -13.4538 
  61   2.0000      -0.489510       -13.3202 
  62   2.0000      -0.489493       -13.3198 
  63   2.0000      -0.487590       -13.2680 
  64   2.0000      -0.475609       -12.9420 
  65   2.0000      -0.469299       -12.7703 
  66   2.0000      -0.454457       -12.3664 
  67   2.0000      -0.454440       -12.3659 
  68   2.0000      -0.447685       -12.1821 
  69   2.0000      -0.437491       -11.9047 
  70   2.0000      -0.437481       -11.9045 
  71   2.0000      -0.436500       -11.8778 
  72   2.0000      -0.431721       -11.7477 
  73   2.0000      -0.427850       -11.6424 
  74   2.0000      -0.394075       -10.7233 
  75   2.0000      -0.383193       -10.4272 
  76   2.0000      -0.383178       -10.4268 
  77   2.0000      -0.353718        -9.6251 
  78   2.0000      -0.343720        -9.3531 
  79   2.0000      -0.343716        -9.3530 
  80   2.0000      -0.324686        -8.8352 
  81   2.0000      -0.312813        -8.5121 
  82   2.0000      -0.312804        -8.5118 
  83   2.0000      -0.308660        -8.3991 
  84   2.0000      -0.238480        -6.4894 
  85   2.0000      -0.237952        -6.4750 
  86   0.0000      -0.073466        -1.9991 
  87   0.0000      -0.073453        -1.9988 
  88   0.0000       0.002528         0.0688 
  89   0.0000       0.019616         0.5338 
  90   0.0000       0.051169         1.3924 
  91   0.0000       0.076843         2.0910 
  92   0.0000       0.085629         2.3301 
  93   0.0000       0.085640         2.3304 
  94   0.0000       0.091567         2.4917 
  95   0.0000       0.091573         2.4918 
  96   0.0000       0.094181         2.5628 
*Only the first 10 virtual orbitals were printed.

                    ********************************
                    * MULLIKEN POPULATION ANALYSIS *
                    ********************************

-----------------------
MULLIKEN ATOMIC CHARGES
-----------------------
   0 N :   -0.420355
   1 H :    0.178621
   2 C :   -0.230865
   3 C :   -0.230832
   4 N :   -0.420696
   5 C :   -0.230056
   6 H :    0.178676
   7 C :    0.221544
   8 N :   -0.420694
   9 C :   -0.229978
  10 C :   -0.295570
  11 C :    0.222610
  12 N :   -0.420330
  13 C :   -0.230116
  14 C :    0.221665
  15 C :    0.222865
  16 C :    0.222530
  17 C :    0.221563
  18 C :   -0.230089
  19 C :   -0.295918
  20 C :   -0.295559
  21 C :   -0.230832
  22 C :    0.222734
  23 C :   -0.230855
  24 C :   -0.296002
  25 C :    0.221773
  26 H :    0.178677
  27 H :    0.178684
  28 H :    0.186127
  29 H :    0.186125
  30 H :    0.178660
  31 H :    0.178655
  32 H :    0.186136
  33 H :    0.178648
  34 H :    0.186132
  35 H :    0.178639
  36 Mg:    0.757682
Sum of atomic charges:    0.0000000

--------------------------------
MULLIKEN REDUCED ORBITAL CHARGES
--------------------------------
  0 N s       :     3.686311  s :     3.686311
      pz      :     1.368083  p :     3.679706
      px      :     1.282570
      py      :     1.029053
      dz2     :     0.004458  d :     0.050831
      dxz     :     0.005902
      dyz     :     0.013100
      dx2y2   :     0.013226
      dxy     :     0.014144
      f0      :     0.000685  f :     0.003508
      f+1     :     0.000342
      f-1     :     0.000496
      f+2     :     0.000106
      f-2     :     0.000518
      f+3     :     0.000604
      f-3     :     0.000756

  1 H s       :     0.801116  s :     0.801116
      pz      :     0.003944  p :     0.020263
      px      :     0.007653
      py      :     0.008666

  2 C s       :     3.252942  s :     3.252942
      pz      :     0.989803  p :     2.905461
      px      :     0.965305
      py      :     0.950353
      dz2     :     0.005671  d :     0.065584
      dxz     :     0.009047
      dyz     :     0.019252
      dx2y2   :     0.011011
      dxy     :     0.020604
      f0      :     0.001219  f :     0.006878
      f+1     :     0.000901
      f-1     :     0.000695
      f+2     :     0.000783
      f-2     :     0.000368
      f+3     :     0.001880
      f-3     :     0.001031

  3 C s       :     3.252821  s :     3.252821
      pz      :     0.990319  p :     2.905554
      px      :     0.949815
      py      :     0.965420
      dz2     :     0.005211  d :     0.065578
      dxz     :     0.019874
      dyz     :     0.008938
      dx2y2   :     0.010903
      dxy     :     0.020653
      f0      :     0.001263  f :     0.006878
      f+1     :     0.000622
      f-1     :     0.000899
      f+2     :     0.000829
      f-2     :     0.000362
      f+3     :     0.001011
      f-3     :     0.001892

  4 N s       :     3.686769  s :     3.686769
      pz      :     1.370276  p :     3.679571
      px      :     1.025852
      py      :     1.283443
      dz2     :     0.004274  d :     0.050847
      dxz     :     0.013350
      dyz     :     0.005834
      dx2y2   :     0.013167
      dxy     :     0.014222
      f0      :     0.000689  f :     0.003508
      f+1     :     0.000484
      f-1     :     0.000351
      f+2     :     0.000102
      f-2     :     0.000511
      f+3     :     0.000766
      f-3     :     0.000606

  5 C s       :     3.252281  s :     3.252281
      pz      :     0.989789  p :     2.905287
      px      :     0.971411
      py      :     0.944087
      dz2     :     0.005434  d :     0.065609
      dxz     :     0.017696
      dyz     :     0.010873
      dx2y2   :     0.013726
      dxy     :     0.017880
      f0      :     0.001251  f :     0.006879
      f+1     :     0.000680
      f-1     :     0.000863
      f+2     :     0.001054
      f-2     :     0.000122
      f+3     :     0.001105
      f-3     :     0.001804

  6 H s       :     0.801057  s :     0.801057
      pz      :     0.003996  p :     0.020266
      px      :     0.005881
      py      :     0.010389

  7 C s       :     3.126026  s :     3.126026
      pz      :     0.920335  p :     2.518918
      px      :     0.792009
      py      :     0.806574
      dz2     :     0.003642  d :     0.120627
      dxz     :     0.029064
      dyz     :     0.035612
      dx2y2   :     0.025558
      dxy     :     0.026752
      f0      :     0.001942  f :     0.012885
      f+1     :     0.001019
      f-1     :     0.001260
      f+2     :     0.000562
      f-2     :     0.002021
      f+3     :     0.002849
      f-3     :     0.003232

  8 N s       :     3.686767  s :     3.686767
      pz      :     1.370269  p :     3.679571
      px      :     1.025851
      py      :     1.283452
      dz2     :     0.004274  d :     0.050847
      dxz     :     0.013351
      dyz     :     0.005834
      dx2y2   :     0.013167
      dxy     :     0.014221
      f0      :     0.000690  f :     0.003508
      f+1     :     0.000484
      f-1     :     0.000351
      f+2     :     0.000102
      f-2     :     0.000511
      f+3     :     0.000766
      f-3     :     0.000606

  9 C s       :     3.252063  s :     3.252063
      pz      :     0.989793  p :     2.905426
      px      :     0.971459
      py      :     0.944174
      dz2     :     0.005433  d :     0.065609
      dxz     :     0.017696
      dyz     :     0.010874
      dx2y2   :     0.013727
      dxy     :     0.017880
      f0      :     0.001251  f :     0.006879
      f+1     :     0.000680
      f-1     :     0.000863
      f+2     :     0.001054
      f-2     :     0.000122
      f+3     :     0.001105
      f-3     :     0.001804

 10 C s       :     3.194951  s :     3.194951
      pz      :     1.003245  p :     3.033707
      px      :     1.031602
      py      :     0.998860
      dz2     :     0.004489  d :     0.060440
      dxz     :     0.013062
      dyz     :     0.016717
      dx2y2   :     0.011801
      dxy     :     0.014371
      f0      :     0.001109  f :     0.006472
      f+1     :     0.000749
      f-1     :     0.000807
      f+2     :     0.000606
      f-2     :     0.000433
      f+3     :     0.001548
      f-3     :     0.001219

 11 C s       :     3.127268  s :     3.127268
      pz      :     0.919818  p :     2.516673
      px      :     0.805822
      py      :     0.791033
      dz2     :     0.003815  d :     0.120568
      dxz     :     0.027916
      dyz     :     0.036703
      dx2y2   :     0.024022
      dxy     :     0.028111
      f0      :     0.001936  f :     0.012880
      f+1     :     0.000974
      f-1     :     0.001312
      f+2     :     0.000944
      f-2     :     0.001637
      f+3     :     0.001659
      f-3     :     0.004418

 12 N s       :     3.686305  s :     3.686305
      pz      :     1.368085  p :     3.679686
      px      :     1.282570
      py      :     1.029030
      dz2     :     0.004458  d :     0.050832
      dxz     :     0.005902
      dyz     :     0.013100
      dx2y2   :     0.013227
      dxy     :     0.014145
      f0      :     0.000685  f :     0.003508
      f+1     :     0.000342
      f-1     :     0.000496
      f+2     :     0.000106
      f-2     :     0.000518
      f+3     :     0.000604
      f-3     :     0.000756

 13 C s       :     3.252172  s :     3.252172
      pz      :     0.990446  p :     2.905461
      px      :     0.943450
      py      :     0.971564
      dz2     :     0.005478  d :     0.065604
      dxz     :     0.011107
      dyz     :     0.017421
      dx2y2   :     0.013854
      dxy     :     0.017744
      f0      :     0.001231  f :     0.006879
      f+1     :     0.000824
      f-1     :     0.000754
      f+2     :     0.001024
      f-2     :     0.000142
      f+3     :     0.001786
      f-3     :     0.001119

 14 C s       :     3.125825  s :     3.125825
      pz      :     0.919914  p :     2.518975
      px      :     0.805512
      py      :     0.793550
      dz2     :     0.003330  d :     0.120650
      dxz     :     0.036706
      dyz     :     0.028477
      dx2y2   :     0.025290
      dxy     :     0.026847
      f0      :     0.001960  f :     0.012885
      f+1     :     0.001233
      f-1     :     0.001023
      f+2     :     0.000579
      f-2     :     0.001986
      f+3     :     0.003258
      f-3     :     0.002845

 15 C s       :     3.127137  s :     3.127137
      pz      :     0.920328  p :     2.516559
      px      :     0.789758
      py      :     0.806472
      dz2     :     0.003353  d :     0.120557
      dxz     :     0.037912
      dyz     :     0.027329
      dx2y2   :     0.023790
      dxy     :     0.028173
      f0      :     0.001965  f :     0.012882
      f+1     :     0.001248
      f-1     :     0.000993
      f+2     :     0.000905
      f-2     :     0.001661
      f+3     :     0.004448
      f-3     :     0.001662

 16 C s       :     3.127277  s :     3.127277
      pz      :     0.919822  p :     2.516743
      px      :     0.805873
      py      :     0.791048
      dz2     :     0.003816  d :     0.120569
      dxz     :     0.027916
      dyz     :     0.036702
      dx2y2   :     0.024023
      dxy     :     0.028111
      f0      :     0.001936  f :     0.012880
      f+1     :     0.000974
      f-1     :     0.001312
      f+2     :     0.000944
      f-2     :     0.001637
      f+3     :     0.001659
      f-3     :     0.004418

 17 C s       :     3.126062  s :     3.126062
      pz      :     0.920342  p :     2.518862
      px      :     0.791941
      py      :     0.806579
      dz2     :     0.003642  d :     0.120628
      dxz     :     0.029064
      dyz     :     0.035611
      dx2y2   :     0.025562
      dxy     :     0.026748
      f0      :     0.001942  f :     0.012885
      f+1     :     0.001019
      f-1     :     0.001260
      f+2     :     0.000562
      f-2     :     0.002021
      f+3     :     0.002849
      f-3     :     0.003233

 18 C s       :     3.252091  s :     3.252091
      pz      :     0.990450  p :     2.905510
      px      :     0.943479
      py      :     0.971581
      dz2     :     0.005479  d :     0.065609
      dxz     :     0.011107
      dyz     :     0.017421
      dx2y2   :     0.013852
      dxy     :     0.017749
      f0      :     0.001231  f :     0.006879
      f+1     :     0.000824
      f-1     :     0.000754
      f+2     :     0.001024
      f-2     :     0.000142
      f+3     :     0.001786
      f-3     :     0.001119

 19 C s       :     3.195391  s :     3.195391
      pz      :     1.004172  p :     3.033577
      px      :     0.998443
      py      :     1.030961
      dz2     :     0.004139  d :     0.060478
      dxz     :     0.017231
      dyz     :     0.012917
      dx2y2   :     0.011850
      dxy     :     0.014342
      f0      :     0.001129  f :     0.006472
      f+1     :     0.000762
      f-1     :     0.000761
      f+2     :     0.000612
      f-2     :     0.000431
      f+3     :     0.001216
      f-3     :     0.001562

 20 C s       :     3.194843  s :     3.194843
      pz      :     1.003236  p :     3.033797
      px      :     1.031692
      py      :     0.998869
      dz2     :     0.004488  d :     0.060447
      dxz     :     0.013062
      dyz     :     0.016717
      dx2y2   :     0.011807
      dxy     :     0.014373
      f0      :     0.001109  f :     0.006472
      f+1     :     0.000749
      f-1     :     0.000807
      f+2     :     0.000606
      f-2     :     0.000433
      f+3     :     0.001548
      f-3     :     0.001219

 21 C s       :     3.252896  s :     3.252896
      pz      :     0.989803  p :     2.905477
      px      :     0.965296
      py      :     0.950379
      dz2     :     0.005670  d :     0.065580
      dxz     :     0.009047
      dyz     :     0.019251
      dx2y2   :     0.011012
      dxy     :     0.020600
      f0      :     0.001219  f :     0.006878
      f+1     :     0.000901
      f-1     :     0.000695
      f+2     :     0.000783
      f-2     :     0.000368
      f+3     :     0.001880
      f-3     :     0.001031

 22 C s       :     3.127187  s :     3.127187
      pz      :     0.920346  p :     2.516628
      px      :     0.789764
      py      :     0.806518
      dz2     :     0.003355  d :     0.120570
      dxz     :     0.037911
      dyz     :     0.027331
      dx2y2   :     0.023797
      dxy     :     0.028176
      f0      :     0.001965  f :     0.012882
      f+1     :     0.001248
      f-1     :     0.000993
      f+2     :     0.000905
      f-2     :     0.001661
      f+3     :     0.004448
      f-3     :     0.001662

 23 C s       :     3.252975  s :     3.252975
      pz      :     0.990319  p :     2.905424
      px      :     0.949759
      py      :     0.965346
      dz2     :     0.005211  d :     0.065579
      dxz     :     0.019873
      dyz     :     0.008938
      dx2y2   :     0.010904
      dxy     :     0.020653
      f0      :     0.001263  f :     0.006878
      f+1     :     0.000622
      f-1     :     0.000899
      f+2     :     0.000829
      f-2     :     0.000362
      f+3     :     0.001011
      f-3     :     0.001892

 24 C s       :     3.195423  s :     3.195423
      pz      :     1.004177  p :     3.033631
      px      :     0.998474
      py      :     1.030980
      dz2     :     0.004139  d :     0.060476
      dxz     :     0.017231
      dyz     :     0.012916
      dx2y2   :     0.011846
      dxy     :     0.014344
      f0      :     0.001129  f :     0.006472
      f+1     :     0.000762
      f-1     :     0.000761
      f+2     :     0.000612
      f-2     :     0.000431
      f+3     :     0.001216
      f-3     :     0.001562

 25 C s       :     3.125831  s :     3.125831
      pz      :     0.919917  p :     2.518869
      px      :     0.805477
      py      :     0.793474
      dz2     :     0.003326  d :     0.120643
      dxz     :     0.036706
      dyz     :     0.028480
      dx2y2   :     0.025291
      dxy     :     0.026840
      f0      :     0.001960  f :     0.012885
      f+1     :     0.001233
      f-1     :     0.001023
      f+2     :     0.000579
      f-2     :     0.001986
      f+3     :     0.003258
      f-3     :     0.002845

 26 H s       :     0.801057  s :     0.801057
      pz      :     0.003920  p :     0.020266
      px      :     0.010468
      py      :     0.005879

 27 H s       :     0.801055  s :     0.801055
      pz      :     0.003967  p :     0.020262
      px      :     0.008694
      py      :     0.007600

 28 H s       :     0.793248  s :     0.793248
      pz      :     0.004381  p :     0.020625
      px      :     0.007222
      py      :     0.009022

 29 H s       :     0.793250  s :     0.793250
      pz      :     0.004329  p :     0.020625
      px      :     0.009084
      py      :     0.007212

 30 H s       :     0.801074  s :     0.801074
      pz      :     0.003920  p :     0.020266
      px      :     0.010468
      py      :     0.005879

 31 H s       :     0.801084  s :     0.801084
      pz      :     0.003967  p :     0.020262
      px      :     0.008694
      py      :     0.007600

 32 H s       :     0.793239  s :     0.793239
      pz      :     0.004381  p :     0.020625
      px      :     0.007222
      py      :     0.009022

 33 H s       :     0.801086  s :     0.801086
      pz      :     0.003996  p :     0.020267
      px      :     0.005881
      py      :     0.010389

 34 H s       :     0.793244  s :     0.793244
      pz      :     0.004329  p :     0.020625
      px      :     0.009085
      py      :     0.007212

 35 H s       :     0.801099  s :     0.801099
      pz      :     0.003944  p :     0.020262
      px      :     0.007653
      py      :     0.008666

 36 Mgs       :     4.533139  s :     4.533139
      pz      :     2.083515  p :     6.444146
      px      :     2.180758
      py      :     2.179873
      dz2     :     0.032648  d :     0.265033
      dxz     :     0.024907
      dyz     :     0.026258
      dx2y2   :     0.162943
      dxy     :     0.018279



                     *******************************
                     * LOEWDIN POPULATION ANALYSIS *
                     *******************************

----------------------
LOEWDIN ATOMIC CHARGES
----------------------
   0 N :    0.173878
   1 H :    0.150038
   2 C :   -0.111217
   3 C :   -0.111205
   4 N :    0.173938
   5 C :   -0.111214
   6 H :    0.150043
   7 C :   -0.205773
   8 N :    0.173940
   9 C :   -0.111213
  10 C :   -0.082432
  11 C :   -0.205839
  12 N :    0.173877
  13 C :   -0.111207
  14 C :   -0.205811
  15 C :   -0.205871
  16 C :   -0.205840
  17 C :   -0.205774
  18 C :   -0.111209
  19 C :   -0.082444
  20 C :   -0.082431
  21 C :   -0.111218
  22 C :   -0.205872
  23 C :   -0.111203
  24 C :   -0.082444
  25 C :   -0.205815
  26 H :    0.150048
  27 H :    0.150046
  28 H :    0.169406
  29 H :    0.169401
  30 H :    0.150049
  31 H :    0.150046
  32 H :    0.169405
  33 H :    0.150042
  34 H :    0.169401
  35 H :    0.150038
  36 Mg:    0.292435

-------------------------------
LOEWDIN REDUCED ORBITAL CHARGES
-------------------------------
  0 N s       :     2.975942  s :     2.975942
      pz      :     1.191076  p :     3.631677
      px      :     1.331068
      py      :     1.109533
      dz2     :     0.016637  d :     0.200157
      dxz     :     0.012085
      dyz     :     0.043359
      dx2y2   :     0.060076
      dxy     :     0.067999
      f0      :     0.001143  f :     0.018346
      f+1     :     0.000879
      f-1     :     0.001726
      f+2     :     0.000374
      f-2     :     0.003472
      f+3     :     0.004024
      f-3     :     0.006729

  1 H s       :     0.789008  s :     0.789008
      pz      :     0.013229  p :     0.060954
      px      :     0.022403
      py      :     0.025322

  2 C s       :     2.765439  s :     2.765439
      pz      :     0.899205  p :     2.930402
      px      :     0.985185
      py      :     1.046012
      dz2     :     0.027562  d :     0.368908
      dxz     :     0.031215
      dyz     :     0.058598
      dx2y2   :     0.101798
      dxy     :     0.149735
      f0      :     0.002830  f :     0.046467
      f+1     :     0.003727
      f-1     :     0.003985
      f+2     :     0.007208
      f-2     :     0.002457
      f+3     :     0.017889
      f-3     :     0.008372

  3 C s       :     2.765450  s :     2.765450
      pz      :     0.898654  p :     2.930400
      px      :     1.047381
      py      :     0.984364
      dz2     :     0.026318  d :     0.368892
      dxz     :     0.060147
      dyz     :     0.030946
      dx2y2   :     0.101706
      dxy     :     0.149774
      f0      :     0.002891  f :     0.046464
      f+1     :     0.003951
      f-1     :     0.003662
      f+2     :     0.007352
      f-2     :     0.002324
      f+3     :     0.008334
      f-3     :     0.017950

  4 N s       :     2.975886  s :     2.975886
      pz      :     1.192996  p :     3.631632
      px      :     1.108843
      py      :     1.329793
      dz2     :     0.016114  d :     0.200193
      dxz     :     0.043870
      dyz     :     0.011806
      dx2y2   :     0.060106
      dxy     :     0.068296
      f0      :     0.001120  f :     0.018351
      f+1     :     0.001774
      f-1     :     0.000833
      f+2     :     0.000347
      f-2     :     0.003525
      f+3     :     0.006743
      f-3     :     0.004009

  5 C s       :     2.765455  s :     2.765455
      pz      :     0.898743  p :     2.930431
      px      :     1.045496
      py      :     0.986192
      dz2     :     0.027090  d :     0.368868
      dxz     :     0.051498
      dyz     :     0.038748
      dx2y2   :     0.101814
      dxy     :     0.149718
      f0      :     0.002859  f :     0.046459
      f+1     :     0.003942
      f-1     :     0.003732
      f+2     :     0.008830
      f-2     :     0.000813
      f+3     :     0.009996
      f-3     :     0.016287

  6 H s       :     0.789009  s :     0.789009
      pz      :     0.013352  p :     0.060949
      px      :     0.018065
      py      :     0.029532

  7 C s       :     2.698110  s :     2.698110
      pz      :     0.842841  p :     2.789715
      px      :     0.967482
      py      :     0.979393
      dz2     :     0.044286  d :     0.638585
      dxz     :     0.094188
      dyz     :     0.106752
      dx2y2   :     0.200283
      dxy     :     0.193076
      f0      :     0.004775  f :     0.079363
      f+1     :     0.005011
      f-1     :     0.005957
      f+2     :     0.004920
      f-2     :     0.014199
      f+3     :     0.021954
      f-3     :     0.022547

  8 N s       :     2.975884  s :     2.975884
      pz      :     1.192989  p :     3.631630
      px      :     1.108844
      py      :     1.329797
      dz2     :     0.016113  d :     0.200195
      dxz     :     0.043870
      dyz     :     0.011806
      dx2y2   :     0.060108
      dxy     :     0.068297
      f0      :     0.001120  f :     0.018351
      f+1     :     0.001774
      f-1     :     0.000833
      f+2     :     0.000346
      f-2     :     0.003525
      f+3     :     0.006744
      f-3     :     0.004010

  9 C s       :     2.765456  s :     2.765456
      pz      :     0.898741  p :     2.930431
      px      :     1.045495
      py      :     0.986196
      dz2     :     0.027088  d :     0.368867
      dxz     :     0.051496
      dyz     :     0.038748
      dx2y2   :     0.101815
      dxy     :     0.149720
      f0      :     0.002859  f :     0.046459
      f+1     :     0.003943
      f-1     :     0.003731
      f+2     :     0.008830
      f-2     :     0.000813
      f+3     :     0.009996
      f-3     :     0.016288

 10 C s       :     2.751696  s :     2.751696
      pz      :     0.894994  p :     2.924419
      px      :     1.012317
      py      :     1.017108
      dz2     :     0.025261  d :     0.367067
      dxz     :     0.042596
      dyz     :     0.053778
      dx2y2   :     0.095502
      dxy     :     0.149930
      f0      :     0.002975  f :     0.039250
      f+1     :     0.003684
      f-1     :     0.004003
      f+2     :     0.005770
      f-2     :     0.002246
      f+3     :     0.011384
      f-3     :     0.009188

 11 C s       :     2.698123  s :     2.698123
      pz      :     0.842443  p :     2.789698
      px      :     0.980776
      py      :     0.966479
      dz2     :     0.044639  d :     0.638651
      dxz     :     0.088464
      dyz     :     0.112288
      dx2y2   :     0.198373
      dxy     :     0.194886
      f0      :     0.004768  f :     0.079367
      f+1     :     0.004687
      f-1     :     0.006298
      f+2     :     0.007314
      f-2     :     0.011842
      f+3     :     0.014165
      f-3     :     0.030293

 12 N s       :     2.975942  s :     2.975942
      pz      :     1.191077  p :     3.631678
      px      :     1.331068
      py      :     1.109533
      dz2     :     0.016637  d :     0.200157
      dxz     :     0.012085
      dyz     :     0.043359
      dx2y2   :     0.060076
      dxy     :     0.067999
      f0      :     0.001143  f :     0.018346
      f+1     :     0.000879
      f-1     :     0.001726
      f+2     :     0.000374
      f-2     :     0.003472
      f+3     :     0.004024
      f-3     :     0.006729

 13 C s       :     2.765445  s :     2.765445
      pz      :     0.899169  p :     2.930414
      px      :     0.987068
      py      :     1.044177
      dz2     :     0.026797  d :     0.368885
      dxz     :     0.039837
      dyz     :     0.050775
      dx2y2   :     0.102039
      dxy     :     0.149438
      f0      :     0.002862  f :     0.046462
      f+1     :     0.003631
      f-1     :     0.004018
      f+2     :     0.008784
      f-2     :     0.000910
      f+3     :     0.016224
      f-3     :     0.010033

 14 C s       :     2.698096  s :     2.698096
      pz      :     0.842501  p :     2.789732
      px      :     0.980810
      py      :     0.966421
      dz2     :     0.044436  d :     0.638611
      dxz     :     0.108170
      dyz     :     0.092519
      dx2y2   :     0.200295
      dxy     :     0.193191
      f0      :     0.004789  f :     0.079372
      f+1     :     0.006203
      f-1     :     0.004770
      f+2     :     0.004992
      f-2     :     0.014061
      f+3     :     0.022660
      f-3     :     0.021897

 15 C s       :     2.698107  s :     2.698107
      pz      :     0.842826  p :     2.789697
      px      :     0.967537
      py      :     0.979334
      dz2     :     0.044105  d :     0.638690
      dxz     :     0.113965
      dyz     :     0.086917
      dx2y2   :     0.198603
      dxy     :     0.195100
      f0      :     0.004800  f :     0.079377
      f+1     :     0.006360
      f-1     :     0.004594
      f+2     :     0.006989
      f-2     :     0.012032
      f+3     :     0.030447
      f-3     :     0.014154

 16 C s       :     2.698123  s :     2.698123
      pz      :     0.842444  p :     2.789698
      px      :     0.980778
      py      :     0.966477
      dz2     :     0.044639  d :     0.638651
      dxz     :     0.088466
[...]
  0-1A  ->  1-1A    2.379233   19189.8   521.1   0.005932986   0.00078  -0.02388  -0.01430   0.00183
  0-1A  ->  2-1A    2.379410   19191.2   521.1   0.005944586   0.00078   0.01422  -0.02393   0.00213
  0-1A  ->  3-1A    3.365580   27145.2   368.4   1.601481889   0.29711   0.18446  -0.51075   0.04717
  0-1A  ->  4-1A    3.365673   27146.0   368.4   1.600760603   0.29699  -0.51274  -0.18273   0.02646
  0-1A  ->  5-1A    4.275195   34481.8   290.0   0.000000000   0.00000  -0.00000   0.00000  -0.00000
  0-1A  ->  6-1A    4.334446   34959.7   286.0   0.000000002   0.00000   0.00002  -0.00001  -0.00000
  0-1A  ->  7-1A    4.342726   35026.5   285.5   0.029550317   0.00707  -0.08397  -0.00442   0.00187
  0-1A  ->  8-1A    4.343706   35034.4   285.4   0.029515842   0.00707  -0.00458   0.08355  -0.00809
  0-1A  ->  9-1A    4.556324   36749.2   272.1   0.000000000   0.00000  -0.00000  -0.00000  -0.00000
  0-1A  -> 10-1A    4.750097   38312.1   261.0   0.000000000   0.00000  -0.00000   0.00000   0.00000
  0-1A  -> 11-1A    4.893254   39466.8   253.4   0.000000000   0.00000  -0.00000  -0.00000  -0.00001
  0-1A  -> 12-1A    4.893438   39468.2   253.4   0.000000000   0.00000   0.00000   0.00000   0.00001
  0-1A  -> 13-1A    4.945846   39890.9   250.7   0.232894901   0.06350   0.24702   0.04891  -0.00904
  0-1A  -> 14-1A    4.946365   39895.1   250.7   0.232574317   0.06341   0.04954  -0.24578   0.02355
  0-1A  -> 15-1A    5.010552   40412.8   247.4   0.001782614   0.00049  -0.00071  -0.00241  -0.02205
  0-1A  -> 16-1A    5.117736   41277.3   242.3   0.000000406   0.00000   0.00010   0.00032  -0.00005
  0-1A  -> 17-1A    5.131393   41387.5   241.6   0.000000002   0.00000  -0.00002  -0.00000   0.00000
  0-1A  -> 18-1A    5.131679   41389.8   241.6   0.000000003   0.00000   0.00000  -0.00003   0.00000
  0-1A  -> 19-1A    5.264261   42459.1   235.5   0.000000000   0.00000   0.00000  -0.00000   0.00000
  0-1A  -> 20-1A    5.412916   43658.1   229.1   0.000000000   0.00000  -0.00000   0.00000   0.00000
  0-1A  -> 21-1A    5.666663   45704.7   218.8   0.000000000   0.00000  -0.00000  -0.00000  -0.00000
  0-1A  -> 22-1A    5.700579   45978.3   217.5   0.000000000   0.00000   0.00000  -0.00000  -0.00000
  0-1A  -> 23-1A    5.773132   46563.5   214.8   0.000000009   0.00000   0.00002  -0.00003  -0.00004
  0-1A  -> 24-1A    5.865571   47309.0   211.4   0.000000000   0.00000  -0.00000   0.00000  -0.00000
  0-1A  -> 25-1A    5.917005   47723.9   209.5   0.000000001   0.00000   0.00000   0.00000   0.00001
  0-1A  -> 26-1A    5.931181   47838.2   209.0   0.000000508   0.00000  -0.00033  -0.00006   0.00023
  0-1A  -> 27-1A    5.947027   47966.0   208.5   0.003711456   0.00122  -0.00063  -0.00349  -0.03470
  0-1A  -> 28-1A    5.959641   48067.8   208.0   0.000001511   0.00000  -0.00045  -0.00006   0.00054
  0-1A  -> 29-1A    6.527846   52650.6   189.9   0.000000000   0.00000  -0.00000   0.00000  -0.00000
  0-1A  -> 30-1A    6.649619   53632.8   186.5   0.000000000   0.00000  -0.00001  -0.00000  -0.00000

------------------------------------------------------------------------------------------
                     CD SPECTRUM VIA TRANSITION ELECTRIC DIPOLE MOMENTS    
------------------------------------------------------------------------------------------
     Transition      Energy     Energy  Wavelength    R        MX        MY        MZ   
                      (eV)      (cm-1)    (nm)   (1e40*cgs)   (au)      (au)      (au)  
------------------------------------------------------------------------------------------
  0-1A  ->  1-1A    2.379233   19189.8   521.1    0.00067  -0.00000  -0.00000   0.00002
  0-1A  ->  2-1A    2.379410   19191.2   521.1   -0.00045  -0.00001   0.00000   0.00001
  0-1A  ->  3-1A    3.365580   27145.2   368.4   -0.00027   0.00001   0.00000   0.00000
  0-1A  ->  4-1A    3.365673   27146.0   368.4   -0.00528   0.00000   0.00001  -0.00000
  0-1A  ->  5-1A    4.275195   34481.8   290.0   -0.00094   0.01946   0.11427   1.15865
  0-1A  ->  6-1A    4.334446   34959.7   286.0    0.00004  -0.00006  -0.00042  -0.00828
  0-1A  ->  7-1A    4.342726   35026.5   285.5    0.00218  -0.00001  -0.00004   0.00000
  0-1A  ->  8-1A    4.343706   35034.4   285.4   -0.00219  -0.00000  -0.00001  -0.00000
  0-1A  ->  9-1A    4.556324   36749.2   272.1   -0.00000   0.00012   0.00016   0.00016
  0-1A  -> 10-1A    4.750097   38312.1   261.0    0.00002  -0.00029   0.00016   0.00116
  0-1A  -> 11-1A    4.893254   39466.8   253.4   -0.00000   0.00017   0.00055  -0.00009
  0-1A  -> 12-1A    4.893438   39468.2   253.4    0.00000  -0.00013  -0.00008   0.00006
  0-1A  -> 13-1A    4.945846   39890.9   250.7    0.01330   0.00001   0.00007   0.00000
  0-1A  -> 14-1A    4.946365   39895.1   250.7   -0.01387  -0.00008   0.00001   0.00000
  0-1A  -> 15-1A    5.010552   40412.8   247.4    0.00013   0.00000   0.00000  -0.00000
  0-1A  -> 16-1A    5.117736   41277.3   242.3   -0.00000   0.00000  -0.00000   0.00001
  0-1A  -> 17-1A    5.131393   41387.5   241.6    0.00626  -0.11528   0.28697  -0.02722
  0-1A  -> 18-1A    5.131679   41389.8   241.6   -0.00535   0.28837   0.11426  -0.01565
  0-1A  -> 19-1A    5.264261   42459.1   235.5    0.00012  -0.00902  -0.05677  -0.56880
  0-1A  -> 20-1A    5.412916   43658.1   229.1   -0.00000  -0.00006  -0.00023  -0.00133
  0-1A  -> 21-1A    5.666663   45704.7   218.8    0.00001   0.00005   0.00004  -0.00107
  0-1A  -> 22-1A    5.700579   45978.3   217.5    0.00000   0.00036  -0.00041  -0.00014
  0-1A  -> 23-1A    5.773132   46563.5   214.8    0.00000  -0.00000  -0.00000  -0.00002
  0-1A  -> 24-1A    5.865571   47309.0   211.4   -0.00019  -0.00954  -0.05911  -0.60454
  0-1A  -> 25-1A    5.917005   47723.9   209.5    0.00002  -0.00021  -0.00074   0.00103
  0-1A  -> 26-1A    5.931181   47838.2   209.0   -0.00002   0.00000  -0.00001  -0.00006
  0-1A  -> 27-1A    5.947027   47966.0   208.5   -0.00049   0.00000   0.00000   0.00001
  0-1A  -> 28-1A    5.959641   48067.8   208.0   -0.00000  -0.00000  -0.00000  -0.00000
  0-1A  -> 29-1A    6.527846   52650.6   189.9    0.00000  -0.00088   0.00019  -0.00007
  0-1A  -> 30-1A    6.649619   53632.8   186.5   -0.00000  -0.00022  -0.00014   0.00112

------------------------------------------------------------------------------------------
                     CD SPECTRUM VIA TRANSITION VELOCITY DIPOLE MOMENTS    
------------------------------------------------------------------------------------------
     Transition      Energy     Energy  Wavelength    R        MX        MY        MZ   
                      (eV)      (cm-1)    (nm)   (1e40*cgs)   (au)      (au)      (au)  
------------------------------------------------------------------------------------------
  0-1A  ->  1-1A    2.379233   19189.8   521.1    0.00068  -0.00000  -0.00000   0.00002
  0-1A  ->  2-1A    2.379410   19191.2   521.1   -0.00046  -0.00001   0.00000   0.00001
  0-1A  ->  3-1A    3.365580   27145.2   368.4   -0.00028   0.00001   0.00000   0.00000
  0-1A  ->  4-1A    3.365673   27146.0   368.4   -0.00545   0.00000   0.00001  -0.00000
  0-1A  ->  5-1A    4.275195   34481.8   290.0    0.00027   0.01946   0.11427   1.15865
  0-1A  ->  6-1A    4.334446   34959.7   286.0    0.00004  -0.00006  -0.00042  -0.00828
  0-1A  ->  7-1A    4.342726   35026.5   285.5    0.00227  -0.00001  -0.00004   0.00000
  0-1A  ->  8-1A    4.343706   35034.4   285.4   -0.00228  -0.00000  -0.00001  -0.00000
  0-1A  ->  9-1A    4.556324   36749.2   272.1   -0.00000   0.00012   0.00016   0.00016
  0-1A  -> 10-1A    4.750097   38312.1   261.0    0.00002  -0.00029   0.00016   0.00116
  0-1A  -> 11-1A    4.893254   39466.8   253.4   -0.00000   0.00017   0.00055  -0.00009
  0-1A  -> 12-1A    4.893438   39468.2   253.4    0.00000  -0.00013  -0.00008   0.00006
  0-1A  -> 13-1A    4.945846   39890.9   250.7    0.01374   0.00001   0.00007   0.00000
  0-1A  -> 14-1A    4.946365   39895.1   250.7   -0.01433  -0.00008   0.00001   0.00000
  0-1A  -> 15-1A    5.010552   40412.8   247.4    0.00014   0.00000   0.00000  -0.00000
  0-1A  -> 16-1A    5.117736   41277.3   242.3   -0.00000   0.00000  -0.00000   0.00001
  0-1A  -> 17-1A    5.131393   41387.5   241.6    0.00652  -0.11528   0.28697  -0.02722
  0-1A  -> 18-1A    5.131679   41389.8   241.6   -0.00508   0.28837   0.11426  -0.01565
  0-1A  -> 19-1A    5.264261   42459.1   235.5   -0.00011  -0.00902  -0.05677  -0.56880
  0-1A  -> 20-1A    5.412916   43658.1   229.1   -0.00000  -0.00006  -0.00023  -0.00133
  0-1A  -> 21-1A    5.666663   45704.7   218.8    0.00001   0.00005   0.00004  -0.00107
  0-1A  -> 22-1A    5.700579   45978.3   217.5    0.00000   0.00036  -0.00041  -0.00014
  0-1A  -> 23-1A    5.773132   46563.5   214.8    0.00000  -0.00000  -0.00000  -0.00002
  0-1A  -> 24-1A    5.865571   47309.0   211.4    0.00006  -0.00954  -0.05911  -0.60454
  0-1A  -> 25-1A    5.917005   47723.9   209.5    0.00003  -0.00021  -0.00074   0.00103
  0-1A  -> 26-1A    5.931181   47838.2   209.0   -0.00003   0.00000  -0.00001  -0.00006
  0-1A  -> 27-1A    5.947027   47966.0   208.5   -0.00061   0.00000   0.00000   0.00001
  0-1A  -> 28-1A    5.959641   48067.8   208.0   -0.00000  -0.00000  -0.00000  -0.00000
  0-1A  -> 29-1A    6.527846   52650.6   189.9    0.00000  -0.00088   0.00019  -0.00007
  0-1A  -> 30-1A    6.649619   53632.8   186.5   -0.00000  -0.00022  -0.00014   0.00112

Total run time:     8182.144 sec

           *** ORCA-CIS/TD-DFT FINISHED WITHOUT ERROR ***
-----------------------
CIS/TD-DFT TOTAL ENERGY
-----------------------

    E(SCF)  =  -1188.551273773 Eh
    DE(CIS) =      0.087435218 Eh (Root  1)
    ----------------------------- ---------
    E(tot)  =  -1188.463838554 Eh


Maximum memory used throughout the entire CIS-calculation: 2717.8 MB
=> NOW LEAVING ORCA_CIS

-------------------------   --------------------
FINAL SINGLE POINT ENERGY     -1188.463838554494
-------------------------   --------------------



           ************************************************************
           *        Program running with 4 parallel MPI-processes     *
           *              working on a common directory               *
           ************************************************************

------------------------------------------------------------------------------
                              ORCA PROPERTY CALCULATIONS
------------------------------------------------------------------------------

GBWName                                 ... tddft.gbw
Number of atoms                         ...     37
Number of basis functions               ...    848
Max core memory                         ...   3000 MB

Electric properties:
Dipole moment                           ... YES
Quadrupole moment                       ...  NO
Static polarizability (Dipole/Dipole)   ...  NO
Static polarizability (Dipole/Quad.)    ...  NO
Static polarizability (Quad./Quad.)     ...  NO
Static polarizability (Velocity)        ...  NO
Static hyperpolarizability              ...  NO

Atomic electric properties:
Dipole moment                           ...  NO
Quadrupole moment                       ...  NO
Static polarizability                   ...  NO

Choice of electric origin               ... Center of mass
Position of electric origin             ...    -0.158818     5.090151     6.572142

General magnetic properties:
Magnetizability                         ...  NO

EPR properties:
g-Tensor (aka g-matrix)                 ...  NO
Zero-Field splitting spin-orbit         ...  NO
Zero-field splitting spin-spin          ...  NO
Hyperfine couplings                     ...  NO (   0 nuclei)
Quadrupole couplings                    ...  NO (   0 nuclei)
Contact density                         ...  NO (   0 nuclei)

NMR properties:
Chemical shifts                         ...  NO (   0 nuclei)
Spin-rotation constants                 ...  NO (   0 nuclei)
Spin-spin couplings                     ...  NO (   0 nuclei,    0 pairs)

Choice of magnetic origin               ... GIAO
Position of magnetic origin             ...     0.000000     0.000000     0.000000

Properties with geometric perturbations:
SCF Hessian                             ...  NO
IR spectrum                             ...  NO
VCD spectrum                            ...  NO
X-ray spectroscopy properties:
SCF XES/XAS/RIXS spectra                ...  NO

SCF SOC stabilization energy            ...  NO
Diagonal Born-Oppenheimer correction    ...  NO

-------------
DIPOLE MOMENT
-------------

Method             : SCF
Type of density    : Electron Density
Multiplicity       :   1
Irrep              :   0
Energy             : -1188.5512737728627144 Eh
Basis              : AO
                                X                 Y                 Z
Electronic contribution:      0.000009469      -0.000031687      -0.000423077
Nuclear contribution   :     -0.000008108       0.000042856       0.000532868
                        -----------------------------------------
Total Dipole Moment    :      0.000001361       0.000011169       0.000109792
                        -----------------------------------------
Magnitude (a.u.)       :      0.000110367
Magnitude (Debye)      :      0.000280530



--------------------
Rotational spectrum 
--------------------
 
Rotational constants in cm-1:             0.008916             0.008916             0.004458 
Rotational constants in MHz :           267.307767           267.296540           133.651083 

Dipole components along the rotational axes: 
x,y,z [a.u.] :     0.000000    -0.000000     0.000110 
x,y,z [Debye]:     0.000001    -0.000001     0.000281 

 

Dipole moment calculation done in   0.1 sec 

Maximum memory used throughout the entire PROP-calculation: 86.1 MB

--------------------------------
SUGGESTED CITATIONS FOR THIS RUN
--------------------------------

Below you find a list of papers that are relevant to this ORCA run
We neither can nor want to force you to cite these papers, but we appreciate if you do
You receive ORCA, which is the product of decades of hard work by many enthusiastic individuals, for free
The only thing we kindly ask in return is that you cite our papers,
We deeply appreciate it, if you show your appreciation for ORCA by not just citing the generic ORCA reference.

Please note that relegating all ORCA citations to the supporting information does *not* help us.
SI sections are not indexed - citations you put there will not count into any citation statistics
But we need these citations in order to attract the funding resources that allow us to do what we are doing

Therefore, if you are a happy ORCA user, please consider citing a few of the papers listed below in the main body of your paper

In addition to the list printed below, the program has created the file tddft.bibtex that contains the list in bibtex format
You can import this file easily into all common literature databanks and citation aid programs

It goes without saying that in many instances, there are alternative algorithms to achieve similar
results as the ones you have gotten from ORCA. It is, of course, also the case that in some instances
ORCA just re-implements algorithms worked out by others. We are fully aware of that and we are also
fully appreciative of our colleagues work. Hence this citation list should not be read as indicating
that the listed papers, which are focused on our own work, are the only ones worth citing. It simply
meant to make it easier for users to cite ORCA specific papers. It is not a substitute for doing your
own literature research and citing the relevant literature in a scientifically appropriate manner.

List of essential papers. We consider these as the minimum necessary citations

  1. Neese, F.
     Software update: the ORCA program system, version 6.0
     WIRES Comput. Molec. Sci. 2025 15(1), e70019
     doi.org/10.1002/wcms.70019

List of papers to cite with high priority. The work reported in these papers was absolutely
necessary for this run to complete.
Our perspective: the developers of density functionals and basis sets usually get cited in chemistry papers
Good! But without the algorithms to do something with them, the functionals or basis sets would not do anything.
Hence, in our opinion, the algorithm design and method developments papers are equally worthy of getting cited

  1. Neese, F.; Olbrich, G.
     Efficient use of the resolution of the identity approximation in time-dependent density functional calculations with hybrid density functionals
     Chem. Phys. Lett. 2002 362 , 170-178
     doi.org/10.1016/s0009-2614(02)01053-9
  2. Neese, F.
     An improvement of the resolution of the identity approximation for the formation of the Coulomb matrix
     J. Comp. Chem. 2003 24(14), 1740-1747
     doi.org/10.1002/jcc.10318
  3. Neese, F.; Wennmohs, F.; Hansen, A.; Becker, U.
     Efficient, approximate and parallel Hartree-Fock and hybrid DFT calculations. A 'chain-of-spheres' algorithm for the Hartree-Fock exchange
     Chem. Phys. 2009 356(1-3), 98-109
     doi.org/10.1016/j.chemphys.2008.10.036
  4. Garcia-Rates, M.; Neese, F.
     Effect of the Solute Cavity on the Solvation Energy and its Derivatives within the Framework of the Gaussian Charge Scheme
     J. Comput. Chem. 2020 41 , 922-939
     doi.org/10.1002/jcc.26139
  5. Helmich-Paris, B.; de Souza, B.; Neese, F.; Izsák, R.
     An improved chain of spheres for exchange algorithm
     J. Chem. Phys. 2021 155(10), 104109
     doi.org/10.1063/5.0058766
  6. Neese, F.
     The SHARK Integral Generation and Digestion System
     J. Comp. Chem. 2022 44(3), 381
     doi.org/10.1002/jcc.26942

List of suggested additional citations. These are papers that are important in the 'surrounding' of 
of this run, or papers that preceded the highly important papers. If you like your results we are grateful for a citation.

  1. Izsak, R.; Neese, F.
     An overlap fitted chain of spheres exchange method
     J. Chem. Phys. 2011 135 , 144105
     doi.org/10.1063/1.3646921
  2. Izsak, R.; Hansen, A.; Neese, F.
     The resolution of identity and chain of spheres approximations for the LPNO-CCSD singles Fock term
     Molec. Phys. 2012 110 , 2413-2417
     doi.org/10.1080/00268976.2012.687466
  3. Neese, F.
     The ORCA program system
     WIRES Comput. Molec. Sci. 2012 2(1), 73-78
     doi.org/10.1002/wcms.81
  4. Izsak, R.; Neese, F.; Klopper, W.
     Robust fitting techniques in the chain of spheres approximation to the Fock exchange: The role of the complementary space
     J. Chem. Phys. 2013 139 , 
     doi.org/10.1063/1.4819264
  5. Neese, F.
     Software update: the ORCA program system, version 4.0
     WIRES Comput. Molec. Sci. 2018 8(1), 1-6
     doi.org/10.1002/wcms.1327
  6. Neese, F.; Wennmohs, F.; Becker, U.; Riplinger, C.
     The ORCA quantum chemistry program package
     J. Chem. Phys. 2020 152(22), 224108
     doi.org/10.1063/5.0004608
  7. Neese, F.
     Software update: The ORCA program system—Version 5.0
     WIRES Comput. Molec. Sci. 2022 12(1), e1606
     doi.org/10.1002/wcms.1606

List of optional additional citations

  1. Neese, F.
     Approximate second-order SCF convergence for spin unrestricted wavefunctions
     Chem. Phys. Lett. 2000 325(1-3), 93-98
     doi.org/10.1016/s0009-2614(00)00662-x

Timings for individual modules:

Sum of individual times          ...     9241.804 sec (= 154.030 min)
Startup calculation              ...       16.066 sec (=   0.268 min)   0.2 %
SCF iterations                   ...     1040.489 sec (=  17.341 min)  11.3 %
Property integrals               ...        0.974 sec (=   0.016 min)   0.0 %
Property calculations            ...        1.742 sec (=   0.029 min)   0.0 %
CIS module                       ...     8182.533 sec (= 136.376 min)  88.5 %
                             ****ORCA TERMINATED NORMALLY****
TOTAL RUN TIME: 0 days 2 hours 34 minutes 2 seconds 676 msec
