
                                 *****************
                                 * O   R   C   A *
                                 *****************

                                            #,                                       
                                            ###                                      
                                            ####                                     
                                            #####                                    
                                            ######                                   
                                           ########,                                 
                                     ,,################,,,,,                         
                               ,,#################################,,                 
                          ,,##########################################,,             
                       ,#########################################, ''#####,          
                    ,#############################################,,   '####,        
                  ,##################################################,,,,####,       
                ,###########''''           ''''###############################       
              ,#####''   ,,,,##########,,,,          '''####'''          '####       
            ,##' ,,,,###########################,,,                        '##       
           ' ,,###''''                  '''############,,,                           
         ,,##''                                '''############,,,,        ,,,,,,###''
      ,#''                                            '''#######################'''  
     '                                                          ''''####''''         
             ,#######,   #######,   ,#######,      ##                                
            ,#'     '#,  ##    ##  ,#'     '#,    #''#        ,####,    ,#,          
            ##       ##  ##   ,#'  ##            #'  '#       #'       ,# #          
            ##       ##  #######   ##           ,######,      #####,      #          
            '#,     ,#'  ##    ##  '#,     ,#' ,#      #,     #,   #      #          
             '#######'   ##     ##  '#######'  #'      '#     '####' #    #          



                #########################################################
                #                        -***-                          #
                #          Department of theory and spectroscopy        #
                #                                                       #
                #                      Frank Neese                      #
                #                                                       #
                #     Directorship, Architecture, Infrastructure        #
                #                    SHARK, DRIVERS                     #
                #        Core code/Algorithms in most modules           #
                #                                                       #
                #        Max Planck Institute fuer Kohlenforschung      #
                #                Kaiser Wilhelm Platz 1                 #
                #                 D-45470 Muelheim/Ruhr                 #
                #                      Germany                          #
                #                                                       #
                #                  All rights reserved                  #
                #                        -***-                          #
                #########################################################


                         Program Version 6.1.1  -  RELEASE   -
                                (GIT: $487d211c$)
                          ($2025-11-21 10:33:24 +0100$)


 With contributions from (in alphabetic order):
[Max-Planck-Institut fuer Kohlenforschung]                               
  Daniel Aravena         : Magnetic Suceptibility                        
  Michael Atanasov       : Ab Initio Ligand Field Theory (pilot matlab implementation)
  Alexander A. Auer      : GIAO ZORA, VPT2 properties, NMR spectrum      
  Ute Becker             : All parallelization in ORCA, NUMFREQ, NUMCALC 
  Giovanni Bistoni       : ED, misc. LED, open-shell LED, HFLD           
  Dmytro Bykov           : pre 5.0 version of the SCF Hessian            
  Marcos Casanova-Páez   : Triplet and SCS-CIS(D). UHF-(DLPNO)-IP/EA/STEOM-CCSD. UHF-CVS-IP/STEOM-CCSD   
  Vijay G. Chilkuri      : MRCI spin determinant printing, contributions to CSF-ICE 
  Pauline Colinet        : FMM embedding                                 
  Dipayan Datta          : RHF DLPNO-CCSD density                        
  Achintya Kumar Dutta   : EOM-CC, STEOM-CC                              
  Nicolas Foglia         : Exact transition moments, OPA infrastructure, MCD improvements    
  Dmitry Ganyushin       : Spin-Orbit,Spin-Spin,Magnetic field MRCI      
  Miquel Garcia-Rates    : C-PCM and meta-GGA Hessian, CCSD/C-PCM, Gaussian charge scheme 
  Tiago L. C. Gouveia    : GS-ROHF, GS-ROCIS                             
  Yang Guo               : DLPNO-NEVPT2, F12-NEVPT2, CIM, IAO-localization        
  Andreas Hansen         : Spin unrestricted coupled pair/coupled cluster methods 
  Ingolf Harden          : AUTO-CI MPn and infrastructure                
  Benjamin Helmich-Paris : MC-RPA, TRAH-(SCF,CASSCF), AVAS, COSX integrals, SCF dyn. polar., MC-PDFT, srDFT 
  Lee Huntington         : MR-EOM, pCC                                   
  Robert Izsak           : Overlap fitted RIJCOSX, COSX-SCS-MP3, EOM     
  Riya Kayal             : Wick's Theorem for AUTO-CI, AUTO-CI UHF-CCSDT 
  Emily Kempfer          : AUTO-CI RHF CISDT and CCSDT, approximate NEVPT4
  Christian Kollmar      : KDIIS, OOCD, Brueckner-CCSD(T), CCSD density, CASPT2, CASPT2-K, improved NEVPT2 
  Axel Koslowski         : Symmetry handling                             
  Simone Kossmann        : meta-GGA functionals, TD-DFT gradient, OOMP2, (MP2 Hessian; deprecated post 5.0) 
  Lucas Lang             : DCDCAS, Hyperfine gauge corrections, ICE-SOC+SSC
  Marvin Lechner         : AUTO-CI (C++ implementation), FIC-MRCC        
  Spencer Leger          : CASSCF response                               
  Dagmar Lenk            : GEPOL surface, SMD, ORCA-2-JSON               
  Dimitrios Liakos       : Extrapolation schemes; Compound Job, Property file
  Dimitrios Manganas     : Further ROCIS development; embedding schemes. LFT, Crystal Embedding 
  Dimitrios Pantazis     : SARC Basis sets                               
  Anastasios Papadopoulos: AUTO-CI, single reference methods and gradients 
  Taras Petrenko         : pre 6.0 DFT Hessian and TD-DFT gradient,  ECA, NRVS 
  Petra Pikulova         : Analytic Raman intensities                    
  Peter Pinski           : DLPNO-MP2, DLPNO-MP2 Gradient                 
  Shashank Vittal Rao    : ES-AILFT, MagRelax                            
  Christoph Reimann      : Effective Core Potentials                     
  Marius Retegan         : Local ZFS, SOC                                
  Christoph Riplinger    : Optimizer, TS searches, QM/MM, DLPNO-CCSD(T), (RO)-DLPNO pert. Triples 
  Michael Roemelt        : Original ROCIS implementation, recursive CI coupling coefficients
  Masaaki Saitow         : Open-shell DLPNO-CCSD energy and density      
  Barbara Sandhoefer     : DKH picture change effects                    
  Yorick L. A. Schmerwitz: GMF and freeze-and-release deltaSCF, NEB S-IDPP initial path                    
  Kantharuban Sivalingam : CASSCF convergence/infrastructure, NEVPT2, NEVPT3, NEVPT4(SD), FIC-MRCI and CEPA variants
  Bernardo de Souza      : ESD, SOC TD-DFT                               
  Georgi L. Stoychev     : AutoAux, RI-MP2 NMR, DLPNO-MP2 response, X2C  
  Van Anh Tran           : RI-MP2 g-tensors                              
  Willem Van den Heuvel  : Paramagnetic NMR                              
  Zikuan Wang            : NOTCH, Electric field optimization            
  Frank Wennmohs         : Technical directorship and infrastructure     
  Hang Xu                : AUTO-CI-Response properties                   
                                                                         
[FACCTs GmbH]                                                            
  Markus Bursch, Nicolas Foglia, Miquel Garcia-Rates, Ingolf Harden, Hagen Neugebauer, Anastasios Papadopoulos, 
  Christoph Riplinger, Bernardo de Souza, Georgi L. Stoychev                                                    
                                                                 
  APM, various basis sets, CI-OPT, improved COSX, DLPNO-Multilevel,           
  DOCKER, DRACO, updates on ESD, Fragmentator, GOAT, IRC, LR-CPCM, L-BFGS, MBIS, meta-GGA TD-DFT gradient, ML-optimized integration grids, 
  MM, NACMEs, nearIR, NEB, NEB-TS, NL-DFT gradient (VV10), 2- and 3-layer-ONIOM, interface openCOSMO-RS, QMMM,   
  Crystal-QMMM, RESP, rigid body optimization, SF, symmetry and pop. for TD-DFT, various functionals, SOLVATOR                                   
                                                                         
[Other institutions]                                                     
  V. Asgeirsson          : NEB                                           
  Christoph Bannwarth    : sTDA-DFT, sTD-DFT, PBEh-3c, B97-3c, D3        
  Giovanni Bistoni       : ETS/NOCV, ADLD/ADEX, COVALED                  
  Martin Brehm           : Molecular dynamics                            
  Ronald Cardenas        : ETS/NOCV                                      
  Martina Colucci        : COVALED                                       
  Sebastian Ehlert       : rSCAN, r2SCAN, r2SCAN-3c, D4, dhf basis sets  
  Marvin Friede          : D4 for Fr, Ra, Ac-Lr                          
  Lars Goerigk           : TD-DFT with DH, B97 family of functionals     
  Stefan Grimme          : VdW corrections, initial TS optimization, DFT functionals, gCP, sTDA/sTD-DF 
  Waldemar Hujo          : DFT-NL                                        
  H. Jonsson             : NEB                                           
  Holger Kruse           : gCP                                           
  Marcel Mueller         : wB97X-3c, vDZP basis set                      
  Hagen Neugebauer       : wr2SCAN, Native XTB                           
  Gianluca Regni         : ADLD/ADEX                                     
  Tobias Risthaus        : pre 6.0 range-separated hybrid DFT and stability analysis
  Lukas Wittmann         : regularized MP2, r2SCAN double-hybrids, wr2SCAN        
                                                                         
We gratefully acknowledge several colleagues who have allowed us to      
interface, adapt or use parts of their codes:                            
  Ed Valeev, F. Pavosevic, A. Kumar             : LibInt (2-el integral package), F12 methods 
  Garnet Chan, S. Sharma, J. Yang, R. Olivares  : DMRG                   
  Ulf Ekstrom                                   : XCFun DFT Library      
  Mihaly Kallay                                 : mrcc  (arbitrary order and MRCC methods)
  Frank Weinhold                                : gennbo (NPA and NBO analysis)           
  Simon Mueller                                 : openCOSMO-RS                            
  Christopher J. Cramer and Donald G. Truhlar   : smd solvation model                     
  S Lehtola, MJT Oliveira, MAL Marques          : LibXC Library                           
  Liviu Ungur et al                             : ANISO software                          


 Your calculation uses the libint2 library for the computation of 2-el integrals
 For citations please refer to: http://libint.valeyev.net

 Your ORCA version has been built with support for libXC version: 7.0.0
 For citations please refer to: https://libxc.gitlab.io

 This ORCA versions uses:
   CBLAS   interface :  Fast vector & matrix operations
   LAPACKE interface :  Fast linear algebra routines
   SCALAPACK package :  Parallel linear algebra routines
   Shared memory     :  Shared parallel matrices
   BLAS/LAPACK       :  OpenBLAS 0.3.29  USE64BITINT DYNAMIC_ARCH NO_AFFINITY Haswell SINGLE_THREADED
        Core in use  :  Haswell
   Copyright (c) 2011-2014, The OpenBLAS Project


  ***********************************
  * Starting time: Sun Jul  5 20:36:01 2026
  * Host name:     steezy
  * Process ID:    1294989
  * Working dir.:  /home/jannes/chlorophyll-ladder/007-mg-core-ladder/mgporphin/03_tddft_ch2cl2/pbe0
  ***********************************

NOTE: MaxCore=3000 MB was set to SCF,MP2,MDCI,CIPSI,MRCI,RASCI and CIS
      => If you want to overwrite this, your respective input block should be placed after the MaxCore statement


***************************************
The coordinates will be read from file: /home/jannes/chlorophyll-ladder/007-mg-core-ladder/mgporphin/01_opt/mgporphin_opt_b3lypd4_tzvp.xyz
***************************************


================================================================================

----- Orbital basis set information -----
Your calculation utilizes the basis: def2-TZVP
   F. Weigend and R. Ahlrichs, Phys. Chem. Chem. Phys. 7, 3297 (2005).

----- AuxJ basis set information -----
Your calculation utilizes the auxiliary basis: def2/J
   H-Rn: F. Weigend, Phys. Chem. Chem. Phys. 8, 1057 (2006).
   Fr-Lr: K. Eichkorn, F. Weigend, O. Treutler, R. Ahlrichs; Theor. Chem. Acc. 97, 119 (1997).

================================================================================
                                        WARNINGS
                       Please study these warnings very carefully!
================================================================================


WARNING: CIS/ROCIS methods need fully converged wavefunctions
  ===> : Setting SCFConvForced true
         You can overwrite this default with %scf ConvForced false 


================================================================================
                                       INPUT FILE
================================================================================
NAME = tddft.inp
|  1> %pal nprocs 4 end
|  2> %maxcore 3000
|  3> ! PBE0 def2-TZVP def2/J RIJCOSX DefGrid3 TightSCF CPCM(CH2Cl2)
|  4> %tddft
|  5>   nroots 30
|  6>   tda false
|  7>   triplets false
|  8> end
|  9> * xyzfile 0 1 /home/jannes/chlorophyll-ladder/007-mg-core-ladder/mgporphin/01_opt/mgporphin_opt_b3lypd4_tzvp.xyz
| 10> 
| 11>                          ****END OF INPUT****
================================================================================

                       ****************************
                       * Single Point Calculation *
                       ****************************

---------------------------------
CARTESIAN COORDINATES (ANGSTROEM)
---------------------------------
  N     -2.126632    2.522518    3.528336
  H      1.688951   -2.244306    3.936854
  C     -4.367453    3.014298    3.517091
  C     -0.399300   -1.569210    3.904114
  N      0.091157    0.660020    3.674254
  C      0.955251   -1.456037    3.870452
  H     -0.988023   -2.467894    4.003531
  C      2.861647    1.841375    3.512926
  N     -0.259245    4.727154    3.281236
  C     -1.123334    6.843238    3.085343
  C      2.534867    0.494152    3.650974
  C      2.674027    4.023168    3.301567
  N      1.958546    2.864658    3.427339
  C      4.083452    3.721259    3.307939
  C     -0.935449   -0.237004    3.780431
  C      1.256233   -0.053833    3.726030
  C     -2.842123    1.364011    3.654087
  C     -3.029725    3.545804    3.442713
  C     -4.251542    1.665928    3.647704
  C     -2.289528    0.090486    3.770544
  C     -2.702948    4.893026    3.304662
  C      4.199367    2.372883    3.438500
  C     -1.424318    5.441018    3.229591
  C      0.231221    6.956420    3.051755
  C      2.121440    5.296697    3.185130
  C      0.767360    5.624187    3.175204
  H     -5.271397    3.601806    3.474297
  H     -5.042401    0.936910    3.732428
  H     -2.986818   -0.732582    3.863624
  H      3.363051   -0.201104    3.706153
  H      5.103317    1.785376    3.481270
  H      4.874295    4.450291    3.223211
  H      2.818737    6.119763    3.092108
  H      0.819955    7.855111    2.952489
  H     -3.531147    5.588265    3.249501
  H     -1.857042    7.631509    3.019026
  Mg    -0.084042    2.693585    3.477789

----------------------------
CARTESIAN COORDINATES (A.U.)
----------------------------
  NO LB      ZA    FRAG     MASS         X           Y           Z
   0 N     7.0000    0    14.007   -4.018753    4.766868    6.667589
   1 H     1.0000    0     1.008    3.191655   -4.241124    7.439576
   2 C     6.0000    0    12.011   -8.253290    5.696197    6.646338
   3 C     6.0000    0    12.011   -0.754567   -2.965378    7.377707
   4 N     7.0000    0    14.007    0.172263    1.247257    6.943333
   5 C     6.0000    0    12.011    1.805164   -2.751510    7.314095
   6 H     1.0000    0     1.008   -1.867093   -4.663643    7.565577
   7 C     6.0000    0    12.011    5.407728    3.479694    6.638469
   8 N     7.0000    0    14.007   -0.489901    8.933026    6.200637
   9 C     6.0000    0    12.011   -2.122794   12.931846    5.830453
  10 C     6.0000    0    12.011    4.790204    0.933812    6.899342
  11 C     6.0000    0    12.011    5.053178    7.602686    6.239058
  12 N     7.0000    0    14.007    3.701116    5.413420    6.476731
  13 C     6.0000    0    12.011    7.716607    7.032160    6.251099
  14 C     6.0000    0    12.011   -1.767742   -0.447872    7.143980
  15 C     6.0000    0    12.011    2.373936   -0.101729    7.041177
  16 C     6.0000    0    12.011   -5.370834    2.577607    6.905224
  17 C     6.0000    0    12.011   -5.725351    6.700598    6.505785
  18 C     6.0000    0    12.011   -8.034249    3.148147    6.893162
  19 C     6.0000    0    12.011   -4.326581    0.170994    7.125295
  20 C     6.0000    0    12.011   -5.107832    9.246479    6.244906
  21 C     6.0000    0    12.011    7.935654    4.484099    6.497823
  22 C     6.0000    0    12.011   -2.691571   10.282033    6.103042
  23 C     6.0000    0    12.011    0.436944   13.145729    5.766981
  24 C     6.0000    0    12.011    4.008940   10.009307    6.019023
  25 C     6.0000    0    12.011    1.450100   10.628173    6.000267
  26 H     1.0000    0     1.008   -9.961497    6.806428    6.565470
  27 H     1.0000    0     1.008   -9.528758    1.770503    7.053266
  28 H     1.0000    0     1.008   -5.644268   -1.384379    7.301191
  29 H     1.0000    0     1.008    6.355246   -0.380031    7.003613
  30 H     1.0000    0     1.008    9.643871    3.373872    6.578646
  31 H     1.0000    0     1.008    9.211083    8.409831    6.090987
  32 H     1.0000    0     1.008    5.326641   11.564676    5.843236
  33 H     1.0000    0     1.008    1.549490   14.844008    5.579396
  34 H     1.0000    0     1.008   -6.672901   10.560290    6.140667
  35 H     1.0000    0     1.008   -3.509300   14.421462    5.705132
  36 Mg   12.0000    0    24.305   -0.158817    5.090138    6.572068

--------------------------------
INTERNAL COORDINATES (ANGSTROEM)
--------------------------------
 N      0   0   0     0.000000000000     0.00000000     0.00000000
 H      1   0   0     6.119491276487     0.00000000     0.00000000
 C      1   2   0     2.294177409054   140.92453006     0.00000000
 C      2   1   3     2.194906869500    33.50915004     0.03654954
 N      4   2   1     2.294090550086    95.56469348     0.04751811
 C      2   1   3     1.078931462307     4.27284844     0.40083788
 H      4   2   1     1.078939583961   105.16341269   180.06430126
 C      5   4   2     3.016162461030   125.61516112   359.95655471
 N      1   2   6     2.899761601367   101.32570715   180.34880946
 C      9   1   2     2.294087441504   117.77531267   179.96469761
 C      8   5   4     1.393144250589    53.16437800     0.06876310
 C      8   5   4     2.200021689544   108.37491839   180.08468447
 N     12   8   5     1.367433868161    36.44673543     0.00000000
 C     12   8   5     1.441412676383    73.05033634   180.01204037
 C      5   4   2     1.367422885977    36.31868910   180.00102268
 C      5   4   2     1.367357644410    70.79572404     0.00000000
 C      1   2   6     1.367434647900    70.13306991     0.35586623
 C      1   2   6     1.367487791728   177.24111910     0.97900926
 C      3   1   2     1.359631242567    72.76301102   359.95357395
 C     17   1   2     1.393122060686   125.07310744     0.00000000
 C     18   1  17     1.393143327356   125.09478022   180.00966439
 C     14  12   8     1.359631880754   106.94820236     0.00000000
 C      9   1   2     1.367356903781    81.45605938   180.00111785
 C     10   9   1     1.359689963047    72.76177076   180.05889371
 C     12   8   5     1.393121008199   161.52060847   359.96153148
 C      9   1   2     1.367416327023   171.42924741     0.34052806
 H      3   1   2     1.078940742119   159.26701397   179.95498931
 H     19   3   1     1.078936604777   127.96204490   180.00155066
 H     20  17   1     1.082736356593   116.52889429   179.96077396
 H     11   8   5     1.082734663195   116.52549896   180.00584317
 H     22  14  12     1.078943065563   127.96985474   179.99900777
 H     14  12   8     1.078934265943   125.08876244   180.00062158
 H     25  12   8     1.082734522723   116.52871416   180.07456094
 H     24  10   9     1.078937518569   127.96698994   179.97965206
 H     21  18   1     1.082734010826   116.52436251   179.96628297
 H     10   9   1     1.078932341162   159.27697815     0.03817484
 Mg    13  12   8     2.050360529877   126.45537008   180.01043791

---------------------------
INTERNAL COORDINATES (A.U.)
---------------------------
 N      0   0   0     0.000000000000     0.00000000     0.00000000
 H      1   0   0    11.564162591480     0.00000000     0.00000000
 C      1   2   0     4.335367005742   140.92453006     0.00000000
 C      2   1   3     4.147772872818    33.50915004     0.03654954
 N      4   2   1     4.335202866080    95.56469348     0.04751811
 C      2   1   3     2.038884981031     4.27284844     0.40083788
 H      4   2   1     2.038900328733   105.16341269   180.06430126
 C      5   4   2     5.699721026761   125.61516112   359.95655471
 N      1   2   6     5.479755280244   101.32570715   180.34880946
 C      9   1   2     4.335196991710   117.77531267   179.96469761
 C      8   5   4     2.632661098659    53.16437800     0.06876310
 C      8   5   4     4.157438481924   108.37491839   180.08468447
 N     12   8   5     2.584075517072    36.44673543     0.00000000
 C     12   8   5     2.723875204326    73.05033634   180.01204037
 C      5   4   2     2.584054763752    36.31868910   180.00102268
 C      5   4   2     2.583931475058    70.79572404     0.00000000
 C      1   2   6     2.584076990566    70.13306991     0.35586623
 C      1   2   6     2.584177417846   177.24111910     0.97900926
 C      3   1   2     2.569330691574    72.76301102   359.95357395
 C     17   1   2     2.632619165820   125.07310744     0.00000000
 C     18   1  17     2.632659354002   125.09478022   180.00966439
 C     14  12   8     2.569331897574   106.94820236     0.00000000
 C      9   1   2     2.583930075473    81.45605938   180.00111785
 C     10   9   1     2.569441657201    72.76177076   180.05889371
 C     12   8   5     2.632617176909   161.52060847   359.96153148
 C      9   1   2     2.584042369125   171.42924741     0.34052806
 H      3   1   2     2.038902517335   159.26701397   179.95498931
 H     19   3   1     2.038894698891   127.96204490   180.00155066
 H     20  17   1     2.046075189201   116.52889429   179.96077396
 H     11   8   5     2.046071989142   116.52549896   180.00584317
 H     22  14  12     2.038906908008   127.96985474   179.99900777
 H     14  12   8     2.038890279135   125.08876244   180.00062158
 H     25  12   8     2.046071723688   116.52871416   180.07456094
 H     24  10   9     2.038896425708   127.96698994   179.97965206
 H     21  18   1     2.046070756344   116.52436251   179.96628297
 H     10   9   1     2.038886641826   159.27697815     0.03817484
 Mg    13  12   8     3.874619877269   126.45537008   180.01043791

---------------------
BASIS SET INFORMATION
---------------------
There are 4 groups of distinct atoms

 Group   1 Type N   : 11s6p2d1f contracted to 5s3p2d1f pattern {62111/411/11/1}
 Group   2 Type H   : 5s1p contracted to 3s1p pattern {311/1}
 Group   3 Type C   : 11s6p2d1f contracted to 5s3p2d1f pattern {62111/411/11/1}
 Group   4 Type Mg  : 14s8p3d contracted to 5s4p3d pattern {73211/5111/111}

Atom   0N    basis set group =>   1
Atom   1H    basis set group =>   2
Atom   2C    basis set group =>   3
Atom   3C    basis set group =>   3
Atom   4N    basis set group =>   1
Atom   5C    basis set group =>   3
Atom   6H    basis set group =>   2
Atom   7C    basis set group =>   3
Atom   8N    basis set group =>   1
Atom   9C    basis set group =>   3
Atom  10C    basis set group =>   3
Atom  11C    basis set group =>   3
Atom  12N    basis set group =>   1
Atom  13C    basis set group =>   3
Atom  14C    basis set group =>   3
Atom  15C    basis set group =>   3
Atom  16C    basis set group =>   3
Atom  17C    basis set group =>   3
Atom  18C    basis set group =>   3
Atom  19C    basis set group =>   3
Atom  20C    basis set group =>   3
Atom  21C    basis set group =>   3
Atom  22C    basis set group =>   3
Atom  23C    basis set group =>   3
Atom  24C    basis set group =>   3
Atom  25C    basis set group =>   3
Atom  26H    basis set group =>   2
Atom  27H    basis set group =>   2
Atom  28H    basis set group =>   2
Atom  29H    basis set group =>   2
Atom  30H    basis set group =>   2
Atom  31H    basis set group =>   2
Atom  32H    basis set group =>   2
Atom  33H    basis set group =>   2
Atom  34H    basis set group =>   2
Atom  35H    basis set group =>   2
Atom  36Mg   basis set group =>   4
---------------------------------
AUXILIARY/J BASIS SET INFORMATION
---------------------------------
There are 4 groups of distinct atoms

 Group   1 Type N   : 12s5p4d2f1g contracted to 6s4p3d1f1g pattern {711111/2111/211/2/1}
 Group   2 Type H   : 5s2p1d contracted to 3s1p1d pattern {311/2/1}
 Group   3 Type C   : 12s5p4d2f1g contracted to 6s4p3d1f1g pattern {711111/2111/211/2/1}
 Group   4 Type Mg  : 14s5p5d2f1g contracted to 8s4p4d1f1g pattern {71111111/2111/2111/2/1}

Atom   0N    basis set group =>   1
Atom   1H    basis set group =>   2
Atom   2C    basis set group =>   3
Atom   3C    basis set group =>   3
Atom   4N    basis set group =>   1
Atom   5C    basis set group =>   3
Atom   6H    basis set group =>   2
Atom   7C    basis set group =>   3
Atom   8N    basis set group =>   1
Atom   9C    basis set group =>   3
Atom  10C    basis set group =>   3
Atom  11C    basis set group =>   3
Atom  12N    basis set group =>   1
Atom  13C    basis set group =>   3
Atom  14C    basis set group =>   3
Atom  15C    basis set group =>   3
Atom  16C    basis set group =>   3
Atom  17C    basis set group =>   3
Atom  18C    basis set group =>   3
Atom  19C    basis set group =>   3
Atom  20C    basis set group =>   3
Atom  21C    basis set group =>   3
Atom  22C    basis set group =>   3
Atom  23C    basis set group =>   3
Atom  24C    basis set group =>   3
Atom  25C    basis set group =>   3
Atom  26H    basis set group =>   2
Atom  27H    basis set group =>   2
Atom  28H    basis set group =>   2
Atom  29H    basis set group =>   2
Atom  30H    basis set group =>   2
Atom  31H    basis set group =>   2
Atom  32H    basis set group =>   2
Atom  33H    basis set group =>   2
Atom  34H    basis set group =>   2
Atom  35H    basis set group =>   2
Atom  36Mg   basis set group =>   4


           ************************************************************
           *        Program running with 4 parallel MPI-processes     *
           *              working on a common directory               *
           ************************************************************
------------------------------------------------------------------------------
                             ORCA STARTUP CALCULATIONS
                           -- RI-GTO INTEGRALS CHOSEN --
------------------------------------------------------------------------------
------------------------------------------------------------------------------
                   ___                                                        
                  /   \      - P O W E R E D   B Y -                         
                 /     \                                                     
                 |  |  |   _    _      __       _____    __    __             
                 |  |  |  | |  | |    /  \     |  _  \  |  |  /  |          
                  \  \/   | |  | |   /    \    | | | |  |  | /  /          
                 / \  \   | |__| |  /  /\  \   | |_| |  |  |/  /          
                |  |  |   |  __  | /  /__\  \  |    /   |      \           
                |  |  |   | |  | | |   __   |  |    \   |  |\   \          
                \     /   | |  | | |  |  |  |  | |\  \  |  | \   \       
                 \___/    |_|  |_| |__|  |__|  |_| \__\ |__|  \__/        
                                                                              
                      - O R C A' S   B I G   F R I E N D -                    
                                      &                                       
                       - I N T E G R A L  F E E D E R -                       
                                                                              
 v1 FN, 2020, v2 2021, v3 2022-2024                                           
------------------------------------------------------------------------------


----------------------
SHARK INTEGRAL PACKAGE
----------------------

Number of atoms                             ...     37
Number of basis functions                   ...    848
Number of shells                            ...    324
Maximum angular momentum                    ...      3
Integral batch strategy                     ... SHARK/LIBINT Hybrid
RI-J (if used) integral strategy            ... SPLIT-RIJ (Revised 2003 algorithm where possible)
Printlevel                                  ...      1
Contraction scheme used                     ... SEGMENTED contraction
Prescreening option                         ... SCHWARTZ
   Thresh                                   ... 2.500e-11
   Tcut                                     ... 2.500e-12
   Tpresel                                  ... 2.500e-12 
Coulomb Range Separation                    ... NOT USED
Exchange Range Separation                   ... NOT USED
Multipole approximations                    ... NOT USED
Finite Nucleus Model                        ... NOT USED
CABS basis                                  ... NOT available
Auxiliary Coulomb fitting basis             ... AVAILABLE
   # of basis functions in Aux-J            ...   1364
   # of shells in Aux-J                     ...    438
   Maximum angular momentum in Aux-J        ...      4
Auxiliary J/K fitting basis                 ... NOT available
Auxiliary Correlation fitting basis         ... NOT available
Auxiliary 'external' fitting basis          ... NOT available

Checking pre-screening integrals            ... done (  0.0 sec) Dimension = 324
   => SHARK Basis and OBASIS are compatible. Storing Pre-screening
Shell pair information
Shell pair cut-off parameter TPreSel        ...   2.5e-12
Total number of shell pairs                 ...     52650
Shell pairs after pre-screening             ...     37452
Total number of primitive shell pairs       ...    167352
Primitive shell pairs kept                  ...     77858
          la=0 lb=0:   8711 shell pairs
          la=1 lb=0:  10604 shell pairs
          la=1 lb=1:   3186 shell pairs
          la=2 lb=0:   5583 shell pairs
          la=2 lb=1:   3500 shell pairs
          la=2 lb=2:    986 shell pairs
          la=3 lb=0:   2388 shell pairs
          la=3 lb=1:   1536 shell pairs
          la=3 lb=2:    788 shell pairs
          la=3 lb=3:    170 shell pairs

Checking whether 4 symmetric matrices of dimension 848 fit in memory
:Max Core in MB      =   3000.00
 MB in use           =     49.24
 MB left             =   2950.76
 MB needed           =     10.99
 Data fit in memory  = YES
Calculating RI/J V-Matrix + Cholesky decomp.... done (  0.2 sec)
Calculating Nuclear repulsion               ... done (  0.0 sec) ENN=   2121.711186967779 Eh

Diagonalization of the overlap matrix:
Smallest eigenvalue                        ... 1.003e-05
Time for diagonalization                   ...    0.191 sec
Threshold for overlap eigenvalues          ... 1.000e-07
Number of eigenvalues below threshold      ... 0
Time for construction of square roots      ...    0.105 sec
Total time needed                          ...    0.303 sec

-------------------
DFT GRID GENERATION
-------------------

General Integration Accuracy     IntAcc      ... 4.959
Radial Grid Type                 RadialGrid  ... OptM3 with GC (2021)
Angular Grid (max. ang.)         AngularGrid ... 6 (Lebedev-590)
Angular grid pruning method      GridPruning ... 4 (adaptive)
Weight generation scheme         WeightScheme... mBecke (2022)
Basis function cutoff            BFCut       ... 1.0000e-11
Integration weight cutoff        WCut        ... 1.0000e-14
Partially contracted basis set               ... off
Rotationally invariant grid construction     ... off
Angular grids for H and He will be reduced by one unit

Total number of grid points                  ...   456655
Total number of batches                      ...     7152
Average number of points per batch           ...       63
Average number of grid points per atom       ...    12342

--------------------
COSX GRID GENERATION
--------------------

GRIDX 1
-------
General Integration Accuracy     IntAcc      ... 4.020
Radial Grid Type                 RadialGrid  ... OptM3 with GC (2021)
Angular Grid (max. ang.)         AngularGrid ... 2 (Lebedev-110)
Angular grid pruning method      GridPruning ... 4 (adaptive)
Weight generation scheme         WeightScheme... mBecke (2022)
Basis function cutoff            BFCut       ... 1.0000e-11
Integration weight cutoff        WCut        ... 1.0000e-14
Partially contracted basis set               ... on
Rotationally invariant grid construction     ... off
Angular grids for H and He will be reduced by one unit

Total number of grid points                  ...    52690
Total number of batches                      ...      428
Average number of points per batch           ...      123
Average number of grid points per atom       ...     1424
UseSFitting                                  ... on

GRIDX 2
-------
General Integration Accuracy     IntAcc      ... 4.338
Radial Grid Type                 RadialGrid  ... OptM3 with GC (2021)
Angular Grid (max. ang.)         AngularGrid ... 3 (Lebedev-194)
Angular grid pruning method      GridPruning ... 4 (adaptive)
Weight generation scheme         WeightScheme... mBecke (2022)
Basis function cutoff            BFCut       ... 1.0000e-11
Integration weight cutoff        WCut        ... 1.0000e-14
Partially contracted basis set               ... on
Rotationally invariant grid construction     ... off
Angular grids for H and He will be reduced by one unit

Total number of grid points                  ...   116101
Total number of batches                      ...      923
Average number of points per batch           ...      125
Average number of grid points per atom       ...     3138
UseSFitting                                  ... on

GRIDX 3
-------
General Integration Accuracy     IntAcc      ... 4.871
Radial Grid Type                 RadialGrid  ... OptM3 with GC (2021)
Angular Grid (max. ang.)         AngularGrid ... 4 (Lebedev-302)
Angular grid pruning method      GridPruning ... 4 (adaptive)
Weight generation scheme         WeightScheme... mBecke (2022)
Basis function cutoff            BFCut       ... 1.0000e-11
Integration weight cutoff        WCut        ... 1.0000e-14
Partially contracted basis set               ... on
Rotationally invariant grid construction     ... off
Angular grids for H and He will be reduced by one unit

Total number of grid points                  ...   212436
Total number of batches                      ...     1675
Average number of points per batch           ...      126
Average number of grid points per atom       ...     5742
UseSFitting                                  ... on
Grids setup in  14.5 sec
Initializing property integral containers    ... done (  0.0 sec)

SHARK setup successfully completed in  15.8 seconds

Maximum memory used throughout the entire STARTUP-calculation: 148.4 MB


           ************************************************************
           *        Program running with 4 parallel MPI-processes     *
           *              working on a common directory               *
           ************************************************************
-------------------------------------------------------------------------------
                                 ORCA GUESS
                   Start orbitals & Density for SCF / CASSCF
-------------------------------------------------------------------------------

------------
SCF SETTINGS
------------
Hamiltonian:
 Density Functional     Method          .... DFT(GTOs)
 Exchange Functional    Exchange        .... PBE
   PBE kappa parameter   XKappa         ....  0.804000
   PBE mue parameter    XMuePBE         ....  0.219520
 Correlation Functional Correlation     .... PBE
   PBE beta parameter  CBetaPBE         ....  0.066725
 LDA part of GGA corr.  LDAOpt          .... PW91-LDA
 Gradients option       PostSCFGGA      .... off
 Hybrid DFT is turned on
   Fraction HF Exchange ScalHFX         ....  0.250000
   Scaling of DF-GGA-X  ScalDFX         ....  0.750000
   Scaling of DF-GGA-C  ScalDFC         ....  1.000000
   Scaling of DF-LDA-C  ScalLDAC        ....  1.000000
   Perturbative correction              ....  0.000000
   NL short-range parameter             ....  6.900000
 RI-approximation to the Coulomb term is turned on
   Number of AuxJ basis functions       .... 1364
   RIJ-COSX (HFX calculated with COS-X)).... on


General Settings:
 Integral files         IntName         .... tddft
 Hartree-Fock type      HFTyp           .... RHF
 Total Charge           Charge          ....    0
 Multiplicity           Mult            ....    1
 Number of Electrons    NEL             ....  172
 Basis Dimension        Dim             ....  848
 Nuclear Repulsion      ENuc            ....   2121.7111869678 Eh

Convergence Acceleration:
 AO-DIIS                CNVDIIS         .... on
   Start iteration      DIISMaxIt       ....    12
   Startup error        DIISStart       ....  0.200000
   # of expansion vecs  DIISMaxEq       ....     5
   Bias factor          DIISBfac        ....   1.050
   Max. coefficient     DIISMaxC        ....  10.000
 MO-DIIS                CNVKDIIS        .... off
 Trust-Rad. Augm. Hess. CNVTRAH         .... auto
   Auto Start mean grad. ratio tolernc. ....  1.125000
   Auto Start start iteration           ....    50
   Auto Start num. interpolation iter.  ....    10
   Max. Number of Micro iterations      ....    24
   Max. Number of Macro iterations      .... Maxiter - #DIIS iter
   Number of Davidson start vectors     ....     2
   Converg. threshold    (grad. norm)   ....   1.000e-05
   Grad. Scal. Fac. for Micro threshold ....   0.100
   Minimum threshold for Micro iter.    ....   1.000e-02
   NR start threshold (gradient norm)   ....   1.000e-04
   Initial trust radius                 ....   0.400
   Minimum AH scaling param. (alpha)    ....   1.000
   Maximum AH scaling param. (alpha)    .... 1000.000
   Quad. conv. algorithm                .... NR
   White noise on init. David. guess    .... on
   Maximum white noise                  ....   0.010
   Pseudo random numbers                .... off
   Inactive MOs                         .... canonical
   Orbital update algorithm             .... Taylor
   Preconditioner                       .... Diag
   Full preconditioner red. dimension   ....   250
 SOSCF                 CNVSOSCF           .... on
   Start iteration     SOSCFMaxIt         ....   150
   Startup grad/error  SOSCFStart         ....  0.003300
   Hessian update      SOSCFHessUp        .... L-BFGS
   Autom. constraints  SOSCFAutoConstrain .... off
 Level Shifting         CNVShift        .... on
   Level shift para.    LevelShift      ....    0.2500
   Turn off err/grad.   ShiftErr        ....    0.0010
 Zerner damping         CNVZerner       .... off
 Static damping         CNVDamp         .... on
   Fraction old density DampFac         ....    0.7000
   Max. Damping (<1)    DampMax         ....    0.9800
   Min. Damping (>=0)   DampMin         ....    0.0000
   Turn off err/grad.   DampErr         ....    0.1000

SCF Procedure:
 Maximum # iterations   MaxIter         ....   125
 SCF integral mode      SCFMode         .... Direct
   Integral package                     .... SHARK and LIBINT hybrid scheme
 Reset frequency        DirectResetFreq ....    20
 Integral Threshold     Thresh          ....  2.500e-11 Eh
 Primitive CutOff       TCut            ....  2.500e-12 Eh

Convergence Tolerance:
 Convergence Check Mode ConvCheckMode   .... Total+1el-Energy
 Convergence forced     ConvForced      .... 1
 Energy Change          TolE            ....  1.000e-08 Eh
 1-El. energy change                    ....  1.000e-05 Eh
 Orbital Gradient       TolG            ....  1.000e-05
 Orbital Rotation angle TolX            ....  1.000e-05
 DIIS Error             TolErr          ....  5.000e-07

------------------------------
INITIAL GUESS: MODEL POTENTIAL
------------------------------
Loading Hartree-Fock densities                     ... done
Calculating cut-offs                               ... done
Initializing the effective Hamiltonian             ... done
Setting up the integral package (SHARK)            ... done
Starting the Coulomb interaction                   ... done (   1.6 sec)
Making the grid                                    ... done (   0.6 sec)
Mapping shells                                     ... done
Starting the XC term evaluation                    ... done (   0.9 sec)
  promolecular density results
     # of electrons  =    171.995110955
     EX              =   -148.115499445
     EC              =     -5.855479608
     EX+EC           =   -153.970979052
Transforming the Hamiltonian                       ... done (   0.1 sec)
Diagonalizing the Hamiltonian                      ... done (   0.2 sec)
Back transforming the eigenvectors                 ... done (   0.1 sec)
Now organizing SCF variables                       ... done
                      ------------------
                      INITIAL GUESS DONE (   3.5 sec)
                      ------------------
             **** ENERGY FILE WAS UPDATED (tddft.en.tmp) ****
Finished Guess after   4.0 sec
Maximum memory used throughout the entire GUESS-calculation: 83.5 MB


           ************************************************************
           *        Program running with 4 parallel MPI-processes     *
           *              working on a common directory               *
           ************************************************************

-------------------------------------------------------------------------------------------
                                      ORCA LEAN-SCF
                              memory conserving SCF solver
-------------------------------------------------------------------------------------------

--------------------
CPCM SOLVATION MODEL
--------------------
CPCM parameters:
  Epsilon                                         ...       8.9990
  Refrac                                          ...       1.4242
  Rsolv                                           ...       1.3000
  Surface type                                    ... GAUSSIAN VDW
  Discretization scheme                           ... Constant charge density
    Threshold for H atoms                         ...       5.0000 (charges/Ang^2)
    Threshold for non-H atoms                     ...       5.0000 (charges/Ang^2)
  Epsilon function type                           ...         CPCM
Solvent:                                          ... DICHLOROMETHANE
Radii:
  Scheme                                          ... Element-dependent radii
  Radius for N  used is    3.5149 Bohr (=   1.8600 Ang.)
  Radius for H  used is    2.4944 Bohr (=   1.3200 Ang.)
  Radius for C  used is    3.8550 Bohr (=   2.0400 Ang.)
  Radius for Mg used is    3.9231 Bohr (=   2.0760 Ang.)
Calculating surface                               ...        done! (  0.0s)
Cavity surface points                             ...         3494
Cavity Volume                                     ...    2478.6237
Cavity Surface-area                               ...    1177.4362
Calculating surface distance matrix               ...        done! (  0.3s)
Performing Cholesky decomposition & store         ...        done! (  0.7s)
Overall time for CPCM initialization              ...                 1.0s

----------------------------------------D-I-I-S--------------------------------------------
Iteration    Energy (Eh)           Delta-E    RMSDP     MaxDP     DIISErr   Damp  Time(sec)
-------------------------------------------------------------------------------------------
               ***  Starting incremental Fock matrix formation  ***
    1    -1187.1908602017451813     0.00e+00  1.68e-03  4.07e-02  2.22e-01  0.700  87.4
    2    -1187.4157878172272831    -2.25e-01  1.30e-03  2.64e-02  1.08e-01  0.700  42.9
                               ***Turning on AO-DIIS***
    3    -1187.5169672239003376    -1.01e-01  6.94e-04  1.46e-02  3.83e-02  0.700  41.8
    4    -1187.5764642857616309    -5.95e-02  1.37e-03  2.98e-02  2.39e-02  0.000  39.5
    5    -1187.7032034218686931    -1.27e-01  1.96e-04  4.54e-03  4.44e-03  0.000  41.3
                              *** Initializing SOSCF ***
---------------------------------------S-O-S-C-F--------------------------------------
Iteration    Energy (Eh)           Delta-E    RMSDP     MaxDP     MaxGrad    Time(sec)
--------------------------------------------------------------------------------------
    6    -1187.7037983171280757    -5.95e-04  6.98e-05  9.96e-04  1.77e-03    36.0
               *** Restarting incremental Fock matrix formation ***
    7    -1187.7038313105849738    -3.30e-05  6.62e-05  1.20e-03  3.05e-04   120.0
    8    -1187.7038349218546500    -3.61e-06  2.73e-05  5.23e-04  1.34e-04    60.7
    9    -1187.7038353068546712    -3.85e-07  1.80e-05  3.20e-04  1.13e-04    82.6
   10    -1187.7038358910594980    -5.84e-07  7.59e-06  1.47e-04  1.95e-05    52.3
   11    -1187.7038359046814548    -1.36e-08  7.20e-06  2.82e-04  1.96e-05    44.9
   12    -1187.7038359220409802    -1.74e-08  7.99e-06  2.50e-04  3.50e-06    52.1
   13    -1187.7038358982335922     2.38e-08  5.34e-06  2.02e-04  4.00e-06    57.2
   14    -1187.7038359186162779    -2.04e-08  6.03e-06  2.13e-04  1.20e-06    36.2
                  *** Gradient check signals convergence ***

               *****************************************************
               *                     SUCCESS                       *
               *           SCF CONVERGED AFTER  14 CYCLES          *
               *****************************************************

Recomputing exchange energy using gridx3       ... done (  164.328 sec)
Old exchange energy                            :    -37.680436459 Eh
New exchange energy                            :    -37.680435568 Eh
Exchange energy change after final integration :      0.000000891 Eh
Total energy after final integration           :  -1187.703834936 Eh
             **** ENERGY FILE WAS UPDATED (tddft.en.tmp) ****

----------------
TOTAL SCF ENERGY
----------------

Total Energy       :      -1187.70383493568943 Eh          -32319.06442 eV

Components:
Nuclear Repulsion  :       2121.71118696777876 Eh           57734.69657 eV
Electronic Energy  :      -3309.39978366983314 Eh          -90053.34634 eV
One Electron Energy:      -5839.35347805424226 Eh         -158896.88630 eV
Two Electron Energy:       2529.95369438440912 Eh           68843.53996 eV
CPCM Dielectric    :         -0.01523912447020 Eh              -0.41468 eV

Virial components:
Potential Energy   :      -2370.04005219489682 Eh          -64492.06853 eV
Kinetic Energy     :       1182.33621725920761 Eh           32173.00412 eV
Virial Ratio       :          2.00453984035854

DFT components:
N(Alpha)           :       86.000002357368 electrons
N(Beta)            :       86.000002357368 electrons
N(Total)           :      172.000004714736 electrons
E(X)               :     -112.773442114566 Eh       
E(C)               :       -5.866143805416 Eh       
E(XC)              :     -118.639585919981 Eh       

CPCM Solvation Model Properties:
Surface-charge          :         -0.03600031915048
Corrected charge        :          0.00000000000000
Outlying charge corr.   :          0.00006192217530 Eh               0.00168 eV
Free-energy (cav+disp)  :  This term is not implemented in the current solvation scheme

---------------
SCF CONVERGENCE
---------------

  Last Energy change         ...    2.0383e-08  Tolerance :   1.0000e-08
  Last MAX-Density change    ...    2.1253e-04  Tolerance :   1.0000e-07
  Last RMS-Density change    ...    6.0327e-06  Tolerance :   5.0000e-09
  Last DIIS Error            ...    1.7698e-03  Tolerance :   5.0000e-07
  Last Orbital Gradient      ...    1.1997e-06  Tolerance :   1.0000e-05
  Last Orbital Rotation      ...    2.0474e-06  Tolerance :   1.0000e-05


----------------
ORBITAL ENERGIES
----------------

  NO   OCC          E(Eh)            E(eV) 
   0   2.0000     -46.867449     -1275.3281 
   1   2.0000     -14.376033      -391.1918 
   2   2.0000     -14.376028      -391.1916 
   3   2.0000     -14.376018      -391.1913 
   4   2.0000     -14.376013      -391.1912 
   5   2.0000     -10.262629      -279.2603 
   6   2.0000     -10.262626      -279.2602 
   7   2.0000     -10.262618      -279.2600 
   8   2.0000     -10.262614      -279.2599 
   9   2.0000     -10.262596      -279.2594 
  10   2.0000     -10.262594      -279.2594 
  11   2.0000     -10.262587      -279.2592 
  12   2.0000     -10.262586      -279.2592 
  13   2.0000     -10.235834      -278.5312 
  14   2.0000     -10.235829      -278.5311 
  15   2.0000     -10.235829      -278.5311 
  16   2.0000     -10.235823      -278.5309 
  17   2.0000     -10.227383      -278.3013 
  18   2.0000     -10.227383      -278.3012 
  19   2.0000     -10.227380      -278.3011 
  20   2.0000     -10.227377      -278.3011 
  21   2.0000     -10.226602      -278.2800 
  22   2.0000     -10.226600      -278.2799 
  23   2.0000     -10.226599      -278.2799 
  24   2.0000     -10.226598      -278.2799 
  25   2.0000      -3.090742       -84.1034 
  26   2.0000      -1.817487       -49.4563 
  27   2.0000      -1.811966       -49.3061 
  28   2.0000      -1.811966       -49.3061 
  29   2.0000      -0.994695       -27.0670 
  30   2.0000      -0.986016       -26.8309 
  31   2.0000      -0.985996       -26.8303 
  32   2.0000      -0.976455       -26.5707 
  33   2.0000      -0.843099       -22.9419 
  34   2.0000      -0.816037       -22.2055 
  35   2.0000      -0.816036       -22.2055 
  36   2.0000      -0.796432       -21.6720 
  37   2.0000      -0.790762       -21.5177 
  38   2.0000      -0.790748       -21.5173 
  39   2.0000      -0.786970       -21.4145 
  40   2.0000      -0.764746       -20.8098 
  41   2.0000      -0.740817       -20.1586 
  42   2.0000      -0.677462       -18.4347 
  43   2.0000      -0.677453       -18.4344 
  44   2.0000      -0.616030       -16.7630 
  45   2.0000      -0.596997       -16.2451 
  46   2.0000      -0.590989       -16.0816 
  47   2.0000      -0.590982       -16.0814 
  48   2.0000      -0.588265       -16.0075 
  49   2.0000      -0.566987       -15.4285 
  50   2.0000      -0.557388       -15.1673 
  51   2.0000      -0.540178       -14.6990 
  52   2.0000      -0.540166       -14.6987 
  53   2.0000      -0.526462       -14.3258 
  54   2.0000      -0.513196       -13.9648 
  55   2.0000      -0.513194       -13.9647 
  56   2.0000      -0.460256       -12.5242 
  57   2.0000      -0.451926       -12.2975 
  58   2.0000      -0.449832       -12.2405 
  59   2.0000      -0.437219       -11.8973 
  60   2.0000      -0.437204       -11.8969 
  61   2.0000      -0.435157       -11.8412 
  62   2.0000      -0.435152       -11.8411 
  63   2.0000      -0.434884       -11.8338 
  64   2.0000      -0.423117       -11.5136 
  65   2.0000      -0.412500       -11.2247 
  66   2.0000      -0.403251       -10.9730 
  67   2.0000      -0.403237       -10.9726 
  68   2.0000      -0.397791       -10.8244 
  69   2.0000      -0.387818       -10.5531 
  70   2.0000      -0.387810       -10.5528 
  71   2.0000      -0.382877       -10.4186 
  72   2.0000      -0.380678       -10.3588 
  73   2.0000      -0.379455       -10.3255 
  74   2.0000      -0.344057        -9.3623 
  75   2.0000      -0.330274        -8.9872 
  76   2.0000      -0.330250        -8.9866 
  77   2.0000      -0.301174        -8.1954 
  78   2.0000      -0.299916        -8.1611 
  79   2.0000      -0.299914        -8.1611 
  80   2.0000      -0.278239        -7.5713 
  81   2.0000      -0.267261        -7.2726 
  82   2.0000      -0.267250        -7.2722 
  83   2.0000      -0.263432        -7.1684 
  84   2.0000      -0.211193        -5.7469 
  85   2.0000      -0.209234        -5.6936 
  86   0.0000      -0.090225        -2.4552 
  87   0.0000      -0.090214        -2.4549 
  88   0.0000      -0.026826        -0.7300 
  89   0.0000       0.016936         0.4608 
  90   0.0000       0.043157         1.1744 
  91   0.0000       0.043537         1.1847 
  92   0.0000       0.053903         1.4668 
  93   0.0000       0.053914         1.4671 
  94   0.0000       0.071342         1.9413 
  95   0.0000       0.073440         1.9984 
  96   0.0000       0.073779         2.0076 
*Only the first 10 virtual orbitals were printed.

                    ********************************
                    * MULLIKEN POPULATION ANALYSIS *
                    ********************************

-----------------------
MULLIKEN ATOMIC CHARGES
-----------------------
   0 N :   -0.330230
   1 H :    0.153139
   2 C :   -0.244714
   3 C :   -0.244644
   4 N :   -0.330300
   5 C :   -0.244615
   6 H :    0.153164
   7 C :    0.340417
   8 N :   -0.330266
   9 C :   -0.244610
  10 C :   -0.494240
  11 C :    0.340370
  12 N :   -0.330230
  13 C :   -0.244557
  14 C :    0.340753
  15 C :    0.340166
  16 C :    0.340404
  17 C :    0.340398
  18 C :   -0.244577
  19 C :   -0.494875
  20 C :   -0.494167
  21 C :   -0.244698
  22 C :    0.340071
  23 C :   -0.244691
  24 C :   -0.494871
  25 C :    0.340820
  26 H :    0.153150
  27 H :    0.153173
  28 H :    0.154923
  29 H :    0.154934
  30 H :    0.153149
  31 H :    0.153159
  32 H :    0.154934
  33 H :    0.153152
  34 H :    0.154931
  35 H :    0.153152
  36 Mg:    0.687924
Sum of atomic charges:    0.0000000

--------------------------------
MULLIKEN REDUCED ORBITAL CHARGES
--------------------------------
  0 N s       :     3.644538  s :     3.644538
      pz      :     1.354699  p :     3.621826
      px      :     1.245030
      py      :     1.022097
      dz2     :     0.004752  d :     0.060232
      dxz     :     0.006088
      dyz     :     0.014006
      dx2y2   :     0.017070
      dxy     :     0.018315
      f0      :     0.000640  f :     0.003634
      f+1     :     0.000311
      f-1     :     0.000432
      f+2     :     0.000107
      f-2     :     0.000585
      f+3     :     0.000638
      f-3     :     0.000921

  1 H s       :     0.824535  s :     0.824535
      pz      :     0.004807  p :     0.022325
      px      :     0.008279
      py      :     0.009239

  2 C s       :     3.286180  s :     3.286180
      pz      :     0.992260  p :     2.864066
      px      :     0.919357
      py      :     0.952449
      dz2     :     0.005471  d :     0.086798
      dxz     :     0.010217
      dyz     :     0.019330
      dx2y2   :     0.019169
      dxy     :     0.032610
      f0      :     0.001418  f :     0.007670
      f+1     :     0.000776
      f-1     :     0.000638
      f+2     :     0.000933
      f-2     :     0.000420
      f+3     :     0.002306
      f-3     :     0.001179

  3 C s       :     3.286054  s :     3.286054
      pz      :     0.991952  p :     2.864124
      px      :     0.952110
      py      :     0.920062
      dz2     :     0.005054  d :     0.086797
      dxz     :     0.019955
      dyz     :     0.010055
      dx2y2   :     0.019096
      dxy     :     0.032636
      f0      :     0.001458  f :     0.007670
      f+1     :     0.000547
      f-1     :     0.000793
      f+2     :     0.000985
      f-2     :     0.000411
      f+3     :     0.001155
      f-3     :     0.002320

  4 N s       :     3.644702  s :     3.644702
      pz      :     1.356612  p :     3.621718
      px      :     1.018962
      py      :     1.246145
      dz2     :     0.004583  d :     0.060245
      dxz     :     0.014241
      dyz     :     0.005987
      dx2y2   :     0.017038
      dxy     :     0.018396
      f0      :     0.000644  f :     0.003635
      f+1     :     0.000420
      f-1     :     0.000317
      f+2     :     0.000103
      f-2     :     0.000582
      f+3     :     0.000930
      f-3     :     0.000639

  5 C s       :     3.286122  s :     3.286122
      pz      :     0.992019  p :     2.864027
      px      :     0.952796
      py      :     0.919212
      dz2     :     0.005272  d :     0.086797
      dxz     :     0.017756
      dyz     :     0.011991
      dx2y2   :     0.019593
      dxy     :     0.032185
      f0      :     0.001448  f :     0.007669
      f+1     :     0.000587
      f-1     :     0.000772
      f+2     :     0.001243
      f-2     :     0.000139
      f+3     :     0.001345
      f-3     :     0.002136

  6 H s       :     0.824508  s :     0.824508
      pz      :     0.004855  p :     0.022328
      px      :     0.006596
      py      :     0.010877

  7 C s       :     3.084449  s :     3.084449
      pz      :     0.914188  p :     2.392431
      px      :     0.763441
      py      :     0.714803
      dz2     :     0.005215  d :     0.168258
      dxz     :     0.030501
      dyz     :     0.037661
      dx2y2   :     0.052352
      dxy     :     0.042529
      f0      :     0.002071  f :     0.014445
      f+1     :     0.000910
      f-1     :     0.001093
      f+2     :     0.000684
      f-2     :     0.002294
      f+3     :     0.003562
      f-3     :     0.003831

  8 N s       :     3.644678  s :     3.644678
      pz      :     1.356606  p :     3.621708
      px      :     1.018949
      py      :     1.246154
      dz2     :     0.004583  d :     0.060245
      dxz     :     0.014241
      dyz     :     0.005988
      dx2y2   :     0.017039
      dxy     :     0.018395
      f0      :     0.000644  f :     0.003635
      f+1     :     0.000420
      f-1     :     0.000317
      f+2     :     0.000103
      f-2     :     0.000582
      f+3     :     0.000930
      f-3     :     0.000639

  9 C s       :     3.286042  s :     3.286042
      pz      :     0.992024  p :     2.864101
      px      :     0.952811
      py      :     0.919266
      dz2     :     0.005271  d :     0.086798
      dxz     :     0.017756
      dyz     :     0.011991
      dx2y2   :     0.019594
      dxy     :     0.032187
      f0      :     0.001448  f :     0.007669
      f+1     :     0.000588
      f-1     :     0.000772
      f+2     :     0.001243
      f-2     :     0.000138
      f+3     :     0.001345
      f-3     :     0.002136

 10 C s       :     3.445259  s :     3.445259
      pz      :     1.006549  p :     2.962383
      px      :     0.980718
      py      :     0.975116
      dz2     :     0.003260  d :     0.079437
      dxz     :     0.014041
      dyz     :     0.017610
      dx2y2   :     0.010137
      dxy     :     0.034389
      f0      :     0.001359  f :     0.007160
      f+1     :     0.000647
      f-1     :     0.000709
      f+2     :     0.000782
      f-2     :     0.000452
      f+3     :     0.001859
      f-3     :     0.001352

 11 C s       :     3.084788  s :     3.084788
      pz      :     0.913837  p :     2.392099
      px      :     0.774009
      py      :     0.704252
      dz2     :     0.005308  d :     0.168297
      dxz     :     0.029387
      dyz     :     0.038717
      dx2y2   :     0.051500
      dxy     :     0.043384
      f0      :     0.002071  f :     0.014446
      f+1     :     0.000848
      f-1     :     0.001155
      f+2     :     0.001105
      f-2     :     0.001880
      f+3     :     0.002362
      f-3     :     0.005024

 12 N s       :     3.644523  s :     3.644523
      pz      :     1.354702  p :     3.621840
      px      :     1.245039
      py      :     1.022099
      dz2     :     0.004752  d :     0.060233
      dxz     :     0.006088
      dyz     :     0.014006
      dx2y2   :     0.017070
      dxy     :     0.018316
      f0      :     0.000640  f :     0.003634
      f+1     :     0.000311
      f-1     :     0.000432
      f+2     :     0.000107
      f-2     :     0.000585
      f+3     :     0.000638
      f-3     :     0.000921

 13 C s       :     3.286018  s :     3.286018
      pz      :     0.992322  p :     2.864068
      px      :     0.918515
      py      :     0.953231
      dz2     :     0.005255  d :     0.086801
      dxz     :     0.012390
      dyz     :     0.017407
      dx2y2   :     0.019685
      dxy     :     0.032065
      f0      :     0.001429  f :     0.007670
      f+1     :     0.000711
      f-1     :     0.000685
      f+2     :     0.001211
      f-2     :     0.000156
      f+3     :     0.002116
      f-3     :     0.001362

 14 C s       :     3.084298  s :     3.084298
      pz      :     0.914390  p :     2.392227
      px      :     0.712889
      py      :     0.764947
      dz2     :     0.004975  d :     0.168276
      dxz     :     0.038598
      dyz     :     0.029925
      dx2y2   :     0.052153
      dxy     :     0.042624
      f0      :     0.002098  f :     0.014446
      f+1     :     0.001042
      f-1     :     0.000922
      f+2     :     0.000710
      f-2     :     0.002262
      f+3     :     0.003854
      f-3     :     0.003557

 15 C s       :     3.084754  s :     3.084754
      pz      :     0.914656  p :     2.392345
      px      :     0.702251
      py      :     0.775438
      dz2     :     0.004899  d :     0.168289
      dxz     :     0.039757
      dyz     :     0.028842
      dx2y2   :     0.051319
      dxy     :     0.043473
      f0      :     0.002099  f :     0.014447
      f+1     :     0.001076
      f-1     :     0.000887
      f+2     :     0.001068
      f-2     :     0.001897
      f+3     :     0.005055
      f-3     :     0.002365

 16 C s       :     3.084740  s :     3.084740
      pz      :     0.913841  p :     2.392115
      px      :     0.774051
      py      :     0.704223
      dz2     :     0.005308  d :     0.168296
      dxz     :     0.029388
      dyz     :     0.038716
      dx2y2   :     0.051499
      dxy     :     0.043384
      f0      :     0.002071  f :     0.014446
      f+1     :     0.000848
      f-1     :     0.001155
      f+2     :     0.001105
      f-2     :     0.001880
      f+3     :     0.002362
      f-3     :     0.005024

 17 C s       :     3.084531  s :     3.084531
      pz      :     0.914189  p :     2.392369
      px      :     0.763413
      py      :     0.714766
      dz2     :     0.005215  d :     0.168256
      dxz     :     0.030501
      dyz     :     0.037661
      dx2y2   :     0.052352
      dxy     :     0.042528
      f0      :     0.002071  f :     0.014445
      f+1     :     0.000910
      f-1     :     0.001093
      f+2     :     0.000684
      f-2     :     0.002294
      f+3     :     0.003562
      f-3     :     0.003831

 18 C s       :     3.285986  s :     3.285986
      pz      :     0.992329  p :     2.864119
      px      :     0.918549
      py      :     0.953240
      dz2     :     0.005255  d :     0.086803
      dxz     :     0.012390
      dyz     :     0.017407
      dx2y2   :     0.019684
      dxy     :     0.032067
      f0      :     0.001429  f :     0.007670
      f+1     :     0.000711
      f-1     :     0.000685
      f+2     :     0.001211
      f-2     :     0.000156
      f+3     :     0.002116
      f-3     :     0.001363

 19 C s       :     3.445886  s :     3.445886
      pz      :     1.006665  p :     2.962389
      px      :     0.974816
      py      :     0.980908
      dz2     :     0.002901  d :     0.079439
      dxz     :     0.018363
      dyz     :     0.013651
      dx2y2   :     0.010176
      dxy     :     0.034349
      f0      :     0.001386  f :     0.007160
      f+1     :     0.000633
      f-1     :     0.000678
      f+2     :     0.000794
      f-2     :     0.000450
      f+3     :     0.001345
      f-3     :     0.001875

 20 C s       :     3.445188  s :     3.445188
      pz      :     1.006543  p :     2.962378
      px      :     0.980736
      py      :     0.975099
      dz2     :     0.003260  d :     0.079440
      dxz     :     0.014041
      dyz     :     0.017610
      dx2y2   :     0.010139
      dxy     :     0.034390
      f0      :     0.001359  f :     0.007160
      f+1     :     0.000647
      f-1     :     0.000709
      f+2     :     0.000782
      f-2     :     0.000452
      f+3     :     0.001859
      f-3     :     0.001352

 21 C s       :     3.286142  s :     3.286142
      pz      :     0.992259  p :     2.864089
      px      :     0.919367
      py      :     0.952463
      dz2     :     0.005471  d :     0.086796
      dxz     :     0.010217
      dyz     :     0.019330
      dx2y2   :     0.019170
      dxy     :     0.032608
      f0      :     0.001418  f :     0.007670
      f+1     :     0.000776
      f-1     :     0.000638
      f+2     :     0.000933
      f-2     :     0.000420
      f+3     :     0.002306
      f-3     :     0.001179

 22 C s       :     3.084774  s :     3.084774
      pz      :     0.914667  p :     2.392414
      px      :     0.702269
      py      :     0.775477
      dz2     :     0.004898  d :     0.168295
      dxz     :     0.039756
      dyz     :     0.028844
      dx2y2   :     0.051322
      dxy     :     0.043475
      f0      :     0.002099  f :     0.014447
      f+1     :     0.001076
      f-1     :     0.000887
      f+2     :     0.001068
      f-2     :     0.001897
      f+3     :     0.005055
      f-3     :     0.002365

 23 C s       :     3.286161  s :     3.286161
      pz      :     0.991950  p :     2.864065
      px      :     0.952063
      py      :     0.920052
      dz2     :     0.005054  d :     0.086796
      dxz     :     0.019954
      dyz     :     0.010056
      dx2y2   :     0.019096
      dxy     :     0.032636
      f0      :     0.001459  f :     0.007670
      f+1     :     0.000547
      f-1     :     0.000793
      f+2     :     0.000985
      f-2     :     0.000411
      f+3     :     0.001155
      f-3     :     0.002320

 24 C s       :     3.445838  s :     3.445838
      pz      :     1.006665  p :     2.962434
      px      :     0.974858
      py      :     0.980912
      dz2     :     0.002901  d :     0.079439
      dxz     :     0.018362
      dyz     :     0.013651
      dx2y2   :     0.010174
      dxy     :     0.034351
      f0      :     0.001386  f :     0.007160
      f+1     :     0.000633
      f-1     :     0.000678
      f+2     :     0.000794
      f-2     :     0.000450
      f+3     :     0.001345
      f-3     :     0.001875

 25 C s       :     3.084235  s :     3.084235
      pz      :     0.914395  p :     2.392227
      px      :     0.712907
      py      :     0.764925
      dz2     :     0.004972  d :     0.168272
      dxz     :     0.038598
      dyz     :     0.029927
      dx2y2   :     0.052154
      dxy     :     0.042621
      f0      :     0.002099  f :     0.014446
      f+1     :     0.001042
      f-1     :     0.000922
      f+2     :     0.000710
      f-2     :     0.002262
      f+3     :     0.003855
      f-3     :     0.003557

 26 H s       :     0.824522  s :     0.824522
      pz      :     0.004782  p :     0.022327
      px      :     0.010951
      py      :     0.006595

 27 H s       :     0.824502  s :     0.824502
      pz      :     0.004829  p :     0.022325
      px      :     0.009265
      py      :     0.008230

 28 H s       :     0.822527  s :     0.822527
      pz      :     0.005219  p :     0.022549
      px      :     0.007811
      py      :     0.009519

 29 H s       :     0.822517  s :     0.822517
      pz      :     0.005169  p :     0.022549
      px      :     0.009578
      py      :     0.007802

 30 H s       :     0.824523  s :     0.824523
      pz      :     0.004782  p :     0.022327
      px      :     0.010951
      py      :     0.006595

 31 H s       :     0.824517  s :     0.824517
      pz      :     0.004829  p :     0.022325
      px      :     0.009265
      py      :     0.008230

 32 H s       :     0.822517  s :     0.822517
      pz      :     0.005219  p :     0.022549
      px      :     0.007811
      py      :     0.009519

 33 H s       :     0.824520  s :     0.824520
      pz      :     0.004854  p :     0.022328
      px      :     0.006596
      py      :     0.010877

 34 H s       :     0.822520  s :     0.822520
      pz      :     0.005169  p :     0.022549
      px      :     0.009578
      py      :     0.007802

 35 H s       :     0.824523  s :     0.824523
      pz      :     0.004807  p :     0.022325
      px      :     0.008279
      py      :     0.009239

 36 Mgs       :     4.564735  s :     4.564735
      pz      :     2.079772  p :     6.455246
      px      :     2.188237
      py      :     2.187237
      dz2     :     0.034953  d :     0.292095
      dxz     :     0.027386
      dyz     :     0.028794
      dx2y2   :     0.176452
      dxy     :     0.024509



                     *******************************
                     * LOEWDIN POPULATION ANALYSIS *
                     *******************************

----------------------
LOEWDIN ATOMIC CHARGES
----------------------
   0 N :    0.176265
   1 H :    0.149331
   2 C :   -0.113984
   3 C :   -0.113977
   4 N :    0.176327
   5 C :   -0.113980
   6 H :    0.149336
   7 C :   -0.206576
   8 N :    0.176330
   9 C :   -0.113980
  10 C :   -0.083696
  11 C :   -0.206629
  12 N :    0.176265
  13 C :   -0.113972
  14 C :   -0.206615
  15 C :   -0.206658
  16 C :   -0.206630
  17 C :   -0.206576
  18 C :   -0.113975
  19 C :   -0.083705
  20 C :   -0.083695
  21 C :   -0.113986
  22 C :   -0.206659
  23 C :   -0.113976
  24 C :   -0.083705
  25 C :   -0.206618
  26 H :    0.149345
  27 H :    0.149340
  28 H :    0.169695
  29 H :    0.169690
  30 H :    0.149345
  31 H :    0.149339
  32 H :    0.169694
  33 H :    0.149335
  34 H :    0.169690
  35 H :    0.149330
  36 Mg:    0.320934

-------------------------------
LOEWDIN REDUCED ORBITAL CHARGES
-------------------------------
  0 N s       :     2.977524  s :     2.977524
      pz      :     1.192692  p :     3.624541
      px      :     1.326201
      py      :     1.105648
      dz2     :     0.017017  d :     0.203227
      dxz     :     0.012472
      dyz     :     0.043058
      dx2y2   :     0.060986
      dxy     :     0.069693
      f0      :     0.001162  f :     0.018443
      f+1     :     0.000887
      f-1     :     0.001714
      f+2     :     0.000369
      f-2     :     0.003489
      f+3     :     0.004134
      f-3     :     0.006689

  1 H s       :     0.787944  s :     0.787944
      pz      :     0.013972  p :     0.062725
      px      :     0.022889
      py      :     0.025863

  2 C s       :     2.765284  s :     2.765284
      pz      :     0.899543  p :     2.928337
      px      :     0.983807
      py      :     1.044988
      dz2     :     0.028126  d :     0.373665
      dxz     :     0.031657
      dyz     :     0.058748
      dx2y2   :     0.103751
      dxy     :     0.151384
      f0      :     0.003013  f :     0.046698
      f+1     :     0.003633
      f-1     :     0.003900
      f+2     :     0.007329
      f-2     :     0.002472
      f+3     :     0.017748
      f-3     :     0.008603

  3 C s       :     2.765295  s :     2.765295
      pz      :     0.898986  p :     2.928338
      px      :     1.046351
      py      :     0.983002
      dz2     :     0.026893  d :     0.373649
      dxz     :     0.060277
      dyz     :     0.031399
      dx2y2   :     0.103660
      dxy     :     0.151421
      f0      :     0.003079  f :     0.046694
      f+1     :     0.003841
      f-1     :     0.003581
      f+2     :     0.007476
      f-2     :     0.002344
      f+3     :     0.008561
      f-3     :     0.017812

  4 N s       :     2.977471  s :     2.977471
      pz      :     1.194589  p :     3.624490
      px      :     1.104903
      py      :     1.324998
      dz2     :     0.016518  d :     0.203265
      dxz     :     0.043552
      dyz     :     0.012183
      dx2y2   :     0.061027
      dxy     :     0.069985
      f0      :     0.001139  f :     0.018447
      f+1     :     0.001759
      f-1     :     0.000842
      f+2     :     0.000344
      f-2     :     0.003540
      f+3     :     0.006703
      f-3     :     0.004121

  5 C s       :     2.765303  s :     2.765303
      pz      :     0.899092  p :     2.928368
      px      :     1.044103
      py      :     0.985172
      dz2     :     0.027659  d :     0.373619
      dxz     :     0.051690
      dyz     :     0.039143
      dx2y2   :     0.103373
      dxy     :     0.151753
      f0      :     0.003048  f :     0.046691
      f+1     :     0.003827
      f-1     :     0.003655
      f+2     :     0.008990
      f-2     :     0.000798
      f+3     :     0.010125
      f-3     :     0.016248

  6 H s       :     0.787943  s :     0.787943
      pz      :     0.014096  p :     0.062721
      px      :     0.018512
      py      :     0.030113

  7 C s       :     2.697375  s :     2.697375
      pz      :     0.840796  p :     2.784435
      px      :     0.965558
      py      :     0.978081
      dz2     :     0.045232  d :     0.644916
      dxz     :     0.094080
      dyz     :     0.106843
      dx2y2   :     0.202994
      dxy     :     0.195767
      f0      :     0.004902  f :     0.079850
      f+1     :     0.004983
      f-1     :     0.005885
      f+2     :     0.005029
      f-2     :     0.014344
      f+3     :     0.022054
      f-3     :     0.022653

  8 N s       :     2.977468  s :     2.977468
      pz      :     1.194582  p :     3.624488
      px      :     1.104904
      py      :     1.325002
      dz2     :     0.016518  d :     0.203267
      dxz     :     0.043551
      dyz     :     0.012183
      dx2y2   :     0.061029
      dxy     :     0.069986
      f0      :     0.001139  f :     0.018448
      f+1     :     0.001759
      f-1     :     0.000842
      f+2     :     0.000344
      f-2     :     0.003540
      f+3     :     0.006703
      f-3     :     0.004121

  9 C s       :     2.765304  s :     2.765304
      pz      :     0.899090  p :     2.928367
      px      :     1.044102
      py      :     0.985176
      dz2     :     0.027657  d :     0.373618
      dxz     :     0.051687
      dyz     :     0.039143
      dx2y2   :     0.103375
      dxy     :     0.151756
      f0      :     0.003048  f :     0.046691
      f+1     :     0.003827
      f-1     :     0.003655
      f+2     :     0.008990
      f-2     :     0.000798
      f+3     :     0.010125
      f-3     :     0.016248

 10 C s       :     2.752154  s :     2.752154
      pz      :     0.895210  p :     2.922015
      px      :     1.010882
      py      :     1.015924
      dz2     :     0.025662  d :     0.370063
      dxz     :     0.042671
      dyz     :     0.053834
      dx2y2   :     0.096599
      dxy     :     0.151296
      f0      :     0.003179  f :     0.039463
      f+1     :     0.003573
      f-1     :     0.003902
      f+2     :     0.005894
      f-2     :     0.002249
      f+3     :     0.011346
      f-3     :     0.009320

 11 C s       :     2.697384  s :     2.697384
      pz      :     0.840432  p :     2.784438
      px      :     0.978569
      py      :     0.965437
      dz2     :     0.045551  d :     0.644950
      dxz     :     0.088575
      dyz     :     0.112197
      dx2y2   :     0.200914
      dxy     :     0.197714
      f0      :     0.004901  f :     0.079858
      f+1     :     0.004635
      f-1     :     0.006240
      f+2     :     0.007415
      f-2     :     0.012002
      f+3     :     0.014668
      f-3     :     0.029997

 12 N s       :     2.977523  s :     2.977523
      pz      :     1.192693  p :     3.624542
      px      :     1.326200
      py      :     1.105649
      dz2     :     0.017017  d :     0.203227
      dxz     :     0.012471
      dyz     :     0.043058
      dx2y2   :     0.060986
      dxy     :     0.069693
      f0      :     0.001162  f :     0.018443
      f+1     :     0.000887
      f-1     :     0.001714
      f+2     :     0.000369
      f-2     :     0.003489
      f+3     :     0.004134
      f-3     :     0.006689

 13 C s       :     2.765293  s :     2.765293
      pz      :     0.899510  p :     2.928351
      px      :     0.986037
      py      :     1.042804
      dz2     :     0.027364  d :     0.373635
      dxz     :     0.040233
      dyz     :     0.050968
      dx2y2   :     0.103594
      dxy     :     0.151476
      f0      :     0.003044  f :     0.046694
      f+1     :     0.003540
      f-1     :     0.003932
      f+2     :     0.008936
      f-2     :     0.000894
      f+3     :     0.016183
      f-3     :     0.010165

 14 C s       :     2.697363  s :     2.697363
      pz      :     0.840453  p :     2.784451
      px      :     0.979505
      py      :     0.964493
      dz2     :     0.045353  d :     0.644942
      dxz     :     0.108252
      dyz     :     0.092462
      dx2y2   :     0.203001
      dxy     :     0.195875
      f0      :     0.004929  f :     0.079859
      f+1     :     0.006106
      f-1     :     0.004744
      f+2     :     0.005107
      f-2     :     0.014213
      f+3     :     0.022761
      f-3     :     0.021999

 15 C s       :     2.697367  s :     2.697367
      pz      :     0.840797  p :     2.784440
      px      :     0.966508
      py      :     0.977135
      dz2     :     0.045031  d :     0.644982
      dxz     :     0.113842
      dyz     :     0.087044
      dx2y2   :     0.201132
      dxy     :     0.197934
      f0      :     0.004934  f :     0.079868
      f+1     :     0.006287
      f-1     :     0.004553
      f+2     :     0.007110
      f-2     :     0.012174
      f+3     :     0.030149
      f-3     :     0.014661

 16 C s       :     2.697383  s :     2.697383
      pz      :     0.840432  p :     2.784438
      px      :     0.978571
      py      :     0.965435
      dz2     :     0.045550  d :     0.644950
      dxz     :     0.088576
      dyz     :     0.112196
      dx2y2   :     0.200913
      dxy     :     0.197715
[...]
  0-1A  ->  1-1A    2.402905   19380.7   516.0   0.001057159   0.00014  -0.01136  -0.00326   0.00052
  0-1A  ->  2-1A    2.402937   19381.0   516.0   0.001072064   0.00014  -0.00327   0.01141  -0.00108
  0-1A  ->  3-1A    3.294134   26569.0   376.4   1.393635176   0.25306   0.00971  -0.50055   0.04914
  0-1A  ->  4-1A    3.294188   26569.4   376.4   1.393439036   0.25303   0.50286   0.00887  -0.00924
  0-1A  ->  5-1A    3.881045   31302.7   319.5   0.000000000   0.00000   0.00000  -0.00001   0.00000
  0-1A  ->  6-1A    3.889353   31369.8   318.8   0.022469131   0.00482  -0.06916  -0.00556   0.00172
  0-1A  ->  7-1A    3.889725   31372.8   318.7   0.022331664   0.00479  -0.00570   0.06864  -0.00662
  0-1A  ->  8-1A    3.918491   31604.8   316.4   0.000000000   0.00000   0.00000  -0.00000   0.00000
  0-1A  ->  9-1A    4.068044   32811.0   304.8   0.000000000   0.00000  -0.00000   0.00000  -0.00000
  0-1A  -> 10-1A    4.140992   33399.4   299.4   0.000000000   0.00000  -0.00000   0.00000   0.00000
  0-1A  -> 11-1A    4.300515   34686.0   288.3   0.000000000   0.00000   0.00000   0.00000   0.00000
  0-1A  -> 12-1A    4.350584   35089.8   285.0   0.210755705   0.05054  -0.22340  -0.02445   0.00612
  0-1A  -> 13-1A    4.350727   35091.0   285.0   0.210830856   0.05056  -0.02493   0.22244  -0.02154
  0-1A  -> 14-1A    4.398345   35475.0   281.9   0.000000000   0.00000   0.00000  -0.00001   0.00001
  0-1A  -> 15-1A    4.638669   37413.4   267.3   0.000000000   0.00000  -0.00000  -0.00001   0.00000
  0-1A  -> 16-1A    4.639002   37416.1   267.3   0.000000000   0.00000   0.00001  -0.00000   0.00000
  0-1A  -> 17-1A    4.810513   38799.4   257.7   0.000000000   0.00000  -0.00000   0.00000  -0.00000
  0-1A  -> 18-1A    4.948252   39910.3   250.6   0.000000000   0.00000  -0.00000   0.00000  -0.00000
  0-1A  -> 19-1A    5.185411   41823.2   239.1   0.000403930   0.00012   0.00020   0.00097   0.01070
  0-1A  -> 20-1A    5.195812   41907.1   238.6   0.000000000   0.00000   0.00000   0.00000  -0.00000
  0-1A  -> 21-1A    5.309607   42824.9   233.5   0.000000005   0.00000  -0.00004   0.00000   0.00002
  0-1A  -> 22-1A    5.356503   43203.1   231.5   0.000000002   0.00000  -0.00003  -0.00001  -0.00000
  0-1A  -> 23-1A    5.368069   43296.4   231.0   0.000000000   0.00000  -0.00000   0.00000   0.00000
  0-1A  -> 24-1A    5.409435   43630.0   229.2   0.000000175   0.00000  -0.00023  -0.00003  -0.00000
  0-1A  -> 25-1A    5.450978   43965.1   227.5   0.000000344   0.00000  -0.00002  -0.00010  -0.00030
  0-1A  -> 26-1A    5.466370   44089.3   226.8   0.002360842   0.00071   0.00044   0.00256   0.02655
  0-1A  -> 27-1A    5.700477   45977.5   217.5   0.000000000   0.00000   0.00001  -0.00000  -0.00000
  0-1A  -> 28-1A    5.794897   46739.0   214.0   0.122731857   0.03921   0.19568   0.02960  -0.00618
  0-1A  -> 29-1A    5.795170   46741.2   213.9   0.122715651   0.03920  -0.03006   0.19480  -0.01871
  0-1A  -> 30-1A    5.864879   47303.4   211.4   0.000000000   0.00000  -0.00000  -0.00000  -0.00000

------------------------------------------------------------------------------------------
                     CD SPECTRUM VIA TRANSITION ELECTRIC DIPOLE MOMENTS    
------------------------------------------------------------------------------------------
     Transition      Energy     Energy  Wavelength    R        MX        MY        MZ   
                      (eV)      (cm-1)    (nm)   (1e40*cgs)   (au)      (au)      (au)  
------------------------------------------------------------------------------------------
  0-1A  ->  1-1A    2.402905   19380.7   516.0    0.00010   0.00000  -0.00000   0.00001
  0-1A  ->  2-1A    2.402937   19381.0   516.0   -0.00006   0.00001  -0.00000  -0.00001
  0-1A  ->  3-1A    3.294134   26569.0   376.4   -0.00710   0.00001   0.00000   0.00000
  0-1A  ->  4-1A    3.294188   26569.4   376.4    0.00417   0.00000  -0.00001   0.00001
  0-1A  ->  5-1A    3.881045   31302.7   319.5   -0.00074   0.01709   0.10183   1.03199
  0-1A  ->  6-1A    3.889353   31369.8   318.8    0.00174  -0.00000  -0.00002   0.00010
  0-1A  ->  7-1A    3.889725   31372.8   318.7   -0.00164  -0.00000   0.00000   0.00010
  0-1A  ->  8-1A    3.918491   31604.8   316.4    0.00004   0.00013   0.00042   0.00769
  0-1A  ->  9-1A    4.068044   32811.0   304.8   -0.00000   0.00008  -0.00002   0.00010
  0-1A  -> 10-1A    4.140992   33399.4   299.4    0.00000  -0.00011   0.00003   0.00033
  0-1A  -> 11-1A    4.300515   34686.0   288.3    0.00000  -0.00000  -0.00016   0.00026
  0-1A  -> 12-1A    4.350584   35089.8   285.0    0.00496  -0.00000  -0.00005  -0.00000
  0-1A  -> 13-1A    4.350727   35091.0   285.0   -0.00475   0.00004  -0.00000  -0.00000
  0-1A  -> 14-1A    4.398345   35475.0   281.9   -0.00000  -0.00016  -0.00007  -0.00002
  0-1A  -> 15-1A    4.638669   37413.4   267.3   -0.00450  -0.02141   0.23447  -0.02299
  0-1A  -> 16-1A    4.639002   37416.1   267.3    0.00480   0.23565   0.02092  -0.00595
  0-1A  -> 17-1A    4.810513   38799.4   257.7   -0.00000   0.00694   0.04205   0.42350
  0-1A  -> 18-1A    4.948252   39910.3   250.6    0.00000  -0.00008  -0.00005   0.00020
  0-1A  -> 19-1A    5.185411   41823.2   239.1    0.00008  -0.00000   0.00000   0.00000
  0-1A  -> 20-1A    5.195812   41907.1   238.6   -0.00000  -0.00021  -0.00014   0.00000
  0-1A  -> 21-1A    5.309607   42824.9   233.5   -0.00000   0.00000  -0.00000  -0.00002
  0-1A  -> 22-1A    5.356503   43203.1   231.5    0.00000   0.00000   0.00000   0.00002
  0-1A  -> 23-1A    5.368069   43296.4   231.0    0.00000  -0.00013  -0.00026   0.00037
  0-1A  -> 24-1A    5.409435   43630.0   229.2    0.00000   0.00000  -0.00001  -0.00006
  0-1A  -> 25-1A    5.450978   43965.1   227.5    0.00001  -0.00000  -0.00000  -0.00001
  0-1A  -> 26-1A    5.466370   44089.3   226.8   -0.00020  -0.00000  -0.00000  -0.00000
  0-1A  -> 27-1A    5.700477   45977.5   217.5   -0.00088   0.01718   0.10238   1.03920
  0-1A  -> 28-1A    5.794897   46739.0   214.0    0.00751   0.00002   0.00001  -0.00003
  0-1A  -> 29-1A    5.795170   46741.2   213.9   -0.00711   0.00001  -0.00001   0.00002
  0-1A  -> 30-1A    5.864879   47303.4   211.4    0.00000   0.00030  -0.00016  -0.00037

------------------------------------------------------------------------------------------
                     CD SPECTRUM VIA TRANSITION VELOCITY DIPOLE MOMENTS    
------------------------------------------------------------------------------------------
     Transition      Energy     Energy  Wavelength    R        MX        MY        MZ   
                      (eV)      (cm-1)    (nm)   (1e40*cgs)   (au)      (au)      (au)  
------------------------------------------------------------------------------------------
  0-1A  ->  1-1A    2.402905   19380.7   516.0    0.00010   0.00000  -0.00000   0.00001
  0-1A  ->  2-1A    2.402937   19381.0   516.0   -0.00005   0.00001  -0.00000  -0.00001
  0-1A  ->  3-1A    3.294134   26569.0   376.4   -0.00706   0.00001   0.00000   0.00000
  0-1A  ->  4-1A    3.294188   26569.4   376.4    0.00415   0.00000  -0.00001   0.00001
  0-1A  ->  5-1A    3.881045   31302.7   319.5   -0.00012   0.01709   0.10183   1.03199
  0-1A  ->  6-1A    3.889353   31369.8   318.8    0.00176  -0.00000  -0.00002   0.00010
  0-1A  ->  7-1A    3.889725   31372.8   318.7   -0.00166  -0.00000   0.00000   0.00010
  0-1A  ->  8-1A    3.918491   31604.8   316.4    0.00004   0.00013   0.00042   0.00769
  0-1A  ->  9-1A    4.068044   32811.0   304.8   -0.00000   0.00008  -0.00002   0.00010
  0-1A  -> 10-1A    4.140992   33399.4   299.4    0.00000  -0.00011   0.00003   0.00033
  0-1A  -> 11-1A    4.300515   34686.0   288.3    0.00000  -0.00000  -0.00016   0.00026
  0-1A  -> 12-1A    4.350584   35089.8   285.0    0.00494  -0.00000  -0.00005  -0.00000
  0-1A  -> 13-1A    4.350727   35091.0   285.0   -0.00473   0.00004  -0.00000  -0.00000
  0-1A  -> 14-1A    4.398345   35475.0   281.9   -0.00000  -0.00016  -0.00007  -0.00002
  0-1A  -> 15-1A    4.638669   37413.4   267.3   -0.00438  -0.02141   0.23447  -0.02299
  0-1A  -> 16-1A    4.639002   37416.1   267.3    0.00489   0.23565   0.02092  -0.00595
  0-1A  -> 17-1A    4.810513   38799.4   257.7   -0.00007   0.00694   0.04205   0.42350
  0-1A  -> 18-1A    4.948252   39910.3   250.6    0.00000  -0.00008  -0.00005   0.00020
  0-1A  -> 19-1A    5.185411   41823.2   239.1    0.00008  -0.00000   0.00000   0.00000
  0-1A  -> 20-1A    5.195812   41907.1   238.6   -0.00000  -0.00021  -0.00014   0.00000
  0-1A  -> 21-1A    5.309607   42824.9   233.5   -0.00000   0.00000  -0.00000  -0.00002
  0-1A  -> 22-1A    5.356503   43203.1   231.5   -0.00000   0.00000   0.00000   0.00002
  0-1A  -> 23-1A    5.368069   43296.4   231.0    0.00000  -0.00013  -0.00026   0.00037
  0-1A  -> 24-1A    5.409435   43630.0   229.2    0.00000   0.00000  -0.00001  -0.00006
  0-1A  -> 25-1A    5.450978   43965.1   227.5    0.00001  -0.00000  -0.00000  -0.00001
  0-1A  -> 26-1A    5.466370   44089.3   226.8   -0.00023  -0.00000  -0.00000  -0.00000
  0-1A  -> 27-1A    5.700477   45977.5   217.5   -0.00111   0.01718   0.10238   1.03920
  0-1A  -> 28-1A    5.794897   46739.0   214.0    0.00756   0.00002   0.00001  -0.00003
  0-1A  -> 29-1A    5.795170   46741.2   213.9   -0.00716   0.00001  -0.00001   0.00002
  0-1A  -> 30-1A    5.864879   47303.4   211.4    0.00000   0.00030  -0.00016  -0.00037

Total run time:     5831.785 sec

           *** ORCA-CIS/TD-DFT FINISHED WITHOUT ERROR ***
-----------------------
CIS/TD-DFT TOTAL ENERGY
-----------------------

    E(SCF)  =  -1187.703834936 Eh
    DE(CIS) =      0.088305123 Eh (Root  1)
    ----------------------------- ---------
    E(tot)  =  -1187.615529813 Eh


Maximum memory used throughout the entire CIS-calculation: 2717.8 MB
=> NOW LEAVING ORCA_CIS

-------------------------   --------------------
FINAL SINGLE POINT ENERGY     -1187.615529812676
-------------------------   --------------------



           ************************************************************
           *        Program running with 4 parallel MPI-processes     *
           *              working on a common directory               *
           ************************************************************

------------------------------------------------------------------------------
                              ORCA PROPERTY CALCULATIONS
------------------------------------------------------------------------------

GBWName                                 ... tddft.gbw
Number of atoms                         ...     37
Number of basis functions               ...    848
Max core memory                         ...   3000 MB

Electric properties:
Dipole moment                           ... YES
Quadrupole moment                       ...  NO
Static polarizability (Dipole/Dipole)   ...  NO
Static polarizability (Dipole/Quad.)    ...  NO
Static polarizability (Quad./Quad.)     ...  NO
Static polarizability (Velocity)        ...  NO
Static hyperpolarizability              ...  NO

Atomic electric properties:
Dipole moment                           ...  NO
Quadrupole moment                       ...  NO
Static polarizability                   ...  NO

Choice of electric origin               ... Center of mass
Position of electric origin             ...    -0.158818     5.090151     6.572142

General magnetic properties:
Magnetizability                         ...  NO

EPR properties:
g-Tensor (aka g-matrix)                 ...  NO
Zero-Field splitting spin-orbit         ...  NO
Zero-field splitting spin-spin          ...  NO
Hyperfine couplings                     ...  NO (   0 nuclei)
Quadrupole couplings                    ...  NO (   0 nuclei)
Contact density                         ...  NO (   0 nuclei)

NMR properties:
Chemical shifts                         ...  NO (   0 nuclei)
Spin-rotation constants                 ...  NO (   0 nuclei)
Spin-spin couplings                     ...  NO (   0 nuclei,    0 pairs)

Choice of magnetic origin               ... GIAO
Position of magnetic origin             ...     0.000000     0.000000     0.000000

Properties with geometric perturbations:
SCF Hessian                             ...  NO
IR spectrum                             ...  NO
VCD spectrum                            ...  NO
X-ray spectroscopy properties:
SCF XES/XAS/RIXS spectra                ...  NO

SCF SOC stabilization energy            ...  NO
Diagonal Born-Oppenheimer correction    ...  NO

-------------
DIPOLE MOMENT
-------------

Method             : SCF
Type of density    : Electron Density
Multiplicity       :   1
Irrep              :   0
Energy             : -1187.7038349356894287 Eh
Basis              : AO
                                X                 Y                 Z
Electronic contribution:      0.000009726      -0.000032635      -0.000426559
Nuclear contribution   :     -0.000008108       0.000042856       0.000532868
                        -----------------------------------------
Total Dipole Moment    :      0.000001617       0.000010220       0.000106310
                        -----------------------------------------
Magnitude (a.u.)       :      0.000106812
Magnitude (Debye)      :      0.000271494



--------------------
Rotational spectrum 
--------------------
 
Rotational constants in cm-1:             0.008916             0.008916             0.004458 
Rotational constants in MHz :           267.307767           267.296540           133.651083 

Dipole components along the rotational axes: 
x,y,z [a.u.] :    -0.000000    -0.000000     0.000107 
x,y,z [Debye]:    -0.000001    -0.000000     0.000271 

 

Dipole moment calculation done in   0.0 sec 

Maximum memory used throughout the entire PROP-calculation: 86.1 MB

--------------------------------
SUGGESTED CITATIONS FOR THIS RUN
--------------------------------

Below you find a list of papers that are relevant to this ORCA run
We neither can nor want to force you to cite these papers, but we appreciate if you do
You receive ORCA, which is the product of decades of hard work by many enthusiastic individuals, for free
The only thing we kindly ask in return is that you cite our papers,
We deeply appreciate it, if you show your appreciation for ORCA by not just citing the generic ORCA reference.

Please note that relegating all ORCA citations to the supporting information does *not* help us.
SI sections are not indexed - citations you put there will not count into any citation statistics
But we need these citations in order to attract the funding resources that allow us to do what we are doing

Therefore, if you are a happy ORCA user, please consider citing a few of the papers listed below in the main body of your paper

In addition to the list printed below, the program has created the file tddft.bibtex that contains the list in bibtex format
You can import this file easily into all common literature databanks and citation aid programs

It goes without saying that in many instances, there are alternative algorithms to achieve similar
results as the ones you have gotten from ORCA. It is, of course, also the case that in some instances
ORCA just re-implements algorithms worked out by others. We are fully aware of that and we are also
fully appreciative of our colleagues work. Hence this citation list should not be read as indicating
that the listed papers, which are focused on our own work, are the only ones worth citing. It simply
meant to make it easier for users to cite ORCA specific papers. It is not a substitute for doing your
own literature research and citing the relevant literature in a scientifically appropriate manner.

List of essential papers. We consider these as the minimum necessary citations

  1. Neese, F.
     Software update: the ORCA program system, version 6.0
     WIRES Comput. Molec. Sci. 2025 15(1), e70019
     doi.org/10.1002/wcms.70019

List of papers to cite with high priority. The work reported in these papers was absolutely
necessary for this run to complete.
Our perspective: the developers of density functionals and basis sets usually get cited in chemistry papers
Good! But without the algorithms to do something with them, the functionals or basis sets would not do anything.
Hence, in our opinion, the algorithm design and method developments papers are equally worthy of getting cited

  1. Neese, F.; Olbrich, G.
     Efficient use of the resolution of the identity approximation in time-dependent density functional calculations with hybrid density functionals
     Chem. Phys. Lett. 2002 362 , 170-178
     doi.org/10.1016/s0009-2614(02)01053-9
  2. Neese, F.
     An improvement of the resolution of the identity approximation for the formation of the Coulomb matrix
     J. Comp. Chem. 2003 24(14), 1740-1747
     doi.org/10.1002/jcc.10318
  3. Neese, F.; Wennmohs, F.; Hansen, A.; Becker, U.
     Efficient, approximate and parallel Hartree-Fock and hybrid DFT calculations. A 'chain-of-spheres' algorithm for the Hartree-Fock exchange
     Chem. Phys. 2009 356(1-3), 98-109
     doi.org/10.1016/j.chemphys.2008.10.036
  4. Garcia-Rates, M.; Neese, F.
     Effect of the Solute Cavity on the Solvation Energy and its Derivatives within the Framework of the Gaussian Charge Scheme
     J. Comput. Chem. 2020 41 , 922-939
     doi.org/10.1002/jcc.26139
  5. Helmich-Paris, B.; de Souza, B.; Neese, F.; Izsák, R.
     An improved chain of spheres for exchange algorithm
     J. Chem. Phys. 2021 155(10), 104109
     doi.org/10.1063/5.0058766
  6. Neese, F.
     The SHARK Integral Generation and Digestion System
     J. Comp. Chem. 2022 44(3), 381
     doi.org/10.1002/jcc.26942

List of suggested additional citations. These are papers that are important in the 'surrounding' of 
of this run, or papers that preceded the highly important papers. If you like your results we are grateful for a citation.

  1. Izsak, R.; Neese, F.
     An overlap fitted chain of spheres exchange method
     J. Chem. Phys. 2011 135 , 144105
     doi.org/10.1063/1.3646921
  2. Izsak, R.; Hansen, A.; Neese, F.
     The resolution of identity and chain of spheres approximations for the LPNO-CCSD singles Fock term
     Molec. Phys. 2012 110 , 2413-2417
     doi.org/10.1080/00268976.2012.687466
  3. Neese, F.
     The ORCA program system
     WIRES Comput. Molec. Sci. 2012 2(1), 73-78
     doi.org/10.1002/wcms.81
  4. Izsak, R.; Neese, F.; Klopper, W.
     Robust fitting techniques in the chain of spheres approximation to the Fock exchange: The role of the complementary space
     J. Chem. Phys. 2013 139 , 
     doi.org/10.1063/1.4819264
  5. Neese, F.
     Software update: the ORCA program system, version 4.0
     WIRES Comput. Molec. Sci. 2018 8(1), 1-6
     doi.org/10.1002/wcms.1327
  6. Neese, F.; Wennmohs, F.; Becker, U.; Riplinger, C.
     The ORCA quantum chemistry program package
     J. Chem. Phys. 2020 152(22), 224108
     doi.org/10.1063/5.0004608
  7. Neese, F.
     Software update: The ORCA program system—Version 5.0
     WIRES Comput. Molec. Sci. 2022 12(1), e1606
     doi.org/10.1002/wcms.1606

List of optional additional citations

  1. Neese, F.
     Approximate second-order SCF convergence for spin unrestricted wavefunctions
     Chem. Phys. Lett. 2000 325(1-3), 93-98
     doi.org/10.1016/s0009-2614(00)00662-x

Timings for individual modules:

Sum of individual times          ...     6853.251 sec (= 114.221 min)
Startup calculation              ...       16.119 sec (=   0.269 min)   0.2 %
SCF iterations                   ...     1003.341 sec (=  16.722 min)  14.6 %
Property integrals               ...        0.933 sec (=   0.016 min)   0.0 %
Property calculations            ...        0.658 sec (=   0.011 min)   0.0 %
CIS module                       ...     5832.200 sec (=  97.203 min)  85.1 %
                             ****ORCA TERMINATED NORMALLY****
TOTAL RUN TIME: 0 days 1 hours 54 minutes 13 seconds 638 msec
