
                                 *****************
                                 * O   R   C   A *
                                 *****************

                                            #,                                       
                                            ###                                      
                                            ####                                     
                                            #####                                    
                                            ######                                   
                                           ########,                                 
                                     ,,################,,,,,                         
                               ,,#################################,,                 
                          ,,##########################################,,             
                       ,#########################################, ''#####,          
                    ,#############################################,,   '####,        
                  ,##################################################,,,,####,       
                ,###########''''           ''''###############################       
              ,#####''   ,,,,##########,,,,          '''####'''          '####       
            ,##' ,,,,###########################,,,                        '##       
           ' ,,###''''                  '''############,,,                           
         ,,##''                                '''############,,,,        ,,,,,,###''
      ,#''                                            '''#######################'''  
     '                                                          ''''####''''         
             ,#######,   #######,   ,#######,      ##                                
            ,#'     '#,  ##    ##  ,#'     '#,    #''#        ,####,    ,#,          
            ##       ##  ##   ,#'  ##            #'  '#       #'       ,# #          
            ##       ##  #######   ##           ,######,      #####,      #          
            '#,     ,#'  ##    ##  '#,     ,#' ,#      #,     #,   #      #          
             '#######'   ##     ##  '#######'  #'      '#     '####' #    #          



                #########################################################
                #                        -***-                          #
                #          Department of theory and spectroscopy        #
                #                                                       #
                #                      Frank Neese                      #
                #                                                       #
                #     Directorship, Architecture, Infrastructure        #
                #                    SHARK, DRIVERS                     #
                #        Core code/Algorithms in most modules           #
                #                                                       #
                #        Max Planck Institute fuer Kohlenforschung      #
                #                Kaiser Wilhelm Platz 1                 #
                #                 D-45470 Muelheim/Ruhr                 #
                #                      Germany                          #
                #                                                       #
                #                  All rights reserved                  #
                #                        -***-                          #
                #########################################################


                         Program Version 6.1.1  -  RELEASE   -
                                (GIT: $487d211c$)
                          ($2025-11-21 10:33:24 +0100$)


 With contributions from (in alphabetic order):
[Max-Planck-Institut fuer Kohlenforschung]                               
  Daniel Aravena         : Magnetic Suceptibility                        
  Michael Atanasov       : Ab Initio Ligand Field Theory (pilot matlab implementation)
  Alexander A. Auer      : GIAO ZORA, VPT2 properties, NMR spectrum      
  Ute Becker             : All parallelization in ORCA, NUMFREQ, NUMCALC 
  Giovanni Bistoni       : ED, misc. LED, open-shell LED, HFLD           
  Dmytro Bykov           : pre 5.0 version of the SCF Hessian            
  Marcos Casanova-Páez   : Triplet and SCS-CIS(D). UHF-(DLPNO)-IP/EA/STEOM-CCSD. UHF-CVS-IP/STEOM-CCSD   
  Vijay G. Chilkuri      : MRCI spin determinant printing, contributions to CSF-ICE 
  Pauline Colinet        : FMM embedding                                 
  Dipayan Datta          : RHF DLPNO-CCSD density                        
  Achintya Kumar Dutta   : EOM-CC, STEOM-CC                              
  Nicolas Foglia         : Exact transition moments, OPA infrastructure, MCD improvements    
  Dmitry Ganyushin       : Spin-Orbit,Spin-Spin,Magnetic field MRCI      
  Miquel Garcia-Rates    : C-PCM and meta-GGA Hessian, CCSD/C-PCM, Gaussian charge scheme 
  Tiago L. C. Gouveia    : GS-ROHF, GS-ROCIS                             
  Yang Guo               : DLPNO-NEVPT2, F12-NEVPT2, CIM, IAO-localization        
  Andreas Hansen         : Spin unrestricted coupled pair/coupled cluster methods 
  Ingolf Harden          : AUTO-CI MPn and infrastructure                
  Benjamin Helmich-Paris : MC-RPA, TRAH-(SCF,CASSCF), AVAS, COSX integrals, SCF dyn. polar., MC-PDFT, srDFT 
  Lee Huntington         : MR-EOM, pCC                                   
  Robert Izsak           : Overlap fitted RIJCOSX, COSX-SCS-MP3, EOM     
  Riya Kayal             : Wick's Theorem for AUTO-CI, AUTO-CI UHF-CCSDT 
  Emily Kempfer          : AUTO-CI RHF CISDT and CCSDT, approximate NEVPT4
  Christian Kollmar      : KDIIS, OOCD, Brueckner-CCSD(T), CCSD density, CASPT2, CASPT2-K, improved NEVPT2 
  Axel Koslowski         : Symmetry handling                             
  Simone Kossmann        : meta-GGA functionals, TD-DFT gradient, OOMP2, (MP2 Hessian; deprecated post 5.0) 
  Lucas Lang             : DCDCAS, Hyperfine gauge corrections, ICE-SOC+SSC
  Marvin Lechner         : AUTO-CI (C++ implementation), FIC-MRCC        
  Spencer Leger          : CASSCF response                               
  Dagmar Lenk            : GEPOL surface, SMD, ORCA-2-JSON               
  Dimitrios Liakos       : Extrapolation schemes; Compound Job, Property file
  Dimitrios Manganas     : Further ROCIS development; embedding schemes. LFT, Crystal Embedding 
  Dimitrios Pantazis     : SARC Basis sets                               
  Anastasios Papadopoulos: AUTO-CI, single reference methods and gradients 
  Taras Petrenko         : pre 6.0 DFT Hessian and TD-DFT gradient,  ECA, NRVS 
  Petra Pikulova         : Analytic Raman intensities                    
  Peter Pinski           : DLPNO-MP2, DLPNO-MP2 Gradient                 
  Shashank Vittal Rao    : ES-AILFT, MagRelax                            
  Christoph Reimann      : Effective Core Potentials                     
  Marius Retegan         : Local ZFS, SOC                                
  Christoph Riplinger    : Optimizer, TS searches, QM/MM, DLPNO-CCSD(T), (RO)-DLPNO pert. Triples 
  Michael Roemelt        : Original ROCIS implementation, recursive CI coupling coefficients
  Masaaki Saitow         : Open-shell DLPNO-CCSD energy and density      
  Barbara Sandhoefer     : DKH picture change effects                    
  Yorick L. A. Schmerwitz: GMF and freeze-and-release deltaSCF, NEB S-IDPP initial path                    
  Kantharuban Sivalingam : CASSCF convergence/infrastructure, NEVPT2, NEVPT3, NEVPT4(SD), FIC-MRCI and CEPA variants
  Bernardo de Souza      : ESD, SOC TD-DFT                               
  Georgi L. Stoychev     : AutoAux, RI-MP2 NMR, DLPNO-MP2 response, X2C  
  Van Anh Tran           : RI-MP2 g-tensors                              
  Willem Van den Heuvel  : Paramagnetic NMR                              
  Zikuan Wang            : NOTCH, Electric field optimization            
  Frank Wennmohs         : Technical directorship and infrastructure     
  Hang Xu                : AUTO-CI-Response properties                   
                                                                         
[FACCTs GmbH]                                                            
  Markus Bursch, Nicolas Foglia, Miquel Garcia-Rates, Ingolf Harden, Hagen Neugebauer, Anastasios Papadopoulos, 
  Christoph Riplinger, Bernardo de Souza, Georgi L. Stoychev                                                    
                                                                 
  APM, various basis sets, CI-OPT, improved COSX, DLPNO-Multilevel,           
  DOCKER, DRACO, updates on ESD, Fragmentator, GOAT, IRC, LR-CPCM, L-BFGS, MBIS, meta-GGA TD-DFT gradient, ML-optimized integration grids, 
  MM, NACMEs, nearIR, NEB, NEB-TS, NL-DFT gradient (VV10), 2- and 3-layer-ONIOM, interface openCOSMO-RS, QMMM,   
  Crystal-QMMM, RESP, rigid body optimization, SF, symmetry and pop. for TD-DFT, various functionals, SOLVATOR                                   
                                                                         
[Other institutions]                                                     
  V. Asgeirsson          : NEB                                           
  Christoph Bannwarth    : sTDA-DFT, sTD-DFT, PBEh-3c, B97-3c, D3        
  Giovanni Bistoni       : ETS/NOCV, ADLD/ADEX, COVALED                  
  Martin Brehm           : Molecular dynamics                            
  Ronald Cardenas        : ETS/NOCV                                      
  Martina Colucci        : COVALED                                       
  Sebastian Ehlert       : rSCAN, r2SCAN, r2SCAN-3c, D4, dhf basis sets  
  Marvin Friede          : D4 for Fr, Ra, Ac-Lr                          
  Lars Goerigk           : TD-DFT with DH, B97 family of functionals     
  Stefan Grimme          : VdW corrections, initial TS optimization, DFT functionals, gCP, sTDA/sTD-DF 
  Waldemar Hujo          : DFT-NL                                        
  H. Jonsson             : NEB                                           
  Holger Kruse           : gCP                                           
  Marcel Mueller         : wB97X-3c, vDZP basis set                      
  Hagen Neugebauer       : wr2SCAN, Native XTB                           
  Gianluca Regni         : ADLD/ADEX                                     
  Tobias Risthaus        : pre 6.0 range-separated hybrid DFT and stability analysis
  Lukas Wittmann         : regularized MP2, r2SCAN double-hybrids, wr2SCAN        
                                                                         
We gratefully acknowledge several colleagues who have allowed us to      
interface, adapt or use parts of their codes:                            
  Ed Valeev, F. Pavosevic, A. Kumar             : LibInt (2-el integral package), F12 methods 
  Garnet Chan, S. Sharma, J. Yang, R. Olivares  : DMRG                   
  Ulf Ekstrom                                   : XCFun DFT Library      
  Mihaly Kallay                                 : mrcc  (arbitrary order and MRCC methods)
  Frank Weinhold                                : gennbo (NPA and NBO analysis)           
  Simon Mueller                                 : openCOSMO-RS                            
  Christopher J. Cramer and Donald G. Truhlar   : smd solvation model                     
  S Lehtola, MJT Oliveira, MAL Marques          : LibXC Library                           
  Liviu Ungur et al                             : ANISO software                          


 Your calculation uses the libint2 library for the computation of 2-el integrals
 For citations please refer to: http://libint.valeyev.net

 Your ORCA version has been built with support for libXC version: 7.0.0
 For citations please refer to: https://libxc.gitlab.io

 This ORCA versions uses:
   CBLAS   interface :  Fast vector & matrix operations
   LAPACKE interface :  Fast linear algebra routines
   SCALAPACK package :  Parallel linear algebra routines
   Shared memory     :  Shared parallel matrices
   BLAS/LAPACK       :  OpenBLAS 0.3.29  USE64BITINT DYNAMIC_ARCH NO_AFFINITY Haswell SINGLE_THREADED
        Core in use  :  Haswell
   Copyright (c) 2011-2014, The OpenBLAS Project


  ***********************************
  * Starting time: Sun Jul  5 17:08:28 2026
  * Host name:     steezy
  * Process ID:    1275765
  * Working dir.:  /home/jannes/chlorophyll-ladder/007-mg-core-ladder/mgporphin/02_tddft/camb3lyp
  ***********************************

NOTE: MaxCore=3000 MB was set to SCF,MP2,MDCI,CIPSI,MRCI,RASCI and CIS
      => If you want to overwrite this, your respective input block should be placed after the MaxCore statement


***************************************
The coordinates will be read from file: /home/jannes/chlorophyll-ladder/007-mg-core-ladder/mgporphin/01_opt/mgporphin_opt_b3lypd4_tzvp.xyz
***************************************


XCFun DFT library Copyright 2009-2010 Ulf Ekstrom and contributors.
See http://admol.org/xcfun for more information.
This is free software; see the source code for copying conditions.
There is ABSOLUTELY NO WARRANTY; not even for MERCHANTABILITY or FITNESS FOR A PARTICULAR PURPOSE.
For details see the documentation.
Scientific users of this library should cite U. Ekstrom, L. Visscher, R. Bast, A. J. Thorvaldsen and K. Ruud;
J.Chem.Theor.Comp. 2010, DOI: 10.1021/ct100117s
XCFun Version 0.99 

================================================================================

----- Orbital basis set information -----
Your calculation utilizes the basis: def2-TZVP
   F. Weigend and R. Ahlrichs, Phys. Chem. Chem. Phys. 7, 3297 (2005).

----- AuxJ basis set information -----
Your calculation utilizes the auxiliary basis: def2/J
   H-Rn: F. Weigend, Phys. Chem. Chem. Phys. 8, 1057 (2006).
   Fr-Lr: K. Eichkorn, F. Weigend, O. Treutler, R. Ahlrichs; Theor. Chem. Acc. 97, 119 (1997).

================================================================================
                                        WARNINGS
                       Please study these warnings very carefully!
================================================================================


WARNING: CIS/ROCIS methods need fully converged wavefunctions
  ===> : Setting SCFConvForced true
         You can overwrite this default with %scf ConvForced false 


================================================================================
                                       INPUT FILE
================================================================================
NAME = tddft.inp
|  1> %pal nprocs 4 end
|  2> %maxcore 3000
|  3> ! CAM-B3LYP def2-TZVP def2/J RIJCOSX DefGrid3 TightSCF
|  4> %tddft
|  5>   nroots 30
|  6>   triplets false
|  7> end
|  8> * xyzfile 0 1 /home/jannes/chlorophyll-ladder/007-mg-core-ladder/mgporphin/01_opt/mgporphin_opt_b3lypd4_tzvp.xyz
|  9> 
| 10>                          ****END OF INPUT****
================================================================================

                       ****************************
                       * Single Point Calculation *
                       ****************************

---------------------------------
CARTESIAN COORDINATES (ANGSTROEM)
---------------------------------
  N     -2.126632    2.522518    3.528336
  H      1.688951   -2.244306    3.936854
  C     -4.367453    3.014298    3.517091
  C     -0.399300   -1.569210    3.904114
  N      0.091157    0.660020    3.674254
  C      0.955251   -1.456037    3.870452
  H     -0.988023   -2.467894    4.003531
  C      2.861647    1.841375    3.512926
  N     -0.259245    4.727154    3.281236
  C     -1.123334    6.843238    3.085343
  C      2.534867    0.494152    3.650974
  C      2.674027    4.023168    3.301567
  N      1.958546    2.864658    3.427339
  C      4.083452    3.721259    3.307939
  C     -0.935449   -0.237004    3.780431
  C      1.256233   -0.053833    3.726030
  C     -2.842123    1.364011    3.654087
  C     -3.029725    3.545804    3.442713
  C     -4.251542    1.665928    3.647704
  C     -2.289528    0.090486    3.770544
  C     -2.702948    4.893026    3.304662
  C      4.199367    2.372883    3.438500
  C     -1.424318    5.441018    3.229591
  C      0.231221    6.956420    3.051755
  C      2.121440    5.296697    3.185130
  C      0.767360    5.624187    3.175204
  H     -5.271397    3.601806    3.474297
  H     -5.042401    0.936910    3.732428
  H     -2.986818   -0.732582    3.863624
  H      3.363051   -0.201104    3.706153
  H      5.103317    1.785376    3.481270
  H      4.874295    4.450291    3.223211
  H      2.818737    6.119763    3.092108
  H      0.819955    7.855111    2.952489
  H     -3.531147    5.588265    3.249501
  H     -1.857042    7.631509    3.019026
  Mg    -0.084042    2.693585    3.477789

----------------------------
CARTESIAN COORDINATES (A.U.)
----------------------------
  NO LB      ZA    FRAG     MASS         X           Y           Z
   0 N     7.0000    0    14.007   -4.018753    4.766868    6.667589
   1 H     1.0000    0     1.008    3.191655   -4.241124    7.439576
   2 C     6.0000    0    12.011   -8.253290    5.696197    6.646338
   3 C     6.0000    0    12.011   -0.754567   -2.965378    7.377707
   4 N     7.0000    0    14.007    0.172263    1.247257    6.943333
   5 C     6.0000    0    12.011    1.805164   -2.751510    7.314095
   6 H     1.0000    0     1.008   -1.867093   -4.663643    7.565577
   7 C     6.0000    0    12.011    5.407728    3.479694    6.638469
   8 N     7.0000    0    14.007   -0.489901    8.933026    6.200637
   9 C     6.0000    0    12.011   -2.122794   12.931846    5.830453
  10 C     6.0000    0    12.011    4.790204    0.933812    6.899342
  11 C     6.0000    0    12.011    5.053178    7.602686    6.239058
  12 N     7.0000    0    14.007    3.701116    5.413420    6.476731
  13 C     6.0000    0    12.011    7.716607    7.032160    6.251099
  14 C     6.0000    0    12.011   -1.767742   -0.447872    7.143980
  15 C     6.0000    0    12.011    2.373936   -0.101729    7.041177
  16 C     6.0000    0    12.011   -5.370834    2.577607    6.905224
  17 C     6.0000    0    12.011   -5.725351    6.700598    6.505785
  18 C     6.0000    0    12.011   -8.034249    3.148147    6.893162
  19 C     6.0000    0    12.011   -4.326581    0.170994    7.125295
  20 C     6.0000    0    12.011   -5.107832    9.246479    6.244906
  21 C     6.0000    0    12.011    7.935654    4.484099    6.497823
  22 C     6.0000    0    12.011   -2.691571   10.282033    6.103042
  23 C     6.0000    0    12.011    0.436944   13.145729    5.766981
  24 C     6.0000    0    12.011    4.008940   10.009307    6.019023
  25 C     6.0000    0    12.011    1.450100   10.628173    6.000267
  26 H     1.0000    0     1.008   -9.961497    6.806428    6.565470
  27 H     1.0000    0     1.008   -9.528758    1.770503    7.053266
  28 H     1.0000    0     1.008   -5.644268   -1.384379    7.301191
  29 H     1.0000    0     1.008    6.355246   -0.380031    7.003613
  30 H     1.0000    0     1.008    9.643871    3.373872    6.578646
  31 H     1.0000    0     1.008    9.211083    8.409831    6.090987
  32 H     1.0000    0     1.008    5.326641   11.564676    5.843236
  33 H     1.0000    0     1.008    1.549490   14.844008    5.579396
  34 H     1.0000    0     1.008   -6.672901   10.560290    6.140667
  35 H     1.0000    0     1.008   -3.509300   14.421462    5.705132
  36 Mg   12.0000    0    24.305   -0.158817    5.090138    6.572068

--------------------------------
INTERNAL COORDINATES (ANGSTROEM)
--------------------------------
 N      0   0   0     0.000000000000     0.00000000     0.00000000
 H      1   0   0     6.119491276487     0.00000000     0.00000000
 C      1   2   0     2.294177409054   140.92453006     0.00000000
 C      2   1   3     2.194906869500    33.50915004     0.03654954
 N      4   2   1     2.294090550086    95.56469348     0.04751811
 C      2   1   3     1.078931462307     4.27284844     0.40083788
 H      4   2   1     1.078939583961   105.16341269   180.06430126
 C      5   4   2     3.016162461030   125.61516112   359.95655471
 N      1   2   6     2.899761601367   101.32570715   180.34880946
 C      9   1   2     2.294087441504   117.77531267   179.96469761
 C      8   5   4     1.393144250589    53.16437800     0.06876310
 C      8   5   4     2.200021689544   108.37491839   180.08468447
 N     12   8   5     1.367433868161    36.44673543     0.00000000
 C     12   8   5     1.441412676383    73.05033634   180.01204037
 C      5   4   2     1.367422885977    36.31868910   180.00102268
 C      5   4   2     1.367357644410    70.79572404     0.00000000
 C      1   2   6     1.367434647900    70.13306991     0.35586623
 C      1   2   6     1.367487791728   177.24111910     0.97900926
 C      3   1   2     1.359631242567    72.76301102   359.95357395
 C     17   1   2     1.393122060686   125.07310744     0.00000000
 C     18   1  17     1.393143327356   125.09478022   180.00966439
 C     14  12   8     1.359631880754   106.94820236     0.00000000
 C      9   1   2     1.367356903781    81.45605938   180.00111785
 C     10   9   1     1.359689963047    72.76177076   180.05889371
 C     12   8   5     1.393121008199   161.52060847   359.96153148
 C      9   1   2     1.367416327023   171.42924741     0.34052806
 H      3   1   2     1.078940742119   159.26701397   179.95498931
 H     19   3   1     1.078936604777   127.96204490   180.00155066
 H     20  17   1     1.082736356593   116.52889429   179.96077396
 H     11   8   5     1.082734663195   116.52549896   180.00584317
 H     22  14  12     1.078943065563   127.96985474   179.99900777
 H     14  12   8     1.078934265943   125.08876244   180.00062158
 H     25  12   8     1.082734522723   116.52871416   180.07456094
 H     24  10   9     1.078937518569   127.96698994   179.97965206
 H     21  18   1     1.082734010826   116.52436251   179.96628297
 H     10   9   1     1.078932341162   159.27697815     0.03817484
 Mg    13  12   8     2.050360529877   126.45537008   180.01043791

---------------------------
INTERNAL COORDINATES (A.U.)
---------------------------
 N      0   0   0     0.000000000000     0.00000000     0.00000000
 H      1   0   0    11.564162591480     0.00000000     0.00000000
 C      1   2   0     4.335367005742   140.92453006     0.00000000
 C      2   1   3     4.147772872818    33.50915004     0.03654954
 N      4   2   1     4.335202866080    95.56469348     0.04751811
 C      2   1   3     2.038884981031     4.27284844     0.40083788
 H      4   2   1     2.038900328733   105.16341269   180.06430126
 C      5   4   2     5.699721026761   125.61516112   359.95655471
 N      1   2   6     5.479755280244   101.32570715   180.34880946
 C      9   1   2     4.335196991710   117.77531267   179.96469761
 C      8   5   4     2.632661098659    53.16437800     0.06876310
 C      8   5   4     4.157438481924   108.37491839   180.08468447
 N     12   8   5     2.584075517072    36.44673543     0.00000000
 C     12   8   5     2.723875204326    73.05033634   180.01204037
 C      5   4   2     2.584054763752    36.31868910   180.00102268
 C      5   4   2     2.583931475058    70.79572404     0.00000000
 C      1   2   6     2.584076990566    70.13306991     0.35586623
 C      1   2   6     2.584177417846   177.24111910     0.97900926
 C      3   1   2     2.569330691574    72.76301102   359.95357395
 C     17   1   2     2.632619165820   125.07310744     0.00000000
 C     18   1  17     2.632659354002   125.09478022   180.00966439
 C     14  12   8     2.569331897574   106.94820236     0.00000000
 C      9   1   2     2.583930075473    81.45605938   180.00111785
 C     10   9   1     2.569441657201    72.76177076   180.05889371
 C     12   8   5     2.632617176909   161.52060847   359.96153148
 C      9   1   2     2.584042369125   171.42924741     0.34052806
 H      3   1   2     2.038902517335   159.26701397   179.95498931
 H     19   3   1     2.038894698891   127.96204490   180.00155066
 H     20  17   1     2.046075189201   116.52889429   179.96077396
 H     11   8   5     2.046071989142   116.52549896   180.00584317
 H     22  14  12     2.038906908008   127.96985474   179.99900777
 H     14  12   8     2.038890279135   125.08876244   180.00062158
 H     25  12   8     2.046071723688   116.52871416   180.07456094
 H     24  10   9     2.038896425708   127.96698994   179.97965206
 H     21  18   1     2.046070756344   116.52436251   179.96628297
 H     10   9   1     2.038886641826   159.27697815     0.03817484
 Mg    13  12   8     3.874619877269   126.45537008   180.01043791

---------------------
BASIS SET INFORMATION
---------------------
There are 4 groups of distinct atoms

 Group   1 Type N   : 11s6p2d1f contracted to 5s3p2d1f pattern {62111/411/11/1}
 Group   2 Type H   : 5s1p contracted to 3s1p pattern {311/1}
 Group   3 Type C   : 11s6p2d1f contracted to 5s3p2d1f pattern {62111/411/11/1}
 Group   4 Type Mg  : 14s8p3d contracted to 5s4p3d pattern {73211/5111/111}

Atom   0N    basis set group =>   1
Atom   1H    basis set group =>   2
Atom   2C    basis set group =>   3
Atom   3C    basis set group =>   3
Atom   4N    basis set group =>   1
Atom   5C    basis set group =>   3
Atom   6H    basis set group =>   2
Atom   7C    basis set group =>   3
Atom   8N    basis set group =>   1
Atom   9C    basis set group =>   3
Atom  10C    basis set group =>   3
Atom  11C    basis set group =>   3
Atom  12N    basis set group =>   1
Atom  13C    basis set group =>   3
Atom  14C    basis set group =>   3
Atom  15C    basis set group =>   3
Atom  16C    basis set group =>   3
Atom  17C    basis set group =>   3
Atom  18C    basis set group =>   3
Atom  19C    basis set group =>   3
Atom  20C    basis set group =>   3
Atom  21C    basis set group =>   3
Atom  22C    basis set group =>   3
Atom  23C    basis set group =>   3
Atom  24C    basis set group =>   3
Atom  25C    basis set group =>   3
Atom  26H    basis set group =>   2
Atom  27H    basis set group =>   2
Atom  28H    basis set group =>   2
Atom  29H    basis set group =>   2
Atom  30H    basis set group =>   2
Atom  31H    basis set group =>   2
Atom  32H    basis set group =>   2
Atom  33H    basis set group =>   2
Atom  34H    basis set group =>   2
Atom  35H    basis set group =>   2
Atom  36Mg   basis set group =>   4
---------------------------------
AUXILIARY/J BASIS SET INFORMATION
---------------------------------
There are 4 groups of distinct atoms

 Group   1 Type N   : 12s5p4d2f1g contracted to 6s4p3d1f1g pattern {711111/2111/211/2/1}
 Group   2 Type H   : 5s2p1d contracted to 3s1p1d pattern {311/2/1}
 Group   3 Type C   : 12s5p4d2f1g contracted to 6s4p3d1f1g pattern {711111/2111/211/2/1}
 Group   4 Type Mg  : 14s5p5d2f1g contracted to 8s4p4d1f1g pattern {71111111/2111/2111/2/1}

Atom   0N    basis set group =>   1
Atom   1H    basis set group =>   2
Atom   2C    basis set group =>   3
Atom   3C    basis set group =>   3
Atom   4N    basis set group =>   1
Atom   5C    basis set group =>   3
Atom   6H    basis set group =>   2
Atom   7C    basis set group =>   3
Atom   8N    basis set group =>   1
Atom   9C    basis set group =>   3
Atom  10C    basis set group =>   3
Atom  11C    basis set group =>   3
Atom  12N    basis set group =>   1
Atom  13C    basis set group =>   3
Atom  14C    basis set group =>   3
Atom  15C    basis set group =>   3
Atom  16C    basis set group =>   3
Atom  17C    basis set group =>   3
Atom  18C    basis set group =>   3
Atom  19C    basis set group =>   3
Atom  20C    basis set group =>   3
Atom  21C    basis set group =>   3
Atom  22C    basis set group =>   3
Atom  23C    basis set group =>   3
Atom  24C    basis set group =>   3
Atom  25C    basis set group =>   3
Atom  26H    basis set group =>   2
Atom  27H    basis set group =>   2
Atom  28H    basis set group =>   2
Atom  29H    basis set group =>   2
Atom  30H    basis set group =>   2
Atom  31H    basis set group =>   2
Atom  32H    basis set group =>   2
Atom  33H    basis set group =>   2
Atom  34H    basis set group =>   2
Atom  35H    basis set group =>   2
Atom  36Mg   basis set group =>   4


           ************************************************************
           *        Program running with 4 parallel MPI-processes     *
           *              working on a common directory               *
           ************************************************************
------------------------------------------------------------------------------
                             ORCA STARTUP CALCULATIONS
                           -- RI-GTO INTEGRALS CHOSEN --
------------------------------------------------------------------------------
------------------------------------------------------------------------------
                   ___                                                        
                  /   \      - P O W E R E D   B Y -                         
                 /     \                                                     
                 |  |  |   _    _      __       _____    __    __             
                 |  |  |  | |  | |    /  \     |  _  \  |  |  /  |          
                  \  \/   | |  | |   /    \    | | | |  |  | /  /          
                 / \  \   | |__| |  /  /\  \   | |_| |  |  |/  /          
                |  |  |   |  __  | /  /__\  \  |    /   |      \           
                |  |  |   | |  | | |   __   |  |    \   |  |\   \          
                \     /   | |  | | |  |  |  |  | |\  \  |  | \   \       
                 \___/    |_|  |_| |__|  |__|  |_| \__\ |__|  \__/        
                                                                              
                      - O R C A' S   B I G   F R I E N D -                    
                                      &                                       
                       - I N T E G R A L  F E E D E R -                       
                                                                              
 v1 FN, 2020, v2 2021, v3 2022-2024                                           
------------------------------------------------------------------------------


----------------------
SHARK INTEGRAL PACKAGE
----------------------

Number of atoms                             ...     37
Number of basis functions                   ...    848
Number of shells                            ...    324
Maximum angular momentum                    ...      3
Integral batch strategy                     ... SHARK/LIBINT Hybrid
RI-J (if used) integral strategy            ... SPLIT-RIJ (Revised 2003 algorithm where possible)
Printlevel                                  ...      1
Contraction scheme used                     ... SEGMENTED contraction
Prescreening option                         ... SCHWARTZ
   Thresh                                   ... 2.500e-11
   Tcut                                     ... 2.500e-12
   Tpresel                                  ... 2.500e-12 
Coulomb Range Separation                    ... NOT USED
Exchange Range Separation                   ... Long Range
   Mu parameter                             ... 3.300e-01
   Scaling (regular/separated)              ... 1.900e-01 4.600e-01
Robust (split-)RI terms used:
  metric    (central integrals)             ... YES
  density   (r.h.s.  integrals)             ... YES
  potential (l.h.s.  integrals)             ... YES
Multipole approximations                    ... NOT USED
Finite Nucleus Model                        ... NOT USED
CABS basis                                  ... NOT available
Auxiliary Coulomb fitting basis             ... AVAILABLE
   # of basis functions in Aux-J            ...   1364
   # of shells in Aux-J                     ...    438
   Maximum angular momentum in Aux-J        ...      4
Auxiliary J/K fitting basis                 ... NOT available
Auxiliary Correlation fitting basis         ... NOT available
Auxiliary 'external' fitting basis          ... NOT available

Checking pre-screening integrals            ... done (  0.0 sec) Dimension = 324
   => SHARK Basis and OBASIS are compatible. Storing Pre-screening
Shell pair information
Shell pair cut-off parameter TPreSel        ...   2.5e-12
Total number of shell pairs                 ...     52650
Shell pairs after pre-screening             ...     37452
Total number of primitive shell pairs       ...    167352
Primitive shell pairs kept                  ...     77858
          la=0 lb=0:   8711 shell pairs
          la=1 lb=0:  10604 shell pairs
          la=1 lb=1:   3186 shell pairs
          la=2 lb=0:   5583 shell pairs
          la=2 lb=1:   3500 shell pairs
          la=2 lb=2:    986 shell pairs
          la=3 lb=0:   2388 shell pairs
          la=3 lb=1:   1536 shell pairs
          la=3 lb=2:    788 shell pairs
          la=3 lb=3:    170 shell pairs

Checking whether 4 symmetric matrices of dimension 848 fit in memory
:Max Core in MB      =   3000.00
 MB in use           =     49.24
 MB left             =   2950.76
 MB needed           =     10.99
 Data fit in memory  = YES
Calculating RI/J V-Matrix + Cholesky decomp.... done (  0.2 sec)
Calculating Nuclear repulsion               ... done (  0.0 sec) ENN=   2121.711186967779 Eh

Diagonalization of the overlap matrix:
Smallest eigenvalue                        ... 1.003e-05
Time for diagonalization                   ...    0.202 sec
Threshold for overlap eigenvalues          ... 1.000e-07
Number of eigenvalues below threshold      ... 0
Time for construction of square roots      ...    0.109 sec
Total time needed                          ...    0.320 sec

-------------------
DFT GRID GENERATION
-------------------

General Integration Accuracy     IntAcc      ... 4.959
Radial Grid Type                 RadialGrid  ... OptM3 with GC (2021)
Angular Grid (max. ang.)         AngularGrid ... 6 (Lebedev-590)
Angular grid pruning method      GridPruning ... 4 (adaptive)
Weight generation scheme         WeightScheme... mBecke (2022)
Basis function cutoff            BFCut       ... 1.0000e-11
Integration weight cutoff        WCut        ... 1.0000e-14
Partially contracted basis set               ... off
Rotationally invariant grid construction     ... off
Angular grids for H and He will be reduced by one unit

Total number of grid points                  ...   456655
Total number of batches                      ...     7152
Average number of points per batch           ...       63
Average number of grid points per atom       ...    12342

--------------------
COSX GRID GENERATION
--------------------

GRIDX 1
-------
General Integration Accuracy     IntAcc      ... 4.020
Radial Grid Type                 RadialGrid  ... OptM3 with GC (2021)
Angular Grid (max. ang.)         AngularGrid ... 2 (Lebedev-110)
Angular grid pruning method      GridPruning ... 4 (adaptive)
Weight generation scheme         WeightScheme... mBecke (2022)
Basis function cutoff            BFCut       ... 1.0000e-11
Integration weight cutoff        WCut        ... 1.0000e-14
Partially contracted basis set               ... on
Rotationally invariant grid construction     ... off
Angular grids for H and He will be reduced by one unit

Total number of grid points                  ...    52690
Total number of batches                      ...      428
Average number of points per batch           ...      123
Average number of grid points per atom       ...     1424
UseSFitting                                  ... on

GRIDX 2
-------
General Integration Accuracy     IntAcc      ... 4.338
Radial Grid Type                 RadialGrid  ... OptM3 with GC (2021)
Angular Grid (max. ang.)         AngularGrid ... 3 (Lebedev-194)
Angular grid pruning method      GridPruning ... 4 (adaptive)
Weight generation scheme         WeightScheme... mBecke (2022)
Basis function cutoff            BFCut       ... 1.0000e-11
Integration weight cutoff        WCut        ... 1.0000e-14
Partially contracted basis set               ... on
Rotationally invariant grid construction     ... off
Angular grids for H and He will be reduced by one unit

Total number of grid points                  ...   116101
Total number of batches                      ...      923
Average number of points per batch           ...      125
Average number of grid points per atom       ...     3138
UseSFitting                                  ... on

GRIDX 3
-------
General Integration Accuracy     IntAcc      ... 4.871
Radial Grid Type                 RadialGrid  ... OptM3 with GC (2021)
Angular Grid (max. ang.)         AngularGrid ... 4 (Lebedev-302)
Angular grid pruning method      GridPruning ... 4 (adaptive)
Weight generation scheme         WeightScheme... mBecke (2022)
Basis function cutoff            BFCut       ... 1.0000e-11
Integration weight cutoff        WCut        ... 1.0000e-14
Partially contracted basis set               ... on
Rotationally invariant grid construction     ... off
Angular grids for H and He will be reduced by one unit

Total number of grid points                  ...   212436
Total number of batches                      ...     1675
Average number of points per batch           ...      126
Average number of grid points per atom       ...     5742
UseSFitting                                  ... on
Grids setup in  14.4 sec
Initializing property integral containers    ... done (  0.0 sec)

SHARK setup successfully completed in  15.8 seconds

Maximum memory used throughout the entire STARTUP-calculation: 148.4 MB


           ************************************************************
           *        Program running with 4 parallel MPI-processes     *
           *              working on a common directory               *
           ************************************************************
-------------------------------------------------------------------------------
                                 ORCA GUESS
                   Start orbitals & Density for SCF / CASSCF
-------------------------------------------------------------------------------

------------
SCF SETTINGS
------------
Hamiltonian:
 Density Functional     Method          .... DFT(GTOs)
 Exchange Functional    Exchange        .... WB88
 Correlation Functional Correlation     .... LYP
 LDA part of GGA corr.  LDAOpt          .... VWN-5
 Gradients option       PostSCFGGA      .... off
 Hybrid DFT is turned on
   Fraction HF Exchange ScalHFX         ....  0.190000
   Scaling of DF-GGA-X  ScalDFX         ....  0.350000
   Scaling of DF-GGA-C  ScalDFC         ....  0.810000
   Scaling of DF-LDA-C  ScalLDAC        ....  1.000000
   Perturbative correction              ....  0.000000
 Long-range corrected/Screened/Range-Separated Hybrid DFT is turned on
   Amount of maximum screened exact exchange              ....  0.460000
   Range separation parameter mu (erf(mu*r12)/r12)        ....  0.330000
 RI-approximation to the Coulomb term is turned on
   Number of AuxJ basis functions       .... 1364
   RIJ-COSX (HFX calculated with COS-X)).... on


General Settings:
 Integral files         IntName         .... tddft
 Hartree-Fock type      HFTyp           .... RHF
 Total Charge           Charge          ....    0
 Multiplicity           Mult            ....    1
 Number of Electrons    NEL             ....  172
 Basis Dimension        Dim             ....  848
 Nuclear Repulsion      ENuc            ....   2121.7111869678 Eh

Convergence Acceleration:
 AO-DIIS                CNVDIIS         .... on
   Start iteration      DIISMaxIt       ....    12
   Startup error        DIISStart       ....  0.200000
   # of expansion vecs  DIISMaxEq       ....     5
   Bias factor          DIISBfac        ....   1.050
   Max. coefficient     DIISMaxC        ....  10.000
 MO-DIIS                CNVKDIIS        .... off
 Trust-Rad. Augm. Hess. CNVTRAH         .... auto
   Auto Start mean grad. ratio tolernc. ....  1.125000
   Auto Start start iteration           ....    50
   Auto Start num. interpolation iter.  ....    10
   Max. Number of Micro iterations      ....    24
   Max. Number of Macro iterations      .... Maxiter - #DIIS iter
   Number of Davidson start vectors     ....     2
   Converg. threshold    (grad. norm)   ....   1.000e-05
   Grad. Scal. Fac. for Micro threshold ....   0.100
   Minimum threshold for Micro iter.    ....   1.000e-02
   NR start threshold (gradient norm)   ....   1.000e-04
   Initial trust radius                 ....   0.400
   Minimum AH scaling param. (alpha)    ....   1.000
   Maximum AH scaling param. (alpha)    .... 1000.000
   Quad. conv. algorithm                .... NR
   White noise on init. David. guess    .... on
   Maximum white noise                  ....   0.010
   Pseudo random numbers                .... off
   Inactive MOs                         .... canonical
   Orbital update algorithm             .... Taylor
   Preconditioner                       .... Diag
   Full preconditioner red. dimension   ....   250
 SOSCF                 CNVSOSCF           .... on
   Start iteration     SOSCFMaxIt         ....   150
   Startup grad/error  SOSCFStart         ....  0.003300
   Hessian update      SOSCFHessUp        .... L-BFGS
   Autom. constraints  SOSCFAutoConstrain .... off
 Level Shifting         CNVShift        .... on
   Level shift para.    LevelShift      ....    0.2500
   Turn off err/grad.   ShiftErr        ....    0.0010
 Zerner damping         CNVZerner       .... off
 Static damping         CNVDamp         .... on
   Fraction old density DampFac         ....    0.7000
   Max. Damping (<1)    DampMax         ....    0.9800
   Min. Damping (>=0)   DampMin         ....    0.0000
   Turn off err/grad.   DampErr         ....    0.1000

SCF Procedure:
 Maximum # iterations   MaxIter         ....   125
 SCF integral mode      SCFMode         .... Direct
   Integral package                     .... SHARK and LIBINT hybrid scheme
 Reset frequency        DirectResetFreq ....    20
 Integral Threshold     Thresh          ....  2.500e-11 Eh
 Primitive CutOff       TCut            ....  2.500e-12 Eh

Convergence Tolerance:
 Convergence Check Mode ConvCheckMode   .... Total+1el-Energy
 Convergence forced     ConvForced      .... 1
 Energy Change          TolE            ....  1.000e-08 Eh
 1-El. energy change                    ....  1.000e-05 Eh
 Orbital Gradient       TolG            ....  1.000e-05
 Orbital Rotation angle TolX            ....  1.000e-05
 DIIS Error             TolErr          ....  5.000e-07

------------------------------
INITIAL GUESS: MODEL POTENTIAL
------------------------------
Loading Hartree-Fock densities                     ... done
Calculating cut-offs                               ... done
Initializing the effective Hamiltonian             ... done
Setting up the integral package (SHARK)            ... done
Starting the Coulomb interaction                   ... done (   1.7 sec)
Making the grid                                    ... done (   0.6 sec)
Mapping shells                                     ... done
Starting the XC term evaluation                    ... done (   0.9 sec)
  promolecular density results
     # of electrons  =    171.995110955
     EX              =   -148.115499445
     EC              =     -5.855479608
     EX+EC           =   -153.970979052
Transforming the Hamiltonian                       ... done (   0.1 sec)
Diagonalizing the Hamiltonian                      ... done (   0.2 sec)
Back transforming the eigenvectors                 ... done (   0.1 sec)
Now organizing SCF variables                       ... done
                      ------------------
                      INITIAL GUESS DONE (   3.6 sec)
                      ------------------
             **** ENERGY FILE WAS UPDATED (tddft.en.tmp) ****
Finished Guess after   4.0 sec
Maximum memory used throughout the entire GUESS-calculation: 83.5 MB


           ************************************************************
           *        Program running with 4 parallel MPI-processes     *
           *              working on a common directory               *
           ************************************************************

-------------------------------------------------------------------------------------------
                                      ORCA LEAN-SCF
                              memory conserving SCF solver
-------------------------------------------------------------------------------------------

----------------------------------------D-I-I-S--------------------------------------------
Iteration    Energy (Eh)           Delta-E    RMSDP     MaxDP     DIISErr   Damp  Time(sec)
-------------------------------------------------------------------------------------------
               ***  Starting incremental Fock matrix formation  ***
    1    -1187.8953732867830695     0.00e+00  2.34e-03  5.37e-02  2.10e-01  0.700 139.4
    2    -1188.1096785543932128    -2.14e-01  1.81e-03  4.04e-02  1.07e-01  0.700  59.2
                               ***Turning on AO-DIIS***
    3    -1188.2123349802877783    -1.03e-01  1.12e-03  3.43e-02  4.17e-02  0.700  57.2
    4    -1188.2735443183883035    -6.12e-02  2.43e-03  8.03e-02  2.83e-02  0.000  54.1
    5    -1188.4047185961753712    -1.31e-01  1.84e-04  4.08e-03  3.92e-03  0.000  83.8
                              *** Initializing SOSCF ***
---------------------------------------S-O-S-C-F--------------------------------------
Iteration    Energy (Eh)           Delta-E    RMSDP     MaxDP     MaxGrad    Time(sec)
--------------------------------------------------------------------------------------
    6    -1188.4051718164564591    -4.53e-04  7.33e-05  1.53e-03  1.84e-03    48.3
               *** Restarting incremental Fock matrix formation ***
    7    -1188.4052137665812552    -4.20e-05  6.13e-05  2.36e-03  4.68e-04   170.3
    8    -1188.4052223410603801    -8.57e-06  3.10e-05  8.45e-04  2.35e-04   111.7
    9    -1188.4052225382815777    -1.97e-07  1.86e-05  6.87e-04  2.06e-04   100.5
   10    -1188.4052238360654883    -1.30e-06  4.04e-06  8.51e-05  1.26e-05   112.3
   11    -1188.4052238003714592     3.57e-08  4.18e-06  8.52e-05  1.31e-05    67.3
   12    -1188.4052238233248318    -2.30e-08  5.35e-06  1.09e-04  1.99e-06    73.2
                  *** Gradient check signals convergence ***

               *****************************************************
               *                     SUCCESS                       *
               *           SCF CONVERGED AFTER  12 CYCLES          *
               *****************************************************

Recomputing exchange energy using gridx3       ... done (  297.562 sec)
Old exchange energy                            :    -42.088573777 Eh
New exchange energy                            :    -42.088574953 Eh
Exchange energy change after final integration :     -0.000001176 Eh
Total energy after final integration           :  -1188.405225038 Eh
             **** ENERGY FILE WAS UPDATED (tddft.en.tmp) ****

----------------
TOTAL SCF ENERGY
----------------

Total Energy       :      -1188.40522503830653 Eh          -32338.15021 eV

Components:
Nuclear Repulsion  :       2121.71118696777876 Eh           57734.69657 eV
Electronic Energy  :      -3310.11641082990400 Eh          -90072.84675 eV
One Electron Energy:      -5838.65185898286290 Eh         -158877.79427 eV
Two Electron Energy:       2528.53544815295891 Eh           68804.94752 eV

Virial components:
Potential Energy   :      -2371.61469410882364 Eh          -64534.91672 eV
Kinetic Energy     :       1183.20946907051689 Eh           32196.76651 eV
Virial Ratio       :          2.00439123933979

DFT components:
N(Alpha)           :       86.000002479039 electrons
N(Beta)            :       86.000002479039 electrons
N(Total)           :      172.000004958079 electrons
E(XC)              :     -114.989306772215 Eh       

---------------
SCF CONVERGENCE
---------------

  Last Energy change         ...    2.2953e-08  Tolerance :   1.0000e-08
  Last MAX-Density change    ...    1.0943e-04  Tolerance :   1.0000e-07
  Last RMS-Density change    ...    5.3474e-06  Tolerance :   5.0000e-09
  Last DIIS Error            ...    1.8406e-03  Tolerance :   5.0000e-07
  Last Orbital Gradient      ...    1.9947e-06  Tolerance :   1.0000e-05
  Last Orbital Rotation      ...    8.9839e-06  Tolerance :   1.0000e-05


----------------
ORBITAL ENERGIES
----------------

  NO   OCC          E(Eh)            E(eV) 
   0   2.0000     -46.833289     -1274.3986 
   1   2.0000     -14.376605      -391.2073 
   2   2.0000     -14.376598      -391.2071 
   3   2.0000     -14.376592      -391.2069 
   4   2.0000     -14.376586      -391.2068 
   5   2.0000     -10.282598      -279.8037 
   6   2.0000     -10.282594      -279.8036 
   7   2.0000     -10.282586      -279.8034 
   8   2.0000     -10.282583      -279.8033 
   9   2.0000     -10.282548      -279.8023 
  10   2.0000     -10.282547      -279.8023 
  11   2.0000     -10.282540      -279.8021 
  12   2.0000     -10.282539      -279.8021 
  13   2.0000     -10.257230      -279.1134 
  14   2.0000     -10.257223      -279.1132 
  15   2.0000     -10.257223      -279.1132 
  16   2.0000     -10.257216      -279.1130 
  17   2.0000     -10.249531      -278.9039 
  18   2.0000     -10.249530      -278.9039 
  19   2.0000     -10.249526      -278.9038 
  20   2.0000     -10.249523      -278.9037 
  21   2.0000     -10.248789      -278.8837 
  22   2.0000     -10.248787      -278.8837 
  23   2.0000     -10.248785      -278.8836 
  24   2.0000     -10.248784      -278.8836 
  25   2.0000      -3.122098       -84.9566 
  26   2.0000      -1.869560       -50.8733 
  27   2.0000      -1.863849       -50.7179 
  28   2.0000      -1.863849       -50.7179 
  29   2.0000      -1.048295       -28.5256 
  30   2.0000      -1.039387       -28.2832 
  31   2.0000      -1.039365       -28.2825 
  32   2.0000      -1.029546       -28.0154 
  33   2.0000      -0.900045       -24.4915 
  34   2.0000      -0.872797       -23.7500 
  35   2.0000      -0.872796       -23.7500 
  36   2.0000      -0.853591       -23.2274 
  37   2.0000      -0.847490       -23.0614 
  38   2.0000      -0.847477       -23.0610 
  39   2.0000      -0.843464       -22.9518 
  40   2.0000      -0.821388       -22.3511 
  41   2.0000      -0.796999       -21.6874 
  42   2.0000      -0.733552       -19.9610 
  43   2.0000      -0.733544       -19.9607 
  44   2.0000      -0.673816       -18.3355 
  45   2.0000      -0.652045       -17.7430 
  46   2.0000      -0.647999       -17.6330 
  47   2.0000      -0.647992       -17.6327 
  48   2.0000      -0.644061       -17.5258 
  49   2.0000      -0.623091       -16.9552 
  50   2.0000      -0.615090       -16.7375 
  51   2.0000      -0.596680       -16.2365 
  52   2.0000      -0.596668       -16.2362 
  53   2.0000      -0.583532       -15.8787 
  54   2.0000      -0.568685       -15.4747 
  55   2.0000      -0.568684       -15.4747 
  56   2.0000      -0.517590       -14.0843 
  57   2.0000      -0.504554       -13.7296 
  58   2.0000      -0.504252       -13.7214 
  59   2.0000      -0.493485       -13.4284 
  60   2.0000      -0.493470       -13.4280 
  61   2.0000      -0.491268       -13.3681 
  62   2.0000      -0.488554       -13.2942 
  63   2.0000      -0.488546       -13.2940 
  64   2.0000      -0.479224       -13.0403 
  65   2.0000      -0.463682       -12.6174 
  66   2.0000      -0.457579       -12.4514 
  67   2.0000      -0.457565       -12.4510 
  68   2.0000      -0.452551       -12.3145 
  69   2.0000      -0.442471       -12.0402 
  70   2.0000      -0.442462       -12.0400 
  71   2.0000      -0.436700       -11.8832 
  72   2.0000      -0.435382       -11.8473 
  73   2.0000      -0.433917       -11.8075 
  74   2.0000      -0.392859       -10.6902 
  75   2.0000      -0.381433       -10.3793 
  76   2.0000      -0.381410       -10.3787 
  77   2.0000      -0.350304        -9.5323 
  78   2.0000      -0.342759        -9.3270 
  79   2.0000      -0.342758        -9.3269 
  80   2.0000      -0.324368        -8.8265 
  81   2.0000      -0.311936        -8.4882 
  82   2.0000      -0.311927        -8.4880 
  83   2.0000      -0.307750        -8.3743 
  84   2.0000      -0.237390        -6.4597 
  85   2.0000      -0.235044        -6.3959 
  86   0.0000      -0.060377        -1.6429 
  87   0.0000      -0.060363        -1.6426 
  88   0.0000       0.015736         0.4282 
  89   0.0000       0.041820         1.1380 
  90   0.0000       0.068759         1.8710 
  91   0.0000       0.089981         2.4485 
  92   0.0000       0.091926         2.5014 
  93   0.0000       0.093215         2.5365 
  94   0.0000       0.093218         2.5366 
  95   0.0000       0.098790         2.6882 
  96   0.0000       0.098799         2.6884 
*Only the first 10 virtual orbitals were printed.

                    ********************************
                    * MULLIKEN POPULATION ANALYSIS *
                    ********************************

-----------------------
MULLIKEN ATOMIC CHARGES
-----------------------
   0 N :   -0.366014
   1 H :    0.128781
   2 C :   -0.199209
   3 C :   -0.199143
   4 N :   -0.366018
   5 C :   -0.199041
   6 H :    0.128840
   7 C :    0.248188
   8 N :   -0.366013
   9 C :   -0.198922
  10 C :   -0.271199
  11 C :    0.247566
  12 N :   -0.365993
  13 C :   -0.199085
  14 C :    0.248194
  15 C :    0.247544
  16 C :    0.247564
  17 C :    0.248153
  18 C :   -0.199110
  19 C :   -0.271353
  20 C :   -0.271176
  21 C :   -0.199248
  22 C :    0.247398
  23 C :   -0.199223
  24 C :   -0.271358
  25 C :    0.248281
  26 H :    0.128841
  27 H :    0.128826
  28 H :    0.123131
  29 H :    0.123137
  30 H :    0.128822
  31 H :    0.128808
  32 H :    0.123141
  33 H :    0.128821
  34 H :    0.123140
  35 H :    0.128803
  36 Mg:    0.636125
Sum of atomic charges:   -0.0000000

--------------------------------
MULLIKEN REDUCED ORBITAL CHARGES
--------------------------------
  0 N s       :     3.680481  s :     3.680481
      pz      :     1.365237  p :     3.627826
      px      :     1.252240
      py      :     1.010349
      dz2     :     0.004264  d :     0.054194
      dxz     :     0.005565
      dyz     :     0.013572
      dx2y2   :     0.015212
      dxy     :     0.015582
      f0      :     0.000637  f :     0.003513
      f+1     :     0.000309
      f-1     :     0.000400
      f+2     :     0.000100
      f-2     :     0.000571
      f+3     :     0.000598
      f-3     :     0.000899

  1 H s       :     0.849214  s :     0.849214
      pz      :     0.004709  p :     0.022005
      px      :     0.008107
      py      :     0.009189

  2 C s       :     3.250914  s :     3.250914
      pz      :     0.996160  p :     2.867606
      px      :     0.926431
      py      :     0.945015
      dz2     :     0.005404  d :     0.072985
      dxz     :     0.009585
      dyz     :     0.019656
      dx2y2   :     0.013343
      dxy     :     0.024998
      f0      :     0.001429  f :     0.007704
      f+1     :     0.000705
      f-1     :     0.000548
      f+2     :     0.000947
      f-2     :     0.000422
      f+3     :     0.002250
      f-3     :     0.001402

  3 C s       :     3.250775  s :     3.250775
      pz      :     0.996170  p :     2.867682
      px      :     0.944457
      py      :     0.927055
      dz2     :     0.004935  d :     0.072983
      dxz     :     0.020298
      dyz     :     0.009467
      dx2y2   :     0.013242
      dxy     :     0.025041
      f0      :     0.001473  f :     0.007704
      f+1     :     0.000446
      f-1     :     0.000724
      f+2     :     0.000999
      f-2     :     0.000420
      f+3     :     0.001376
      f-3     :     0.002264

  4 N s       :     3.680493  s :     3.680493
      pz      :     1.367345  p :     3.627808
      px      :     1.007003
      py      :     1.253459
      dz2     :     0.004080  d :     0.054204
      dxz     :     0.013813
      dyz     :     0.005482
      dx2y2   :     0.015166
      dxy     :     0.015664
      f0      :     0.000643  f :     0.003514
      f+1     :     0.000386
      f-1     :     0.000316
      f+2     :     0.000096
      f-2     :     0.000567
      f+3     :     0.000907
      f-3     :     0.000598

  5 C s       :     3.250793  s :     3.250793
      pz      :     0.995938  p :     2.867565
      px      :     0.955846
      py      :     0.915781
      dz2     :     0.005162  d :     0.072979
      dxz     :     0.017847
      dyz     :     0.011657
      dx2y2   :     0.013970
      dxy     :     0.024343
      f0      :     0.001462  f :     0.007703
      f+1     :     0.000492
      f-1     :     0.000700
      f+2     :     0.001269
      f-2     :     0.000133
      f+3     :     0.001471
      f-3     :     0.002176

  6 H s       :     0.849154  s :     0.849154
      pz      :     0.004758  p :     0.022006
      px      :     0.006360
      py      :     0.010888

  7 C s       :     3.144457  s :     3.144457
      pz      :     0.900630  p :     2.439541
      px      :     0.776342
      py      :     0.762569
      dz2     :     0.005178  d :     0.153248
      dxz     :     0.029883
      dyz     :     0.037167
      dx2y2   :     0.043427
      dxy     :     0.037592
      f0      :     0.002111  f :     0.014565
      f+1     :     0.000879
      f-1     :     0.001070
      f+2     :     0.000701
      f-2     :     0.002301
      f+3     :     0.003638
      f-3     :     0.003865

  8 N s       :     3.680490  s :     3.680490
      pz      :     1.367339  p :     3.627806
      px      :     1.006999
      py      :     1.253467
      dz2     :     0.004079  d :     0.054204
      dxz     :     0.013813
      dyz     :     0.005482
      dx2y2   :     0.015166
      dxy     :     0.015663
      f0      :     0.000643  f :     0.003514
      f+1     :     0.000386
      f-1     :     0.000316
      f+2     :     0.000096
      f-2     :     0.000567
      f+3     :     0.000907
      f-3     :     0.000598

  9 C s       :     3.250559  s :     3.250559
      pz      :     0.995946  p :     2.867680
      px      :     0.955885
      py      :     0.915849
      dz2     :     0.005160  d :     0.072980
      dxz     :     0.017847
      dyz     :     0.011658
      dx2y2   :     0.013970
      dxy     :     0.024344
      f0      :     0.001462  f :     0.007703
      f+1     :     0.000492
      f-1     :     0.000700
      f+2     :     0.001269
      f-2     :     0.000133
      f+3     :     0.001471
      f-3     :     0.002177

 10 C s       :     3.270172  s :     3.270172
      pz      :     1.015891  p :     2.924856
      px      :     0.963796
      py      :     0.945168
      dz2     :     0.004227  d :     0.069188
      dxz     :     0.013812
      dyz     :     0.017675
      dx2y2   :     0.009233
      dxy     :     0.024242
      f0      :     0.001361  f :     0.006984
      f+1     :     0.000540
      f-1     :     0.000599
      f+2     :     0.000770
      f-2     :     0.000427
      f+3     :     0.001800
      f-3     :     0.001486

 11 C s       :     3.144614  s :     3.144614
      pz      :     0.900113  p :     2.440002
      px      :     0.794825
      py      :     0.745063
      dz2     :     0.005232  d :     0.153253
      dxz     :     0.028922
      dyz     :     0.038095
      dx2y2   :     0.041531
      dxy     :     0.039474
      f0      :     0.002113  f :     0.014565
      f+1     :     0.000805
      f-1     :     0.001142
      f+2     :     0.001119
      f-2     :     0.001894
      f+3     :     0.002606
      f-3     :     0.004887

 12 N s       :     3.680473  s :     3.680473
      pz      :     1.365239  p :     3.627812
      px      :     1.252242
      py      :     1.010330
      dz2     :     0.004264  d :     0.054195
      dxz     :     0.005565
      dyz     :     0.013572
      dx2y2   :     0.015212
      dxy     :     0.015582
      f0      :     0.000637  f :     0.003513
      f+1     :     0.000309
      f-1     :     0.000400
      f+2     :     0.000100
      f-2     :     0.000571
      f+3     :     0.000598
      f-3     :     0.000899

 13 C s       :     3.250734  s :     3.250734
      pz      :     0.996529  p :     2.867670
      px      :     0.914967
      py      :     0.956174
      dz2     :     0.005178  d :     0.072977
      dxz     :     0.012000
      dyz     :     0.017484
      dx2y2   :     0.014096
      dxy     :     0.024218
      f0      :     0.001441  f :     0.007703
      f+1     :     0.000633
      f-1     :     0.000599
      f+2     :     0.001234
      f-2     :     0.000150
      f+3     :     0.002156
      f-3     :     0.001490

 14 C s       :     3.144399  s :     3.144399
      pz      :     0.900391  p :     2.439590
      px      :     0.761315
      py      :     0.777883
      dz2     :     0.004928  d :     0.153252
      dxz     :     0.038116
      dyz     :     0.029301
      dx2y2   :     0.043225
      dxy     :     0.037682
      f0      :     0.002140  f :     0.014566
      f+1     :     0.001010
      f-1     :     0.000898
      f+2     :     0.000725
      f-2     :     0.002272
      f+3     :     0.003886
      f-3     :     0.003635

 15 C s       :     3.144478  s :     3.144478
      pz      :     0.900905  p :     2.440148
      px      :     0.743473
      py      :     0.795769
      dz2     :     0.004851  d :     0.153264
      dxz     :     0.039159
      dyz     :     0.028305
      dx2y2   :     0.041374
      dxy     :     0.039575
      f0      :     0.002139  f :     0.014567
      f+1     :     0.001060
      f-1     :     0.000851
      f+2     :     0.001086
      f-2     :     0.001902
      f+3     :     0.004917
      f-3     :     0.002612

 16 C s       :     3.144630  s :     3.144630
      pz      :     0.900117  p :     2.439983
      px      :     0.794835
      py      :     0.745031
      dz2     :     0.005232  d :     0.153257
      dxz     :     0.028922
      dyz     :     0.038095
      dx2y2   :     0.041532
      dxy     :     0.039476
      f0      :     0.002113  f :     0.014565
      f+1     :     0.000805
      f-1     :     0.001142
      f+2     :     0.001119
      f-2     :     0.001894
      f+3     :     0.002606
      f-3     :     0.004887

 17 C s       :     3.144522  s :     3.144522
      pz      :     0.900637  p :     2.439512
      px      :     0.776289
      py      :     0.762587
      dz2     :     0.005179  d :     0.153248
      dxz     :     0.029884
      dyz     :     0.037166
      dx2y2   :     0.043429
      dxy     :     0.037589
      f0      :     0.002111  f :     0.014565
      f+1     :     0.000879
      f-1     :     0.001070
      f+2     :     0.000701
      f-2     :     0.002301
      f+3     :     0.003638
      f-3     :     0.003866

 18 C s       :     3.250728  s :     3.250728
      pz      :     0.996538  p :     2.867697
      px      :     0.914971
      py      :     0.956189
      dz2     :     0.005179  d :     0.072982
      dxz     :     0.012000
      dyz     :     0.017485
      dx2y2   :     0.014095
      dxy     :     0.024222
      f0      :     0.001441  f :     0.007703
      f+1     :     0.000633
      f-1     :     0.000599
      f+2     :     0.001234
      f-2     :     0.000150
      f+3     :     0.002156
      f-3     :     0.001490

 19 C s       :     3.270421  s :     3.270421
      pz      :     1.016385  p :     2.924762
      px      :     0.944311
      py      :     0.964066
      dz2     :     0.003852  d :     0.069187
      dxz     :     0.018327
      dyz     :     0.013535
      dx2y2   :     0.009273
      dxy     :     0.024198
      f0      :     0.001389  f :     0.006984
      f+1     :     0.000514
      f-1     :     0.000576
      f+2     :     0.000780
      f-2     :     0.000432
      f+3     :     0.001478
      f-3     :     0.001815

 20 C s       :     3.270082  s :     3.270082
      pz      :     1.015882  p :     2.924918
      px      :     0.963873
      py      :     0.945163
      dz2     :     0.004225  d :     0.069192
      dxz     :     0.013812
      dyz     :     0.017675
      dx2y2   :     0.009237
      dxy     :     0.024243
      f0      :     0.001361  f :     0.006984
      f+1     :     0.000540
      f-1     :     0.000599
      f+2     :     0.000770
      f-2     :     0.000427
      f+3     :     0.001800
      f-3     :     0.001486

 21 C s       :     3.250953  s :     3.250953
      pz      :     0.996157  p :     2.867608
      px      :     0.926419
      py      :     0.945032
      dz2     :     0.005404  d :     0.072983
      dxz     :     0.009585
      dyz     :     0.019655
      dx2y2   :     0.013344
      dxy     :     0.024994
      f0      :     0.001429  f :     0.007704
      f+1     :     0.000706
      f-1     :     0.000548
      f+2     :     0.000947
      f-2     :     0.000422
      f+3     :     0.002251
      f-3     :     0.001402

 22 C s       :     3.144524  s :     3.144524
      pz      :     0.900926  p :     2.440237
      px      :     0.743483
      py      :     0.795829
      dz2     :     0.004851  d :     0.153274
      dxz     :     0.039158
      dyz     :     0.028307
      dx2y2   :     0.041379
      dxy     :     0.039579
      f0      :     0.002139  f :     0.014567
      f+1     :     0.001060
      f-1     :     0.000851
      f+2     :     0.001086
      f-2     :     0.001902
      f+3     :     0.004917
      f-3     :     0.002612

 23 C s       :     3.250941  s :     3.250941
      pz      :     0.996164  p :     2.867595
      px      :     0.944423
      py      :     0.927008
      dz2     :     0.004935  d :     0.072983
      dxz     :     0.020298
      dyz     :     0.009468
      dx2y2   :     0.013243
      dxy     :     0.025040
      f0      :     0.001473  f :     0.007704
      f+1     :     0.000446
      f-1     :     0.000724
      f+2     :     0.000999
      f-2     :     0.000420
      f+3     :     0.001376
      f-3     :     0.002264

 24 C s       :     3.270388  s :     3.270388
      pz      :     1.016390  p :     2.924801
      px      :     0.944325
      py      :     0.964086
      dz2     :     0.003853  d :     0.069185
      dxz     :     0.018327
      dyz     :     0.013535
      dx2y2   :     0.009270
      dxy     :     0.024201
      f0      :     0.001389  f :     0.006983
      f+1     :     0.000514
      f-1     :     0.000576
      f+2     :     0.000780
      f-2     :     0.000432
      f+3     :     0.001478
      f-3     :     0.001815

 25 C s       :     3.144391  s :     3.144391
      pz      :     0.900393  p :     2.439514
      px      :     0.761315
      py      :     0.777807
      dz2     :     0.004925  d :     0.153247
      dxz     :     0.038116
      dyz     :     0.029303
      dx2y2   :     0.043227
      dxy     :     0.037677
      f0      :     0.002141  f :     0.014566
      f+1     :     0.001010
      f-1     :     0.000898
      f+2     :     0.000725
      f-2     :     0.002272
      f+3     :     0.003886
      f-3     :     0.003634

 26 H s       :     0.849154  s :     0.849154
      pz      :     0.004682  p :     0.022006
      px      :     0.010963
      py      :     0.006361

 27 H s       :     0.849170  s :     0.849170
      pz      :     0.004731  p :     0.022004
      px      :     0.009215
      py      :     0.008058

 28 H s       :     0.854603  s :     0.854603
      pz      :     0.005164  p :     0.022266
      px      :     0.007660
      py      :     0.009441

 29 H s       :     0.854597  s :     0.854597
      pz      :     0.005113  p :     0.022266
      px      :     0.009501
      py      :     0.007652

 30 H s       :     0.849172  s :     0.849172
      pz      :     0.004682  p :     0.022006
      px      :     0.010963
      py      :     0.006360

 31 H s       :     0.849188  s :     0.849188
      pz      :     0.004731  p :     0.022004
      px      :     0.009215
      py      :     0.008058

 32 H s       :     0.854593  s :     0.854593
      pz      :     0.005164  p :     0.022266
      px      :     0.007660
      py      :     0.009441

 33 H s       :     0.849173  s :     0.849173
      pz      :     0.004758  p :     0.022006
      px      :     0.006360
      py      :     0.010888

 34 H s       :     0.854594  s :     0.854594
      pz      :     0.005113  p :     0.022266
      px      :     0.009501
      py      :     0.007652

 35 H s       :     0.849192  s :     0.849192
      pz      :     0.004708  p :     0.022004
      px      :     0.008107
      py      :     0.009189

 36 Mgs       :     4.597512  s :     4.597512
      pz      :     2.090937  p :     6.481138
      px      :     2.195607
      py      :     2.194594
      dz2     :     0.033174  d :     0.285225
      dxz     :     0.027523
      dyz     :     0.028995
      dx2y2   :     0.179835
      dxy     :     0.015697



                     *******************************
                     * LOEWDIN POPULATION ANALYSIS *
                     *******************************

----------------------
LOEWDIN ATOMIC CHARGES
----------------------
   0 N :    0.176327
   1 H :    0.140664
   2 C :   -0.109498
   3 C :   -0.109491
   4 N :    0.176368
   5 C :   -0.109486
   6 H :    0.140675
   7 C :   -0.194069
   8 N :    0.176370
   9 C :   -0.109485
  10 C :   -0.081434
  11 C :   -0.194112
  12 N :    0.176327
  13 C :   -0.109492
  14 C :   -0.194108
  15 C :   -0.194159
  16 C :   -0.194112
  17 C :   -0.194070
  18 C :   -0.109494
  19 C :   -0.081435
  20 C :   -0.081433
  21 C :   -0.109499
  22 C :   -0.194160
  23 C :   -0.109489
  24 C :   -0.081435
  25 C :   -0.194112
  26 H :    0.140681
  27 H :    0.140672
  28 H :    0.159015
  29 H :    0.159013
  30 H :    0.140682
  31 H :    0.140671
  32 H :    0.159015
  33 H :    0.140674
  34 H :    0.159013
  35 H :    0.140664
  36 Mg:    0.287745

-------------------------------
LOEWDIN REDUCED ORBITAL CHARGES
-------------------------------
  0 N s       :     2.972155  s :     2.972155
      pz      :     1.196881  p :     3.634261
      px      :     1.330727
      py      :     1.106653
      dz2     :     0.016648  d :     0.198804
      dxz     :     0.011733
      dyz     :     0.042304
      dx2y2   :     0.059614
      dxy     :     0.068506
      f0      :     0.001131  f :     0.018452
      f+1     :     0.000903
      f-1     :     0.001758
      f+2     :     0.000369
      f-2     :     0.003454
      f+3     :     0.004188
      f-3     :     0.006649

  1 H s       :     0.799268  s :     0.799268
      pz      :     0.013829  p :     0.060067
      px      :     0.021635
      py      :     0.024602

  2 C s       :     2.761241  s :     2.761241
      pz      :     0.902711  p :     2.932980
      px      :     0.983443
      py      :     1.046826
      dz2     :     0.027830  d :     0.368319
      dxz     :     0.030717
      dyz     :     0.058194
      dx2y2   :     0.102018
      dxy     :     0.149559
      f0      :     0.003019  f :     0.046958
      f+1     :     0.003781
      f-1     :     0.004026
      f+2     :     0.007243
      f-2     :     0.002450
      f+3     :     0.017546
      f-3     :     0.008893

  3 C s       :     2.761251  s :     2.761251
      pz      :     0.902118  p :     2.932982
      px      :     1.048185
      py      :     0.982679
      dz2     :     0.026561  d :     0.368302
      dxz     :     0.059738
      dyz     :     0.030500
      dx2y2   :     0.101915
      dxy     :     0.149588
      f0      :     0.003090  f :     0.046955
      f+1     :     0.003973
      f-1     :     0.003715
      f+2     :     0.007386
      f-2     :     0.002331
      f+3     :     0.008854
      f-3     :     0.017606

  4 N s       :     2.972103  s :     2.972103
      pz      :     1.198822  p :     3.634229
      px      :     1.105881
      py      :     1.329525
      dz2     :     0.016146  d :     0.198845
      dxz     :     0.042793
      dyz     :     0.011457
      dx2y2   :     0.059652
      dxy     :     0.068797
      f0      :     0.001107  f :     0.018456
      f+1     :     0.001806
      f-1     :     0.000858
      f+2     :     0.000344
      f-2     :     0.003505
      f+3     :     0.006660
      f-3     :     0.004177

  5 C s       :     2.761257  s :     2.761257
      pz      :     0.902244  p :     2.933006
      px      :     1.045158
      py      :     0.985604
      dz2     :     0.027353  d :     0.368271
      dxz     :     0.051027
      dyz     :     0.038329
      dx2y2   :     0.101643
      dxy     :     0.149920
      f0      :     0.003057  f :     0.046951
      f+1     :     0.003970
      f-1     :     0.003782
      f+2     :     0.008876
      f-2     :     0.000805
      f+3     :     0.010315
      f-3     :     0.016146

  6 H s       :     0.799260  s :     0.799260
      pz      :     0.013943  p :     0.060065
      px      :     0.017623
      py      :     0.028499

  7 C s       :     2.695632  s :     2.695632
      pz      :     0.837451  p :     2.786131
      px      :     0.967339
      py      :     0.981341
      dz2     :     0.043954  d :     0.632568
      dxz     :     0.092436
      dyz     :     0.105403
      dx2y2   :     0.199284
      dxy     :     0.191491
      f0      :     0.004986  f :     0.079739
      f+1     :     0.005071
      f-1     :     0.005978
      f+2     :     0.004998
      f-2     :     0.014217
      f+3     :     0.021960
      f-3     :     0.022527

  8 N s       :     2.972100  s :     2.972100
      pz      :     1.198816  p :     3.634227
      px      :     1.105882
      py      :     1.329529
      dz2     :     0.016145  d :     0.198846
      dxz     :     0.042793
      dyz     :     0.011456
      dx2y2   :     0.059653
      dxy     :     0.068798
      f0      :     0.001107  f :     0.018457
      f+1     :     0.001806
      f-1     :     0.000858
      f+2     :     0.000344
      f-2     :     0.003505
      f+3     :     0.006660
      f-3     :     0.004178

  9 C s       :     2.761257  s :     2.761257
      pz      :     0.902241  p :     2.933006
      px      :     1.045157
      py      :     0.985608
      dz2     :     0.027351  d :     0.368271
      dxz     :     0.051025
      dyz     :     0.038329
      dx2y2   :     0.101644
      dxy     :     0.149923
      f0      :     0.003057  f :     0.046951
      f+1     :     0.003970
      f-1     :     0.003782
      f+2     :     0.008876
      f-2     :     0.000805
      f+3     :     0.010315
      f-3     :     0.016146

 10 C s       :     2.748225  s :     2.748225
      pz      :     0.900714  p :     2.927195
      px      :     1.010109
      py      :     1.016372
      dz2     :     0.025567  d :     0.366174
      dxz     :     0.041925
      dyz     :     0.053076
      dx2y2   :     0.095100
      dxy     :     0.150506
      f0      :     0.003169  f :     0.039841
      f+1     :     0.003723
      f-1     :     0.004038
      f+2     :     0.005808
      f-2     :     0.002228
      f+3     :     0.011316
      f-3     :     0.009559

 11 C s       :     2.695639  s :     2.695639
      pz      :     0.837089  p :     2.786135
      px      :     0.980349
      py      :     0.968698
      dz2     :     0.044281  d :     0.632590
      dxz     :     0.086901
      dyz     :     0.110765
      dx2y2   :     0.197231
      dxy     :     0.193412
      f0      :     0.004984  f :     0.079747
      f+1     :     0.004733
      f-1     :     0.006325
      f+2     :     0.007353
      f-2     :     0.011906
      f+3     :     0.014847
      f-3     :     0.029601

 12 N s       :     2.972155  s :     2.972155
      pz      :     1.196882  p :     3.634262
      px      :     1.330726
      py      :     1.106653
      dz2     :     0.016648  d :     0.198804
      dxz     :     0.011733
      dyz     :     0.042304
      dx2y2   :     0.059614
      dxy     :     0.068506
      f0      :     0.001131  f :     0.018452
      f+1     :     0.000903
      f-1     :     0.001758
      f+2     :     0.000369
      f-2     :     0.003454
      f+3     :     0.004188
      f-3     :     0.006649

 13 C s       :     2.761248  s :     2.761248
      pz      :     0.902664  p :     2.933002
      px      :     0.986451
      py      :     1.043887
      dz2     :     0.027045  d :     0.368288
      dxz     :     0.039418
      dyz     :     0.050330
      dx2y2   :     0.101867
      dxy     :     0.149629
      f0      :     0.003052  f :     0.046954
      f+1     :     0.003680
      f-1     :     0.004063
      f+2     :     0.008824
      f-2     :     0.000902
      f+3     :     0.016083
      f-3     :     0.010352

 14 C s       :     2.695620  s :     2.695620
      pz      :     0.837094  p :     2.786147
      px      :     0.982829
      py      :     0.966224
      dz2     :     0.044075  d :     0.632594
      dxz     :     0.106796
      dyz     :     0.090828
      dx2y2   :     0.199286
      dxy     :     0.191609
      f0      :     0.005010  f :     0.079747
      f+1     :     0.006200
      f-1     :     0.004837
      f+2     :     0.005071
      f-2     :     0.014089
      f+3     :     0.022636
      f-3     :     0.021905

 15 C s       :     2.695623  s :     2.695623
      pz      :     0.837449  p :     2.786150
      px      :     0.969832
      py      :     0.978869
      dz2     :     0.043740  d :     0.632628
      dxz     :     0.112415
      dyz     :     0.085402
      dx2y2   :     0.197440
      dxy     :     0.193630
      f0      :     0.005016  f :     0.079758
      f+1     :     0.006376
      f-1     :     0.004649
      f+2     :     0.007055
      f-2     :     0.012069
      f+3     :     0.029753
      f-3     :     0.014839

 16 C s       :     2.695639  s :     2.695639
      pz      :     0.837089  p :     2.786135
      px      :     0.980350
      py      :     0.968696
      dz2     :     0.044281  d :     0.632591
      dxz     :     0.086902
      dyz     :     0.110764
      dx2y2   :     0.197230
      dxy     :     0.193414
      f0      :     0.004984  f :     0.079748
      f+1     :     0.004733
      f-1     :     0.006325
      f+2     :     0.007353
      f-2     :     0.011906
      f+3     :     0.014847
      f-3     :     0.029601

 17 C s       :     2.695632  s :     2.695632
      pz      :     0.837452  p :     2.786132
      px      :     0.967338
      py      :     0.981342
      dz2     :     0.043954  d :     0.632568
      dxz     :     0.092436
      dyz     :     0.105403
      dx2y2   :     0.199284
      dxy     :     0.191491
      f0      :     0.004986  f :     0.079739
      f+1     :     0.005071
      f-1     :     0.005978
      f+2     :     0.004999
      f-2     :     0.014217
      f+3     :     0.021960
      f-3     :     0.022527

 18 C s       :     2.761247  s :     2.761247
      pz      :     0.902666  p :     2.933003
      px      :     0.986451
      py      :     1.043886
      dz2     :     0.027046  d :     0.368290
      dxz     :     0.039418
      dyz     :     0.050330
      dx2y2   :     0.101867
      dxy     :     0.149630
      f0      :     0.003052  f :     0.046955
      f+1     :     0.003680
      f-1     :     0.004063
      f+2     :     0.008824
      f-2     :     0.000902
      f+3     :     0.016083
      f-3     :     0.010352

 19 C s       :     2.748225  s :     2.748225
      pz      :     0.900510  p :     2.927193
      px      :     1.017533
[...]
     Transition      Energy     Energy  Wavelength fosc(P2)      P2        PX        PY        PZ   
                      (eV)      (cm-1)    (nm)                 (au**2)    (au)      (au)      (au)  
----------------------------------------------------------------------------------------------------
  0-1A  ->  1-1A    2.459206   19834.8   504.2   0.002571546   0.00035  -0.01841  -0.00304   0.00061
  0-1A  ->  2-1A    2.459224   19835.0   504.2   0.002586953   0.00035  -0.00308   0.01838  -0.00180
  0-1A  ->  3-1A    4.171501   33645.4   297.2   0.010733913   0.00247   0.04957   0.00319  -0.00114
  0-1A  ->  4-1A    4.171642   33646.6   297.2   0.010750452   0.00247  -0.00328   0.04938  -0.00476
  0-1A  ->  5-1A    4.304953   34721.8   288.0   0.000000000   0.00000  -0.00000  -0.00000   0.00000
  0-1A  ->  6-1A    4.371872   35261.5   283.6   0.000000000   0.00000  -0.00000  -0.00000  -0.00001
  0-1A  ->  7-1A    4.471168   36062.4   277.3   0.001036488   0.00026  -0.01587  -0.00183   0.00043
  0-1A  ->  8-1A    4.471547   36065.5   277.3   0.001028028   0.00025   0.00186  -0.01575   0.00139
  0-1A  ->  9-1A    4.669931   37665.5   265.5   0.000000000   0.00000   0.00000   0.00000   0.00001
  0-1A  -> 10-1A    4.876729   39333.5   254.2   0.000000000   0.00000   0.00000  -0.00000  -0.00001
  0-1A  -> 11-1A    4.981216   40176.2   248.9   0.000000000   0.00000   0.00000   0.00000   0.00000
  0-1A  -> 12-1A    5.035615   40615.0   246.2   0.000000000   0.00000   0.00000  -0.00000  -0.00001
  0-1A  -> 13-1A    5.093345   41080.6   243.4   0.000898511   0.00025  -0.01584  -0.00111   0.00037
  0-1A  -> 14-1A    5.093412   41081.1   243.4   0.003973625   0.00112   0.03339   0.00075  -0.00063
  0-1A  -> 15-1A    5.093532   41082.1   243.4   0.004801284   0.00135   0.00116  -0.03652   0.00362
  0-1A  -> 16-1A    5.093806   41084.3   243.4   0.000063114   0.00002  -0.00052   0.00416  -0.00041
  0-1A  -> 17-1A    5.218653   42091.3   237.6   0.000001560   0.00000   0.00000  -0.00008  -0.00067
  0-1A  -> 18-1A    5.260671   42430.2   235.7   0.000000003   0.00000   0.00003  -0.00000  -0.00000
  0-1A  -> 19-1A    5.303239   42773.5   233.8   0.000000000   0.00000  -0.00000  -0.00000  -0.00000
  0-1A  -> 20-1A    5.473559   44147.2   226.5   0.000000000   0.00000  -0.00000  -0.00000  -0.00000
  0-1A  -> 21-1A    5.738990   46288.1   216.0   0.000000000   0.00000  -0.00000   0.00000  -0.00000
  0-1A  -> 22-1A    5.828062   47006.5   212.7   0.000000000   0.00000  -0.00000  -0.00000  -0.00000
  0-1A  -> 23-1A    5.888722   47495.8   210.5   0.000000023   0.00000   0.00008   0.00002  -0.00003
  0-1A  -> 24-1A    5.898444   47574.2   210.2   0.000000000   0.00000   0.00000  -0.00000   0.00000
  0-1A  -> 25-1A    5.996326   48363.6   206.8   0.000000010   0.00000  -0.00000  -0.00001  -0.00006
  0-1A  -> 26-1A    6.013263   48500.2   206.2   0.016309317   0.00541   0.00120   0.00721   0.07316
  0-1A  -> 27-1A    6.016274   48524.5   206.1   0.000016239   0.00001  -0.00000   0.00023   0.00231
  0-1A  -> 28-1A    6.231133   50257.5   199.0   0.000000000   0.00000   0.00000   0.00000  -0.00000
  0-1A  -> 29-1A    6.622865   53417.0   187.2   0.000000000   0.00000  -0.00000   0.00000   0.00001
  0-1A  -> 30-1A    6.687765   53940.5   185.4   0.000000000   0.00000   0.00000   0.00000  -0.00000

------------------------------------------------------------------------------------------
                     CD SPECTRUM VIA TRANSITION ELECTRIC DIPOLE MOMENTS    
------------------------------------------------------------------------------------------
     Transition      Energy     Energy  Wavelength    R        MX        MY        MZ   
                      (eV)      (cm-1)    (nm)   (1e40*cgs)   (au)      (au)      (au)  
------------------------------------------------------------------------------------------
  0-1A  ->  1-1A    2.459206   19834.8   504.2    0.00069   0.00000  -0.00000  -0.00001
  0-1A  ->  2-1A    2.459224   19835.0   504.2   -0.00027   0.00000   0.00000   0.00002
  0-1A  ->  3-1A    4.171501   33645.4   297.2    0.00543  -0.00001   0.00003  -0.00001
  0-1A  ->  4-1A    4.171642   33646.6   297.2   -0.00767   0.00002   0.00001   0.00001
  0-1A  ->  5-1A    4.304953   34721.8   288.0   -0.00074   0.01345   0.08034   0.81289
  0-1A  ->  6-1A    4.371872   35261.5   283.6    0.00001   0.00006  -0.00008   0.00313
  0-1A  ->  7-1A    4.471168   36062.4   277.3   -0.01185  -0.00001   0.00003  -0.00001
  0-1A  ->  8-1A    4.471547   36065.5   277.3    0.00547   0.00000   0.00001   0.00000
  0-1A  ->  9-1A    4.669931   37665.5   265.5    0.00000  -0.00002   0.00001   0.00004
  0-1A  -> 10-1A    4.876729   39333.5   254.2    0.00000   0.00014   0.00004   0.00031
  0-1A  -> 11-1A    4.981216   40176.2   248.9    0.00000   0.00000   0.00010  -0.00028
  0-1A  -> 12-1A    5.035615   40615.0   246.2   -0.00000   0.00001  -0.00005  -0.00001
  0-1A  -> 13-1A    5.093345   41080.6   243.4   -4.44448  -0.03167   0.29982  -0.02904
  0-1A  -> 14-1A    5.093412   41081.1   243.4    7.17283  -0.01115   0.14288  -0.01391
  0-1A  -> 15-1A    5.093532   41082.1   243.4   -3.67467   0.03843  -0.00237  -0.00040
  0-1A  -> 16-1A    5.093806   41084.3   243.4    0.94250   0.33159   0.03319  -0.00876
  0-1A  -> 17-1A    5.218653   42091.3   237.6    0.00015  -0.00000   0.00000   0.00000
  0-1A  -> 18-1A    5.260671   42430.2   235.7    0.00000   0.00000  -0.00001  -0.00000
  0-1A  -> 19-1A    5.303239   42773.5   233.8   -0.00008  -0.00692  -0.04178  -0.42005
  0-1A  -> 20-1A    5.473559   44147.2   226.5    0.00000  -0.00009  -0.00001   0.00012
  0-1A  -> 21-1A    5.738990   46288.1   216.0   -0.00000   0.00000   0.00000   0.00001
  0-1A  -> 22-1A    5.828062   47006.5   212.7    0.00001   0.00033  -0.00016  -0.00087
  0-1A  -> 23-1A    5.888722   47495.8   210.5    0.00000   0.00000   0.00003   0.00025
  0-1A  -> 24-1A    5.898444   47574.2   210.2   -0.00024   0.01028   0.06057   0.61795
  0-1A  -> 25-1A    5.996326   48363.6   206.8   -0.00000   0.00007  -0.00001  -0.00000
  0-1A  -> 26-1A    6.013263   48500.2   206.2   -0.00032   0.00000   0.00000   0.00000
  0-1A  -> 27-1A    6.016274   48524.5   206.1   -0.00000   0.00000   0.00000   0.00000
  0-1A  -> 28-1A    6.231133   50257.5   199.0   -0.00000   0.00001   0.00006  -0.00025
  0-1A  -> 29-1A    6.622865   53417.0   187.2    0.00000  -0.00060   0.00018  -0.00002
  0-1A  -> 30-1A    6.687765   53940.5   185.4   -0.00000   0.00003  -0.00003  -0.00028

------------------------------------------------------------------------------------------
                     CD SPECTRUM VIA TRANSITION VELOCITY DIPOLE MOMENTS    
------------------------------------------------------------------------------------------
     Transition      Energy     Energy  Wavelength    R        MX        MY        MZ   
                      (eV)      (cm-1)    (nm)   (1e40*cgs)   (au)      (au)      (au)  
------------------------------------------------------------------------------------------
  0-1A  ->  1-1A    2.459206   19834.8   504.2   -0.00048   0.00000  -0.00000  -0.00001
  0-1A  ->  2-1A    2.459224   19835.0   504.2    0.00019   0.00000   0.00000   0.00002
  0-1A  ->  3-1A    4.171501   33645.4   297.2   -0.00046  -0.00001   0.00003  -0.00001
  0-1A  ->  4-1A    4.171642   33646.6   297.2    0.00066   0.00002   0.00001   0.00001
  0-1A  ->  5-1A    4.304953   34721.8   288.0    0.00266   0.01345   0.08034   0.81289
  0-1A  ->  6-1A    4.371872   35261.5   283.6   -0.00005   0.00006  -0.00008   0.00313
  0-1A  ->  7-1A    4.471168   36062.4   277.3    0.00048  -0.00001   0.00003  -0.00001
  0-1A  ->  8-1A    4.471547   36065.5   277.3   -0.00022   0.00000   0.00001   0.00000
  0-1A  ->  9-1A    4.669931   37665.5   265.5    0.00000  -0.00002   0.00001   0.00004
  0-1A  -> 10-1A    4.876729   39333.5   254.2   -0.00000   0.00014   0.00004   0.00031
  0-1A  -> 11-1A    4.981216   40176.2   248.9   -0.00000   0.00000   0.00010  -0.00028
  0-1A  -> 12-1A    5.035615   40615.0   246.2    0.00000   0.00001  -0.00005  -0.00001
  0-1A  -> 13-1A    5.093345   41080.6   243.4    0.40023  -0.03167   0.29982  -0.02904
  0-1A  -> 14-1A    5.093412   41081.1   243.4   -0.64604  -0.01115   0.14288  -0.01391
  0-1A  -> 15-1A    5.093532   41082.1   243.4    0.32693   0.03843  -0.00237  -0.00040
  0-1A  -> 16-1A    5.093806   41084.3   243.4   -0.08026   0.33159   0.03319  -0.00876
  0-1A  -> 17-1A    5.218653   42091.3   237.6   -0.00001  -0.00000   0.00000   0.00000
  0-1A  -> 18-1A    5.260671   42430.2   235.7    0.00000   0.00000  -0.00001  -0.00000
  0-1A  -> 19-1A    5.303239   42773.5   233.8    0.00047  -0.00692  -0.04178  -0.42005
  0-1A  -> 20-1A    5.473559   44147.2   226.5   -0.00000  -0.00009  -0.00001   0.00012
  0-1A  -> 21-1A    5.738990   46288.1   216.0   -0.00000   0.00000   0.00000   0.00001
  0-1A  -> 22-1A    5.828062   47006.5   212.7    0.00000   0.00033  -0.00016  -0.00087
  0-1A  -> 23-1A    5.888722   47495.8   210.5   -0.00002   0.00000   0.00003   0.00025
  0-1A  -> 24-1A    5.898444   47574.2   210.2    0.00041   0.01028   0.06057   0.61795
  0-1A  -> 25-1A    5.996326   48363.6   206.8    0.00000   0.00007  -0.00001  -0.00000
  0-1A  -> 26-1A    6.013263   48500.2   206.2    0.00082   0.00000   0.00000   0.00000
  0-1A  -> 27-1A    6.016274   48524.5   206.1    0.00000   0.00000   0.00000   0.00000
  0-1A  -> 28-1A    6.231133   50257.5   199.0    0.00000   0.00001   0.00006  -0.00025
  0-1A  -> 29-1A    6.622865   53417.0   187.2    0.00000  -0.00060   0.00018  -0.00002
  0-1A  -> 30-1A    6.687765   53940.5   185.4    0.00000   0.00003  -0.00003  -0.00028

Total run time:     5237.448 sec

           *** ORCA-CIS/TD-DFT FINISHED WITHOUT ERROR ***
-----------------------
CIS/TD-DFT TOTAL ENERGY
-----------------------

    E(SCF)  =  -1188.405225038 Eh
    DE(CIS) =      0.090374173 Eh (Root  1)
    ----------------------------- ---------
    E(tot)  =  -1188.314850865 Eh


Maximum memory used throughout the entire CIS-calculation: 2678.6 MB
=> NOW LEAVING ORCA_CIS

-------------------------   --------------------
FINAL SINGLE POINT ENERGY     -1188.314850865105
-------------------------   --------------------



           ************************************************************
           *        Program running with 4 parallel MPI-processes     *
           *              working on a common directory               *
           ************************************************************

------------------------------------------------------------------------------
                              ORCA PROPERTY CALCULATIONS
------------------------------------------------------------------------------

GBWName                                 ... tddft.gbw
Number of atoms                         ...     37
Number of basis functions               ...    848
Max core memory                         ...   3000 MB

Electric properties:
Dipole moment                           ... YES
Quadrupole moment                       ...  NO
Static polarizability (Dipole/Dipole)   ...  NO
Static polarizability (Dipole/Quad.)    ...  NO
Static polarizability (Quad./Quad.)     ...  NO
Static polarizability (Velocity)        ...  NO
Static hyperpolarizability              ...  NO

Atomic electric properties:
Dipole moment                           ...  NO
Quadrupole moment                       ...  NO
Static polarizability                   ...  NO

Choice of electric origin               ... Center of mass
Position of electric origin             ...    -0.158818     5.090151     6.572142

General magnetic properties:
Magnetizability                         ...  NO

EPR properties:
g-Tensor (aka g-matrix)                 ...  NO
Zero-Field splitting spin-orbit         ...  NO
Zero-field splitting spin-spin          ...  NO
Hyperfine couplings                     ...  NO (   0 nuclei)
Quadrupole couplings                    ...  NO (   0 nuclei)
Contact density                         ...  NO (   0 nuclei)

NMR properties:
Chemical shifts                         ...  NO (   0 nuclei)
Spin-rotation constants                 ...  NO (   0 nuclei)
Spin-spin couplings                     ...  NO (   0 nuclei,    0 pairs)

Choice of magnetic origin               ... GIAO
Position of magnetic origin             ...     0.000000     0.000000     0.000000

Properties with geometric perturbations:
SCF Hessian                             ...  NO
IR spectrum                             ...  NO
VCD spectrum                            ...  NO
X-ray spectroscopy properties:
SCF XES/XAS/RIXS spectra                ...  NO

SCF SOC stabilization energy            ...  NO
Diagonal Born-Oppenheimer correction    ...  NO

-------------
DIPOLE MOMENT
-------------

Method             : SCF
Type of density    : Electron Density
Multiplicity       :   1
Irrep              :   0
Energy             : -1188.4052250383065257 Eh
Basis              : AO
                                X                 Y                 Z
Electronic contribution:      0.000008985      -0.000037296      -0.000456037
Nuclear contribution   :     -0.000008108       0.000042856       0.000532868
                        -----------------------------------------
Total Dipole Moment    :      0.000000877       0.000005560       0.000076832
                        -----------------------------------------
Magnitude (a.u.)       :      0.000077038
Magnitude (Debye)      :      0.000195814



--------------------
Rotational spectrum 
--------------------
 
Rotational constants in cm-1:             0.008916             0.008916             0.004458 
Rotational constants in MHz :           267.307767           267.296540           133.651083 

Dipole components along the rotational axes: 
x,y,z [a.u.] :    -0.000002    -0.000001     0.000077 
x,y,z [Debye]:    -0.000005    -0.000002     0.000196 

 

Dipole moment calculation done in   0.0 sec 

Maximum memory used throughout the entire PROP-calculation: 86.1 MB

--------------------------------
SUGGESTED CITATIONS FOR THIS RUN
--------------------------------

Below you find a list of papers that are relevant to this ORCA run
We neither can nor want to force you to cite these papers, but we appreciate if you do
You receive ORCA, which is the product of decades of hard work by many enthusiastic individuals, for free
The only thing we kindly ask in return is that you cite our papers,
We deeply appreciate it, if you show your appreciation for ORCA by not just citing the generic ORCA reference.

Please note that relegating all ORCA citations to the supporting information does *not* help us.
SI sections are not indexed - citations you put there will not count into any citation statistics
But we need these citations in order to attract the funding resources that allow us to do what we are doing

Therefore, if you are a happy ORCA user, please consider citing a few of the papers listed below in the main body of your paper

In addition to the list printed below, the program has created the file tddft.bibtex that contains the list in bibtex format
You can import this file easily into all common literature databanks and citation aid programs

It goes without saying that in many instances, there are alternative algorithms to achieve similar
results as the ones you have gotten from ORCA. It is, of course, also the case that in some instances
ORCA just re-implements algorithms worked out by others. We are fully aware of that and we are also
fully appreciative of our colleagues work. Hence this citation list should not be read as indicating
that the listed papers, which are focused on our own work, are the only ones worth citing. It simply
meant to make it easier for users to cite ORCA specific papers. It is not a substitute for doing your
own literature research and citing the relevant literature in a scientifically appropriate manner.

List of essential papers. We consider these as the minimum necessary citations

  1. Neese, F.
     Software update: the ORCA program system, version 6.0
     WIRES Comput. Molec. Sci. 2025 15(1), e70019
     doi.org/10.1002/wcms.70019

List of papers to cite with high priority. The work reported in these papers was absolutely
necessary for this run to complete.
Our perspective: the developers of density functionals and basis sets usually get cited in chemistry papers
Good! But without the algorithms to do something with them, the functionals or basis sets would not do anything.
Hence, in our opinion, the algorithm design and method developments papers are equally worthy of getting cited

  1. Neese, F.; Olbrich, G.
     Efficient use of the resolution of the identity approximation in time-dependent density functional calculations with hybrid density functionals
     Chem. Phys. Lett. 2002 362 , 170-178
     doi.org/10.1016/s0009-2614(02)01053-9
  2. Neese, F.
     An improvement of the resolution of the identity approximation for the formation of the Coulomb matrix
     J. Comp. Chem. 2003 24(14), 1740-1747
     doi.org/10.1002/jcc.10318
  3. Neese, F.; Wennmohs, F.; Hansen, A.; Becker, U.
     Efficient, approximate and parallel Hartree-Fock and hybrid DFT calculations. A 'chain-of-spheres' algorithm for the Hartree-Fock exchange
     Chem. Phys. 2009 356(1-3), 98-109
     doi.org/10.1016/j.chemphys.2008.10.036
  4. Helmich-Paris, B.; de Souza, B.; Neese, F.; Izsák, R.
     An improved chain of spheres for exchange algorithm
     J. Chem. Phys. 2021 155(10), 104109
     doi.org/10.1063/5.0058766
  5. Neese, F.
     The SHARK Integral Generation and Digestion System
     J. Comp. Chem. 2022 44(3), 381
     doi.org/10.1002/jcc.26942

List of suggested additional citations. These are papers that are important in the 'surrounding' of 
of this run, or papers that preceded the highly important papers. If you like your results we are grateful for a citation.

  1. Izsak, R.; Neese, F.
     An overlap fitted chain of spheres exchange method
     J. Chem. Phys. 2011 135 , 144105
     doi.org/10.1063/1.3646921
  2. Izsak, R.; Hansen, A.; Neese, F.
     The resolution of identity and chain of spheres approximations for the LPNO-CCSD singles Fock term
     Molec. Phys. 2012 110 , 2413-2417
     doi.org/10.1080/00268976.2012.687466
  3. Neese, F.
     The ORCA program system
     WIRES Comput. Molec. Sci. 2012 2(1), 73-78
     doi.org/10.1002/wcms.81
  4. Izsak, R.; Neese, F.; Klopper, W.
     Robust fitting techniques in the chain of spheres approximation to the Fock exchange: The role of the complementary space
     J. Chem. Phys. 2013 139 , 
     doi.org/10.1063/1.4819264
  5. Neese, F.
     Software update: the ORCA program system, version 4.0
     WIRES Comput. Molec. Sci. 2018 8(1), 1-6
     doi.org/10.1002/wcms.1327
  6. Neese, F.; Wennmohs, F.; Becker, U.; Riplinger, C.
     The ORCA quantum chemistry program package
     J. Chem. Phys. 2020 152(22), 224108
     doi.org/10.1063/5.0004608
  7. Neese, F.
     Software update: The ORCA program system—Version 5.0
     WIRES Comput. Molec. Sci. 2022 12(1), e1606
     doi.org/10.1002/wcms.1606

List of optional additional citations

  1. Neese, F.
     Approximate second-order SCF convergence for spin unrestricted wavefunctions
     Chem. Phys. Lett. 2000 325(1-3), 93-98
     doi.org/10.1016/s0009-2614(00)00662-x

Timings for individual modules:

Sum of individual times          ...     6721.170 sec (= 112.020 min)
Startup calculation              ...       16.078 sec (=   0.268 min)   0.2 %
SCF iterations                   ...     1465.663 sec (=  24.428 min)  21.8 %
Property integrals               ...        0.992 sec (=   0.017 min)   0.0 %
Property calculations            ...        0.636 sec (=   0.011 min)   0.0 %
CIS module                       ...     5237.802 sec (=  87.297 min)  77.9 %
                             ****ORCA TERMINATED NORMALLY****
TOTAL RUN TIME: 0 days 1 hours 52 minutes 1 seconds 566 msec
