
                                 *****************
                                 * O   R   C   A *
                                 *****************

                                            #,                                       
                                            ###                                      
                                            ####                                     
                                            #####                                    
                                            ######                                   
                                           ########,                                 
                                     ,,################,,,,,                         
                               ,,#################################,,                 
                          ,,##########################################,,             
                       ,#########################################, ''#####,          
                    ,#############################################,,   '####,        
                  ,##################################################,,,,####,       
                ,###########''''           ''''###############################       
              ,#####''   ,,,,##########,,,,          '''####'''          '####       
            ,##' ,,,,###########################,,,                        '##       
           ' ,,###''''                  '''############,,,                           
         ,,##''                                '''############,,,,        ,,,,,,###''
      ,#''                                            '''#######################'''  
     '                                                          ''''####''''         
             ,#######,   #######,   ,#######,      ##                                
            ,#'     '#,  ##    ##  ,#'     '#,    #''#        ,####,    ,#,          
            ##       ##  ##   ,#'  ##            #'  '#       #'       ,# #          
            ##       ##  #######   ##           ,######,      #####,      #          
            '#,     ,#'  ##    ##  '#,     ,#' ,#      #,     #,   #      #          
             '#######'   ##     ##  '#######'  #'      '#     '####' #    #          



                #########################################################
                #                        -***-                          #
                #          Department of theory and spectroscopy        #
                #                                                       #
                #                      Frank Neese                      #
                #                                                       #
                #     Directorship, Architecture, Infrastructure        #
                #                    SHARK, DRIVERS                     #
                #        Core code/Algorithms in most modules           #
                #                                                       #
                #        Max Planck Institute fuer Kohlenforschung      #
                #                Kaiser Wilhelm Platz 1                 #
                #                 D-45470 Muelheim/Ruhr                 #
                #                      Germany                          #
                #                                                       #
                #                  All rights reserved                  #
                #                        -***-                          #
                #########################################################


                         Program Version 6.1.1  -  RELEASE   -
                                (GIT: $487d211c$)
                          ($2025-11-21 10:33:24 +0100$)


 With contributions from (in alphabetic order):
[Max-Planck-Institut fuer Kohlenforschung]                               
  Daniel Aravena         : Magnetic Suceptibility                        
  Michael Atanasov       : Ab Initio Ligand Field Theory (pilot matlab implementation)
  Alexander A. Auer      : GIAO ZORA, VPT2 properties, NMR spectrum      
  Ute Becker             : All parallelization in ORCA, NUMFREQ, NUMCALC 
  Giovanni Bistoni       : ED, misc. LED, open-shell LED, HFLD           
  Dmytro Bykov           : pre 5.0 version of the SCF Hessian            
  Marcos Casanova-Páez   : Triplet and SCS-CIS(D). UHF-(DLPNO)-IP/EA/STEOM-CCSD. UHF-CVS-IP/STEOM-CCSD   
  Vijay G. Chilkuri      : MRCI spin determinant printing, contributions to CSF-ICE 
  Pauline Colinet        : FMM embedding                                 
  Dipayan Datta          : RHF DLPNO-CCSD density                        
  Achintya Kumar Dutta   : EOM-CC, STEOM-CC                              
  Nicolas Foglia         : Exact transition moments, OPA infrastructure, MCD improvements    
  Dmitry Ganyushin       : Spin-Orbit,Spin-Spin,Magnetic field MRCI      
  Miquel Garcia-Rates    : C-PCM and meta-GGA Hessian, CCSD/C-PCM, Gaussian charge scheme 
  Tiago L. C. Gouveia    : GS-ROHF, GS-ROCIS                             
  Yang Guo               : DLPNO-NEVPT2, F12-NEVPT2, CIM, IAO-localization        
  Andreas Hansen         : Spin unrestricted coupled pair/coupled cluster methods 
  Ingolf Harden          : AUTO-CI MPn and infrastructure                
  Benjamin Helmich-Paris : MC-RPA, TRAH-(SCF,CASSCF), AVAS, COSX integrals, SCF dyn. polar., MC-PDFT, srDFT 
  Lee Huntington         : MR-EOM, pCC                                   
  Robert Izsak           : Overlap fitted RIJCOSX, COSX-SCS-MP3, EOM     
  Riya Kayal             : Wick's Theorem for AUTO-CI, AUTO-CI UHF-CCSDT 
  Emily Kempfer          : AUTO-CI RHF CISDT and CCSDT, approximate NEVPT4
  Christian Kollmar      : KDIIS, OOCD, Brueckner-CCSD(T), CCSD density, CASPT2, CASPT2-K, improved NEVPT2 
  Axel Koslowski         : Symmetry handling                             
  Simone Kossmann        : meta-GGA functionals, TD-DFT gradient, OOMP2, (MP2 Hessian; deprecated post 5.0) 
  Lucas Lang             : DCDCAS, Hyperfine gauge corrections, ICE-SOC+SSC
  Marvin Lechner         : AUTO-CI (C++ implementation), FIC-MRCC        
  Spencer Leger          : CASSCF response                               
  Dagmar Lenk            : GEPOL surface, SMD, ORCA-2-JSON               
  Dimitrios Liakos       : Extrapolation schemes; Compound Job, Property file
  Dimitrios Manganas     : Further ROCIS development; embedding schemes. LFT, Crystal Embedding 
  Dimitrios Pantazis     : SARC Basis sets                               
  Anastasios Papadopoulos: AUTO-CI, single reference methods and gradients 
  Taras Petrenko         : pre 6.0 DFT Hessian and TD-DFT gradient,  ECA, NRVS 
  Petra Pikulova         : Analytic Raman intensities                    
  Peter Pinski           : DLPNO-MP2, DLPNO-MP2 Gradient                 
  Shashank Vittal Rao    : ES-AILFT, MagRelax                            
  Christoph Reimann      : Effective Core Potentials                     
  Marius Retegan         : Local ZFS, SOC                                
  Christoph Riplinger    : Optimizer, TS searches, QM/MM, DLPNO-CCSD(T), (RO)-DLPNO pert. Triples 
  Michael Roemelt        : Original ROCIS implementation, recursive CI coupling coefficients
  Masaaki Saitow         : Open-shell DLPNO-CCSD energy and density      
  Barbara Sandhoefer     : DKH picture change effects                    
  Yorick L. A. Schmerwitz: GMF and freeze-and-release deltaSCF, NEB S-IDPP initial path                    
  Kantharuban Sivalingam : CASSCF convergence/infrastructure, NEVPT2, NEVPT3, NEVPT4(SD), FIC-MRCI and CEPA variants
  Bernardo de Souza      : ESD, SOC TD-DFT                               
  Georgi L. Stoychev     : AutoAux, RI-MP2 NMR, DLPNO-MP2 response, X2C  
  Van Anh Tran           : RI-MP2 g-tensors                              
  Willem Van den Heuvel  : Paramagnetic NMR                              
  Zikuan Wang            : NOTCH, Electric field optimization            
  Frank Wennmohs         : Technical directorship and infrastructure     
  Hang Xu                : AUTO-CI-Response properties                   
                                                                         
[FACCTs GmbH]                                                            
  Markus Bursch, Nicolas Foglia, Miquel Garcia-Rates, Ingolf Harden, Hagen Neugebauer, Anastasios Papadopoulos, 
  Christoph Riplinger, Bernardo de Souza, Georgi L. Stoychev                                                    
                                                                 
  APM, various basis sets, CI-OPT, improved COSX, DLPNO-Multilevel,           
  DOCKER, DRACO, updates on ESD, Fragmentator, GOAT, IRC, LR-CPCM, L-BFGS, MBIS, meta-GGA TD-DFT gradient, ML-optimized integration grids, 
  MM, NACMEs, nearIR, NEB, NEB-TS, NL-DFT gradient (VV10), 2- and 3-layer-ONIOM, interface openCOSMO-RS, QMMM,   
  Crystal-QMMM, RESP, rigid body optimization, SF, symmetry and pop. for TD-DFT, various functionals, SOLVATOR                                   
                                                                         
[Other institutions]                                                     
  V. Asgeirsson          : NEB                                           
  Christoph Bannwarth    : sTDA-DFT, sTD-DFT, PBEh-3c, B97-3c, D3        
  Giovanni Bistoni       : ETS/NOCV, ADLD/ADEX, COVALED                  
  Martin Brehm           : Molecular dynamics                            
  Ronald Cardenas        : ETS/NOCV                                      
  Martina Colucci        : COVALED                                       
  Sebastian Ehlert       : rSCAN, r2SCAN, r2SCAN-3c, D4, dhf basis sets  
  Marvin Friede          : D4 for Fr, Ra, Ac-Lr                          
  Lars Goerigk           : TD-DFT with DH, B97 family of functionals     
  Stefan Grimme          : VdW corrections, initial TS optimization, DFT functionals, gCP, sTDA/sTD-DF 
  Waldemar Hujo          : DFT-NL                                        
  H. Jonsson             : NEB                                           
  Holger Kruse           : gCP                                           
  Marcel Mueller         : wB97X-3c, vDZP basis set                      
  Hagen Neugebauer       : wr2SCAN, Native XTB                           
  Gianluca Regni         : ADLD/ADEX                                     
  Tobias Risthaus        : pre 6.0 range-separated hybrid DFT and stability analysis
  Lukas Wittmann         : regularized MP2, r2SCAN double-hybrids, wr2SCAN        
                                                                         
We gratefully acknowledge several colleagues who have allowed us to      
interface, adapt or use parts of their codes:                            
  Ed Valeev, F. Pavosevic, A. Kumar             : LibInt (2-el integral package), F12 methods 
  Garnet Chan, S. Sharma, J. Yang, R. Olivares  : DMRG                   
  Ulf Ekstrom                                   : XCFun DFT Library      
  Mihaly Kallay                                 : mrcc  (arbitrary order and MRCC methods)
  Frank Weinhold                                : gennbo (NPA and NBO analysis)           
  Simon Mueller                                 : openCOSMO-RS                            
  Christopher J. Cramer and Donald G. Truhlar   : smd solvation model                     
  S Lehtola, MJT Oliveira, MAL Marques          : LibXC Library                           
  Liviu Ungur et al                             : ANISO software                          


 Your calculation uses the libint2 library for the computation of 2-el integrals
 For citations please refer to: http://libint.valeyev.net

 Your ORCA version has been built with support for libXC version: 7.0.0
 For citations please refer to: https://libxc.gitlab.io

 This ORCA versions uses:
   CBLAS   interface :  Fast vector & matrix operations
   LAPACKE interface :  Fast linear algebra routines
   SCALAPACK package :  Parallel linear algebra routines
   Shared memory     :  Shared parallel matrices
   BLAS/LAPACK       :  OpenBLAS 0.3.29  USE64BITINT DYNAMIC_ARCH NO_AFFINITY Haswell SINGLE_THREADED
        Core in use  :  Haswell
   Copyright (c) 2011-2014, The OpenBLAS Project


  ***********************************
  * Starting time: Sun Jul  5 17:08:28 2026
  * Host name:     steezy
  * Process ID:    1275769
  * Working dir.:  /home/jannes/chlorophyll-ladder/007-mg-core-ladder/mgporphin/02_tddft/m062x
  ***********************************

NOTE: MaxCore=3000 MB was set to SCF,MP2,MDCI,CIPSI,MRCI,RASCI and CIS
      => If you want to overwrite this, your respective input block should be placed after the MaxCore statement


***************************************
The coordinates will be read from file: /home/jannes/chlorophyll-ladder/007-mg-core-ladder/mgporphin/01_opt/mgporphin_opt_b3lypd4_tzvp.xyz
***************************************


XCFun DFT library Copyright 2009-2010 Ulf Ekstrom and contributors.
See http://admol.org/xcfun for more information.
This is free software; see the source code for copying conditions.
There is ABSOLUTELY NO WARRANTY; not even for MERCHANTABILITY or FITNESS FOR A PARTICULAR PURPOSE.
For details see the documentation.
Scientific users of this library should cite U. Ekstrom, L. Visscher, R. Bast, A. J. Thorvaldsen and K. Ruud;
J.Chem.Theor.Comp. 2010, DOI: 10.1021/ct100117s
XCFun Version 0.99 

================================================================================

----- Orbital basis set information -----
Your calculation utilizes the basis: def2-TZVP
   F. Weigend and R. Ahlrichs, Phys. Chem. Chem. Phys. 7, 3297 (2005).

----- AuxJ basis set information -----
Your calculation utilizes the auxiliary basis: def2/J
   H-Rn: F. Weigend, Phys. Chem. Chem. Phys. 8, 1057 (2006).
   Fr-Lr: K. Eichkorn, F. Weigend, O. Treutler, R. Ahlrichs; Theor. Chem. Acc. 97, 119 (1997).

================================================================================
                                        WARNINGS
                       Please study these warnings very carefully!
================================================================================

WARNING: Functional chosen is sensitive to the integration grid.
         DEFGRID3 seems to be a minimum grid for robust results!

WARNING: CIS/ROCIS methods need fully converged wavefunctions
  ===> : Setting SCFConvForced true
         You can overwrite this default with %scf ConvForced false 


================================================================================
                                       INPUT FILE
================================================================================
NAME = tddft.inp
|  1> %pal nprocs 4 end
|  2> %maxcore 3000
|  3> ! M062X def2-TZVP def2/J RIJCOSX DefGrid3 TightSCF
|  4> %tddft
|  5>   nroots 30
|  6>   triplets false
|  7> end
|  8> * xyzfile 0 1 /home/jannes/chlorophyll-ladder/007-mg-core-ladder/mgporphin/01_opt/mgporphin_opt_b3lypd4_tzvp.xyz
|  9> 
| 10>                          ****END OF INPUT****
================================================================================

                       ****************************
                       * Single Point Calculation *
                       ****************************

---------------------------------
CARTESIAN COORDINATES (ANGSTROEM)
---------------------------------
  N     -2.126632    2.522518    3.528336
  H      1.688951   -2.244306    3.936854
  C     -4.367453    3.014298    3.517091
  C     -0.399300   -1.569210    3.904114
  N      0.091157    0.660020    3.674254
  C      0.955251   -1.456037    3.870452
  H     -0.988023   -2.467894    4.003531
  C      2.861647    1.841375    3.512926
  N     -0.259245    4.727154    3.281236
  C     -1.123334    6.843238    3.085343
  C      2.534867    0.494152    3.650974
  C      2.674027    4.023168    3.301567
  N      1.958546    2.864658    3.427339
  C      4.083452    3.721259    3.307939
  C     -0.935449   -0.237004    3.780431
  C      1.256233   -0.053833    3.726030
  C     -2.842123    1.364011    3.654087
  C     -3.029725    3.545804    3.442713
  C     -4.251542    1.665928    3.647704
  C     -2.289528    0.090486    3.770544
  C     -2.702948    4.893026    3.304662
  C      4.199367    2.372883    3.438500
  C     -1.424318    5.441018    3.229591
  C      0.231221    6.956420    3.051755
  C      2.121440    5.296697    3.185130
  C      0.767360    5.624187    3.175204
  H     -5.271397    3.601806    3.474297
  H     -5.042401    0.936910    3.732428
  H     -2.986818   -0.732582    3.863624
  H      3.363051   -0.201104    3.706153
  H      5.103317    1.785376    3.481270
  H      4.874295    4.450291    3.223211
  H      2.818737    6.119763    3.092108
  H      0.819955    7.855111    2.952489
  H     -3.531147    5.588265    3.249501
  H     -1.857042    7.631509    3.019026
  Mg    -0.084042    2.693585    3.477789

----------------------------
CARTESIAN COORDINATES (A.U.)
----------------------------
  NO LB      ZA    FRAG     MASS         X           Y           Z
   0 N     7.0000    0    14.007   -4.018753    4.766868    6.667589
   1 H     1.0000    0     1.008    3.191655   -4.241124    7.439576
   2 C     6.0000    0    12.011   -8.253290    5.696197    6.646338
   3 C     6.0000    0    12.011   -0.754567   -2.965378    7.377707
   4 N     7.0000    0    14.007    0.172263    1.247257    6.943333
   5 C     6.0000    0    12.011    1.805164   -2.751510    7.314095
   6 H     1.0000    0     1.008   -1.867093   -4.663643    7.565577
   7 C     6.0000    0    12.011    5.407728    3.479694    6.638469
   8 N     7.0000    0    14.007   -0.489901    8.933026    6.200637
   9 C     6.0000    0    12.011   -2.122794   12.931846    5.830453
  10 C     6.0000    0    12.011    4.790204    0.933812    6.899342
  11 C     6.0000    0    12.011    5.053178    7.602686    6.239058
  12 N     7.0000    0    14.007    3.701116    5.413420    6.476731
  13 C     6.0000    0    12.011    7.716607    7.032160    6.251099
  14 C     6.0000    0    12.011   -1.767742   -0.447872    7.143980
  15 C     6.0000    0    12.011    2.373936   -0.101729    7.041177
  16 C     6.0000    0    12.011   -5.370834    2.577607    6.905224
  17 C     6.0000    0    12.011   -5.725351    6.700598    6.505785
  18 C     6.0000    0    12.011   -8.034249    3.148147    6.893162
  19 C     6.0000    0    12.011   -4.326581    0.170994    7.125295
  20 C     6.0000    0    12.011   -5.107832    9.246479    6.244906
  21 C     6.0000    0    12.011    7.935654    4.484099    6.497823
  22 C     6.0000    0    12.011   -2.691571   10.282033    6.103042
  23 C     6.0000    0    12.011    0.436944   13.145729    5.766981
  24 C     6.0000    0    12.011    4.008940   10.009307    6.019023
  25 C     6.0000    0    12.011    1.450100   10.628173    6.000267
  26 H     1.0000    0     1.008   -9.961497    6.806428    6.565470
  27 H     1.0000    0     1.008   -9.528758    1.770503    7.053266
  28 H     1.0000    0     1.008   -5.644268   -1.384379    7.301191
  29 H     1.0000    0     1.008    6.355246   -0.380031    7.003613
  30 H     1.0000    0     1.008    9.643871    3.373872    6.578646
  31 H     1.0000    0     1.008    9.211083    8.409831    6.090987
  32 H     1.0000    0     1.008    5.326641   11.564676    5.843236
  33 H     1.0000    0     1.008    1.549490   14.844008    5.579396
  34 H     1.0000    0     1.008   -6.672901   10.560290    6.140667
  35 H     1.0000    0     1.008   -3.509300   14.421462    5.705132
  36 Mg   12.0000    0    24.305   -0.158817    5.090138    6.572068

--------------------------------
INTERNAL COORDINATES (ANGSTROEM)
--------------------------------
 N      0   0   0     0.000000000000     0.00000000     0.00000000
 H      1   0   0     6.119491276487     0.00000000     0.00000000
 C      1   2   0     2.294177409054   140.92453006     0.00000000
 C      2   1   3     2.194906869500    33.50915004     0.03654954
 N      4   2   1     2.294090550086    95.56469348     0.04751811
 C      2   1   3     1.078931462307     4.27284844     0.40083788
 H      4   2   1     1.078939583961   105.16341269   180.06430126
 C      5   4   2     3.016162461030   125.61516112   359.95655471
 N      1   2   6     2.899761601367   101.32570715   180.34880946
 C      9   1   2     2.294087441504   117.77531267   179.96469761
 C      8   5   4     1.393144250589    53.16437800     0.06876310
 C      8   5   4     2.200021689544   108.37491839   180.08468447
 N     12   8   5     1.367433868161    36.44673543     0.00000000
 C     12   8   5     1.441412676383    73.05033634   180.01204037
 C      5   4   2     1.367422885977    36.31868910   180.00102268
 C      5   4   2     1.367357644410    70.79572404     0.00000000
 C      1   2   6     1.367434647900    70.13306991     0.35586623
 C      1   2   6     1.367487791728   177.24111910     0.97900926
 C      3   1   2     1.359631242567    72.76301102   359.95357395
 C     17   1   2     1.393122060686   125.07310744     0.00000000
 C     18   1  17     1.393143327356   125.09478022   180.00966439
 C     14  12   8     1.359631880754   106.94820236     0.00000000
 C      9   1   2     1.367356903781    81.45605938   180.00111785
 C     10   9   1     1.359689963047    72.76177076   180.05889371
 C     12   8   5     1.393121008199   161.52060847   359.96153148
 C      9   1   2     1.367416327023   171.42924741     0.34052806
 H      3   1   2     1.078940742119   159.26701397   179.95498931
 H     19   3   1     1.078936604777   127.96204490   180.00155066
 H     20  17   1     1.082736356593   116.52889429   179.96077396
 H     11   8   5     1.082734663195   116.52549896   180.00584317
 H     22  14  12     1.078943065563   127.96985474   179.99900777
 H     14  12   8     1.078934265943   125.08876244   180.00062158
 H     25  12   8     1.082734522723   116.52871416   180.07456094
 H     24  10   9     1.078937518569   127.96698994   179.97965206
 H     21  18   1     1.082734010826   116.52436251   179.96628297
 H     10   9   1     1.078932341162   159.27697815     0.03817484
 Mg    13  12   8     2.050360529877   126.45537008   180.01043791

---------------------------
INTERNAL COORDINATES (A.U.)
---------------------------
 N      0   0   0     0.000000000000     0.00000000     0.00000000
 H      1   0   0    11.564162591480     0.00000000     0.00000000
 C      1   2   0     4.335367005742   140.92453006     0.00000000
 C      2   1   3     4.147772872818    33.50915004     0.03654954
 N      4   2   1     4.335202866080    95.56469348     0.04751811
 C      2   1   3     2.038884981031     4.27284844     0.40083788
 H      4   2   1     2.038900328733   105.16341269   180.06430126
 C      5   4   2     5.699721026761   125.61516112   359.95655471
 N      1   2   6     5.479755280244   101.32570715   180.34880946
 C      9   1   2     4.335196991710   117.77531267   179.96469761
 C      8   5   4     2.632661098659    53.16437800     0.06876310
 C      8   5   4     4.157438481924   108.37491839   180.08468447
 N     12   8   5     2.584075517072    36.44673543     0.00000000
 C     12   8   5     2.723875204326    73.05033634   180.01204037
 C      5   4   2     2.584054763752    36.31868910   180.00102268
 C      5   4   2     2.583931475058    70.79572404     0.00000000
 C      1   2   6     2.584076990566    70.13306991     0.35586623
 C      1   2   6     2.584177417846   177.24111910     0.97900926
 C      3   1   2     2.569330691574    72.76301102   359.95357395
 C     17   1   2     2.632619165820   125.07310744     0.00000000
 C     18   1  17     2.632659354002   125.09478022   180.00966439
 C     14  12   8     2.569331897574   106.94820236     0.00000000
 C      9   1   2     2.583930075473    81.45605938   180.00111785
 C     10   9   1     2.569441657201    72.76177076   180.05889371
 C     12   8   5     2.632617176909   161.52060847   359.96153148
 C      9   1   2     2.584042369125   171.42924741     0.34052806
 H      3   1   2     2.038902517335   159.26701397   179.95498931
 H     19   3   1     2.038894698891   127.96204490   180.00155066
 H     20  17   1     2.046075189201   116.52889429   179.96077396
 H     11   8   5     2.046071989142   116.52549896   180.00584317
 H     22  14  12     2.038906908008   127.96985474   179.99900777
 H     14  12   8     2.038890279135   125.08876244   180.00062158
 H     25  12   8     2.046071723688   116.52871416   180.07456094
 H     24  10   9     2.038896425708   127.96698994   179.97965206
 H     21  18   1     2.046070756344   116.52436251   179.96628297
 H     10   9   1     2.038886641826   159.27697815     0.03817484
 Mg    13  12   8     3.874619877269   126.45537008   180.01043791

---------------------
BASIS SET INFORMATION
---------------------
There are 4 groups of distinct atoms

 Group   1 Type N   : 11s6p2d1f contracted to 5s3p2d1f pattern {62111/411/11/1}
 Group   2 Type H   : 5s1p contracted to 3s1p pattern {311/1}
 Group   3 Type C   : 11s6p2d1f contracted to 5s3p2d1f pattern {62111/411/11/1}
 Group   4 Type Mg  : 14s8p3d contracted to 5s4p3d pattern {73211/5111/111}

Atom   0N    basis set group =>   1
Atom   1H    basis set group =>   2
Atom   2C    basis set group =>   3
Atom   3C    basis set group =>   3
Atom   4N    basis set group =>   1
Atom   5C    basis set group =>   3
Atom   6H    basis set group =>   2
Atom   7C    basis set group =>   3
Atom   8N    basis set group =>   1
Atom   9C    basis set group =>   3
Atom  10C    basis set group =>   3
Atom  11C    basis set group =>   3
Atom  12N    basis set group =>   1
Atom  13C    basis set group =>   3
Atom  14C    basis set group =>   3
Atom  15C    basis set group =>   3
Atom  16C    basis set group =>   3
Atom  17C    basis set group =>   3
Atom  18C    basis set group =>   3
Atom  19C    basis set group =>   3
Atom  20C    basis set group =>   3
Atom  21C    basis set group =>   3
Atom  22C    basis set group =>   3
Atom  23C    basis set group =>   3
Atom  24C    basis set group =>   3
Atom  25C    basis set group =>   3
Atom  26H    basis set group =>   2
Atom  27H    basis set group =>   2
Atom  28H    basis set group =>   2
Atom  29H    basis set group =>   2
Atom  30H    basis set group =>   2
Atom  31H    basis set group =>   2
Atom  32H    basis set group =>   2
Atom  33H    basis set group =>   2
Atom  34H    basis set group =>   2
Atom  35H    basis set group =>   2
Atom  36Mg   basis set group =>   4
---------------------------------
AUXILIARY/J BASIS SET INFORMATION
---------------------------------
There are 4 groups of distinct atoms

 Group   1 Type N   : 12s5p4d2f1g contracted to 6s4p3d1f1g pattern {711111/2111/211/2/1}
 Group   2 Type H   : 5s2p1d contracted to 3s1p1d pattern {311/2/1}
 Group   3 Type C   : 12s5p4d2f1g contracted to 6s4p3d1f1g pattern {711111/2111/211/2/1}
 Group   4 Type Mg  : 14s5p5d2f1g contracted to 8s4p4d1f1g pattern {71111111/2111/2111/2/1}

Atom   0N    basis set group =>   1
Atom   1H    basis set group =>   2
Atom   2C    basis set group =>   3
Atom   3C    basis set group =>   3
Atom   4N    basis set group =>   1
Atom   5C    basis set group =>   3
Atom   6H    basis set group =>   2
Atom   7C    basis set group =>   3
Atom   8N    basis set group =>   1
Atom   9C    basis set group =>   3
Atom  10C    basis set group =>   3
Atom  11C    basis set group =>   3
Atom  12N    basis set group =>   1
Atom  13C    basis set group =>   3
Atom  14C    basis set group =>   3
Atom  15C    basis set group =>   3
Atom  16C    basis set group =>   3
Atom  17C    basis set group =>   3
Atom  18C    basis set group =>   3
Atom  19C    basis set group =>   3
Atom  20C    basis set group =>   3
Atom  21C    basis set group =>   3
Atom  22C    basis set group =>   3
Atom  23C    basis set group =>   3
Atom  24C    basis set group =>   3
Atom  25C    basis set group =>   3
Atom  26H    basis set group =>   2
Atom  27H    basis set group =>   2
Atom  28H    basis set group =>   2
Atom  29H    basis set group =>   2
Atom  30H    basis set group =>   2
Atom  31H    basis set group =>   2
Atom  32H    basis set group =>   2
Atom  33H    basis set group =>   2
Atom  34H    basis set group =>   2
Atom  35H    basis set group =>   2
Atom  36Mg   basis set group =>   4


           ************************************************************
           *        Program running with 4 parallel MPI-processes     *
           *              working on a common directory               *
           ************************************************************
------------------------------------------------------------------------------
                             ORCA STARTUP CALCULATIONS
                           -- RI-GTO INTEGRALS CHOSEN --
------------------------------------------------------------------------------
------------------------------------------------------------------------------
                   ___                                                        
                  /   \      - P O W E R E D   B Y -                         
                 /     \                                                     
                 |  |  |   _    _      __       _____    __    __             
                 |  |  |  | |  | |    /  \     |  _  \  |  |  /  |          
                  \  \/   | |  | |   /    \    | | | |  |  | /  /          
                 / \  \   | |__| |  /  /\  \   | |_| |  |  |/  /          
                |  |  |   |  __  | /  /__\  \  |    /   |      \           
                |  |  |   | |  | | |   __   |  |    \   |  |\   \          
                \     /   | |  | | |  |  |  |  | |\  \  |  | \   \       
                 \___/    |_|  |_| |__|  |__|  |_| \__\ |__|  \__/        
                                                                              
                      - O R C A' S   B I G   F R I E N D -                    
                                      &                                       
                       - I N T E G R A L  F E E D E R -                       
                                                                              
 v1 FN, 2020, v2 2021, v3 2022-2024                                           
------------------------------------------------------------------------------


----------------------
SHARK INTEGRAL PACKAGE
----------------------

Number of atoms                             ...     37
Number of basis functions                   ...    848
Number of shells                            ...    324
Maximum angular momentum                    ...      3
Integral batch strategy                     ... SHARK/LIBINT Hybrid
RI-J (if used) integral strategy            ... SPLIT-RIJ (Revised 2003 algorithm where possible)
Printlevel                                  ...      1
Contraction scheme used                     ... SEGMENTED contraction
Prescreening option                         ... SCHWARTZ
   Thresh                                   ... 2.500e-11
   Tcut                                     ... 2.500e-12
   Tpresel                                  ... 2.500e-12 
Coulomb Range Separation                    ... NOT USED
Exchange Range Separation                   ... NOT USED
Multipole approximations                    ... NOT USED
Finite Nucleus Model                        ... NOT USED
CABS basis                                  ... NOT available
Auxiliary Coulomb fitting basis             ... AVAILABLE
   # of basis functions in Aux-J            ...   1364
   # of shells in Aux-J                     ...    438
   Maximum angular momentum in Aux-J        ...      4
Auxiliary J/K fitting basis                 ... NOT available
Auxiliary Correlation fitting basis         ... NOT available
Auxiliary 'external' fitting basis          ... NOT available

Checking pre-screening integrals            ... done (  0.0 sec) Dimension = 324
   => SHARK Basis and OBASIS are compatible. Storing Pre-screening
Shell pair information
Shell pair cut-off parameter TPreSel        ...   2.5e-12
Total number of shell pairs                 ...     52650
Shell pairs after pre-screening             ...     37452
Total number of primitive shell pairs       ...    167352
Primitive shell pairs kept                  ...     77858
          la=0 lb=0:   8711 shell pairs
          la=1 lb=0:  10604 shell pairs
          la=1 lb=1:   3186 shell pairs
          la=2 lb=0:   5583 shell pairs
          la=2 lb=1:   3500 shell pairs
          la=2 lb=2:    986 shell pairs
          la=3 lb=0:   2388 shell pairs
          la=3 lb=1:   1536 shell pairs
          la=3 lb=2:    788 shell pairs
          la=3 lb=3:    170 shell pairs

Checking whether 4 symmetric matrices of dimension 848 fit in memory
:Max Core in MB      =   3000.00
 MB in use           =     49.24
 MB left             =   2950.76
 MB needed           =     10.99
 Data fit in memory  = YES
Calculating RI/J V-Matrix + Cholesky decomp.... done (  0.2 sec)
Calculating Nuclear repulsion               ... done (  0.0 sec) ENN=   2121.711186967779 Eh

Diagonalization of the overlap matrix:
Smallest eigenvalue                        ... 1.003e-05
Time for diagonalization                   ...    0.196 sec
Threshold for overlap eigenvalues          ... 1.000e-07
Number of eigenvalues below threshold      ... 0
Time for construction of square roots      ...    0.105 sec
Total time needed                          ...    0.311 sec

-------------------
DFT GRID GENERATION
-------------------

General Integration Accuracy     IntAcc      ... 4.959
Radial Grid Type                 RadialGrid  ... OptM3 with GC (2021)
Angular Grid (max. ang.)         AngularGrid ... 6 (Lebedev-590)
Angular grid pruning method      GridPruning ... 4 (adaptive)
Weight generation scheme         WeightScheme... mBecke (2022)
Basis function cutoff            BFCut       ... 1.0000e-11
Integration weight cutoff        WCut        ... 1.0000e-14
Partially contracted basis set               ... off
Rotationally invariant grid construction     ... off
Angular grids for H and He will be reduced by one unit

Total number of grid points                  ...   456655
Total number of batches                      ...     7152
Average number of points per batch           ...       63
Average number of grid points per atom       ...    12342

--------------------
COSX GRID GENERATION
--------------------

GRIDX 1
-------
General Integration Accuracy     IntAcc      ... 4.020
Radial Grid Type                 RadialGrid  ... OptM3 with GC (2021)
Angular Grid (max. ang.)         AngularGrid ... 2 (Lebedev-110)
Angular grid pruning method      GridPruning ... 4 (adaptive)
Weight generation scheme         WeightScheme... mBecke (2022)
Basis function cutoff            BFCut       ... 1.0000e-11
Integration weight cutoff        WCut        ... 1.0000e-14
Partially contracted basis set               ... on
Rotationally invariant grid construction     ... off
Angular grids for H and He will be reduced by one unit

Total number of grid points                  ...    52690
Total number of batches                      ...      428
Average number of points per batch           ...      123
Average number of grid points per atom       ...     1424
UseSFitting                                  ... on

GRIDX 2
-------
General Integration Accuracy     IntAcc      ... 4.338
Radial Grid Type                 RadialGrid  ... OptM3 with GC (2021)
Angular Grid (max. ang.)         AngularGrid ... 3 (Lebedev-194)
Angular grid pruning method      GridPruning ... 4 (adaptive)
Weight generation scheme         WeightScheme... mBecke (2022)
Basis function cutoff            BFCut       ... 1.0000e-11
Integration weight cutoff        WCut        ... 1.0000e-14
Partially contracted basis set               ... on
Rotationally invariant grid construction     ... off
Angular grids for H and He will be reduced by one unit

Total number of grid points                  ...   116101
Total number of batches                      ...      923
Average number of points per batch           ...      125
Average number of grid points per atom       ...     3138
UseSFitting                                  ... on

GRIDX 3
-------
General Integration Accuracy     IntAcc      ... 4.871
Radial Grid Type                 RadialGrid  ... OptM3 with GC (2021)
Angular Grid (max. ang.)         AngularGrid ... 4 (Lebedev-302)
Angular grid pruning method      GridPruning ... 4 (adaptive)
Weight generation scheme         WeightScheme... mBecke (2022)
Basis function cutoff            BFCut       ... 1.0000e-11
Integration weight cutoff        WCut        ... 1.0000e-14
Partially contracted basis set               ... on
Rotationally invariant grid construction     ... off
Angular grids for H and He will be reduced by one unit

Total number of grid points                  ...   212436
Total number of batches                      ...     1675
Average number of points per batch           ...      126
Average number of grid points per atom       ...     5742
UseSFitting                                  ... on
Grids setup in  14.2 sec
Initializing property integral containers    ... done (  0.0 sec)

SHARK setup successfully completed in  15.6 seconds

Maximum memory used throughout the entire STARTUP-calculation: 148.4 MB


           ************************************************************
           *        Program running with 4 parallel MPI-processes     *
           *              working on a common directory               *
           ************************************************************
-------------------------------------------------------------------------------
                                 ORCA GUESS
                   Start orbitals & Density for SCF / CASSCF
-------------------------------------------------------------------------------

------------
SCF SETTINGS
------------
Hamiltonian:
 Density Functional     Method          .... DFT(GTOs)
 Exchange Functional    Exchange        .... M062X
 Correlation Functional Correlation     .... M062X
 Gradients option       PostSCFGGA      .... off
 Hybrid DFT is turned on
   Fraction HF Exchange ScalHFX         ....  0.540000
   Scaling of DF-GGA-X  ScalDFX         ....  0.460000
   Scaling of DF-GGA-C  ScalDFC         ....  1.000000
   Scaling of DF-LDA-C  ScalLDAC        ....  1.000000
   Perturbative correction              ....  0.000000
 RI-approximation to the Coulomb term is turned on
   Number of AuxJ basis functions       .... 1364
   RIJ-COSX (HFX calculated with COS-X)).... on


General Settings:
 Integral files         IntName         .... tddft
 Hartree-Fock type      HFTyp           .... RHF
 Total Charge           Charge          ....    0
 Multiplicity           Mult            ....    1
 Number of Electrons    NEL             ....  172
 Basis Dimension        Dim             ....  848
 Nuclear Repulsion      ENuc            ....   2121.7111869678 Eh

Convergence Acceleration:
 AO-DIIS                CNVDIIS         .... on
   Start iteration      DIISMaxIt       ....    12
   Startup error        DIISStart       ....  0.200000
   # of expansion vecs  DIISMaxEq       ....     5
   Bias factor          DIISBfac        ....   1.050
   Max. coefficient     DIISMaxC        ....  10.000
 MO-DIIS                CNVKDIIS        .... off
 Trust-Rad. Augm. Hess. CNVTRAH         .... auto
   Auto Start mean grad. ratio tolernc. ....  1.125000
   Auto Start start iteration           ....    50
   Auto Start num. interpolation iter.  ....    10
   Max. Number of Micro iterations      ....    24
   Max. Number of Macro iterations      .... Maxiter - #DIIS iter
   Number of Davidson start vectors     ....     2
   Converg. threshold    (grad. norm)   ....   1.000e-05
   Grad. Scal. Fac. for Micro threshold ....   0.100
   Minimum threshold for Micro iter.    ....   1.000e-02
   NR start threshold (gradient norm)   ....   1.000e-04
   Initial trust radius                 ....   0.400
   Minimum AH scaling param. (alpha)    ....   1.000
   Maximum AH scaling param. (alpha)    .... 1000.000
   Quad. conv. algorithm                .... NR
   White noise on init. David. guess    .... on
   Maximum white noise                  ....   0.010
   Pseudo random numbers                .... off
   Inactive MOs                         .... canonical
   Orbital update algorithm             .... Taylor
   Preconditioner                       .... Diag
   Full preconditioner red. dimension   ....   250
 SOSCF                 CNVSOSCF           .... on
   Start iteration     SOSCFMaxIt         ....   150
   Startup grad/error  SOSCFStart         ....  0.003300
   Hessian update      SOSCFHessUp        .... L-BFGS
   Autom. constraints  SOSCFAutoConstrain .... off
 Level Shifting         CNVShift        .... on
   Level shift para.    LevelShift      ....    0.2500
   Turn off err/grad.   ShiftErr        ....    0.0010
 Zerner damping         CNVZerner       .... off
 Static damping         CNVDamp         .... on
   Fraction old density DampFac         ....    0.7000
   Max. Damping (<1)    DampMax         ....    0.9800
   Min. Damping (>=0)   DampMin         ....    0.0000
   Turn off err/grad.   DampErr         ....    0.1000

SCF Procedure:
 Maximum # iterations   MaxIter         ....   125
 SCF integral mode      SCFMode         .... Direct
   Integral package                     .... SHARK and LIBINT hybrid scheme
 Reset frequency        DirectResetFreq ....    20
 Integral Threshold     Thresh          ....  2.500e-11 Eh
 Primitive CutOff       TCut            ....  2.500e-12 Eh

Convergence Tolerance:
 Convergence Check Mode ConvCheckMode   .... Total+1el-Energy
 Convergence forced     ConvForced      .... 1
 Energy Change          TolE            ....  1.000e-08 Eh
 1-El. energy change                    ....  1.000e-05 Eh
 Orbital Gradient       TolG            ....  1.000e-05
 Orbital Rotation angle TolX            ....  1.000e-05
 DIIS Error             TolErr          ....  5.000e-07

------------------------------
INITIAL GUESS: MODEL POTENTIAL
------------------------------
Loading Hartree-Fock densities                     ... done
Calculating cut-offs                               ... done
Initializing the effective Hamiltonian             ... done
Setting up the integral package (SHARK)            ... done
Starting the Coulomb interaction                   ... done (   1.7 sec)
Making the grid                                    ... done (   0.6 sec)
Mapping shells                                     ... done
Starting the XC term evaluation                    ... done (   0.9 sec)
  promolecular density results
     # of electrons  =    171.995110955
     EX              =   -148.115499445
     EC              =     -5.855479608
     EX+EC           =   -153.970979052
Transforming the Hamiltonian                       ... done (   0.1 sec)
Diagonalizing the Hamiltonian                      ... done (   0.2 sec)
Back transforming the eigenvectors                 ... done (   0.1 sec)
Now organizing SCF variables                       ... done
                      ------------------
                      INITIAL GUESS DONE (   3.6 sec)
                      ------------------
             **** ENERGY FILE WAS UPDATED (tddft.en.tmp) ****
Finished Guess after   4.1 sec
Maximum memory used throughout the entire GUESS-calculation: 83.5 MB


           ************************************************************
           *        Program running with 4 parallel MPI-processes     *
           *              working on a common directory               *
           ************************************************************

-------------------------------------------------------------------------------------------
                                      ORCA LEAN-SCF
                              memory conserving SCF solver
-------------------------------------------------------------------------------------------

----------------------------------------D-I-I-S--------------------------------------------
Iteration    Energy (Eh)           Delta-E    RMSDP     MaxDP     DIISErr   Damp  Time(sec)
-------------------------------------------------------------------------------------------
               ***  Starting incremental Fock matrix formation  ***
    1    -1187.9464436726216263     0.00e+00  2.53e-03  5.30e-02  2.31e-01  0.700  96.7
    2    -1188.1930946220777514    -2.47e-01  2.05e-03  4.72e-02  1.21e-01  0.700  49.8
                               ***Turning on AO-DIIS***
    3    -1188.3130598628481494    -1.20e-01  1.40e-03  3.41e-02  5.13e-02  0.700  48.4
    4    -1188.3844312912424357    -7.14e-02  3.21e-03  7.61e-02  3.59e-02  0.000  45.8
    5    -1188.5368691905123342    -1.52e-01  2.11e-04  3.57e-03  3.98e-03  0.000  48.4
                              *** Initializing SOSCF ***
---------------------------------------S-O-S-C-F--------------------------------------
Iteration    Energy (Eh)           Delta-E    RMSDP     MaxDP     MaxGrad    Time(sec)
--------------------------------------------------------------------------------------
    6    -1188.5373649397474765    -4.96e-04  8.55e-05  1.64e-03  1.93e-03    56.0
               *** Restarting incremental Fock matrix formation ***
    7    -1188.5374022741852968    -3.73e-05  6.13e-05  1.96e-03  4.33e-04   114.1
    8    -1188.5374116165658052    -9.34e-06  2.06e-05  3.84e-04  1.84e-04    89.5
    9    -1188.5374124024815501    -7.86e-07  8.90e-06  2.89e-04  1.35e-04    67.3
   10    -1188.5374128629946426    -4.61e-07  3.37e-06  1.06e-04  4.50e-05    56.6
   11    -1188.5374128991784346    -3.62e-08  1.47e-06  4.16e-05  1.88e-05    79.1
   12    -1188.5374128729536096     2.62e-08  1.33e-06  2.51e-05  5.96e-06    43.5
   13    -1188.5374128650787497     7.87e-09  1.29e-06  3.41e-05  2.31e-06    42.0
                 **** Energy Check signals convergence ****

               *****************************************************
               *                     SUCCESS                       *
               *           SCF CONVERGED AFTER  13 CYCLES          *
               *****************************************************

Recomputing exchange energy using gridx3       ... done (  167.611 sec)
Old exchange energy                            :    -81.380637352 Eh
New exchange energy                            :    -81.380637757 Eh
Exchange energy change after final integration :     -0.000000406 Eh
Total energy after final integration           :  -1188.537413281 Eh
             **** ENERGY FILE WAS UPDATED (tddft.en.tmp) ****

----------------
TOTAL SCF ENERGY
----------------

Total Energy       :      -1188.53741328144292 Eh          -32341.74724 eV

Components:
Nuclear Repulsion  :       2121.71118696777876 Eh           57734.69657 eV
Electronic Energy  :      -3310.24859984357317 Eh          -90076.44380 eV
One Electron Energy:      -5837.70558167311265 Eh         -158852.04476 eV
Two Electron Energy:       2527.45698182953947 Eh           68775.60096 eV

Virial components:
Potential Energy   :      -2371.39903131332267 Eh          -64529.04824 eV
Kinetic Energy     :       1182.86161803187974 Eh           32187.30100 eV
Virial Ratio       :          2.00479835947252

DFT components:
N(Alpha)           :       86.000002365455 electrons
N(Beta)            :       86.000002365455 electrons
N(Total)           :      172.000004730910 electrons
E(XC)              :      -75.758946756493 Eh       

---------------
SCF CONVERGENCE
---------------

  Last Energy change         ...   -7.8749e-09  Tolerance :   1.0000e-08
  Last MAX-Density change    ...    3.4136e-05  Tolerance :   1.0000e-07
  Last RMS-Density change    ...    1.2905e-06  Tolerance :   5.0000e-09
  Last DIIS Error            ...    1.9314e-03  Tolerance :   5.0000e-07
  Last Orbital Gradient      ...    2.3095e-06  Tolerance :   1.0000e-05
  Last Orbital Rotation      ...    6.9554e-06  Tolerance :   1.0000e-05


----------------
ORBITAL ENERGIES
----------------

  NO   OCC          E(Eh)            E(eV) 
   0   2.0000     -47.512107     -1292.8702 
   1   2.0000     -14.740599      -401.1121 
   2   2.0000     -14.740596      -401.1120 
   3   2.0000     -14.740595      -401.1120 
   4   2.0000     -14.740592      -401.1119 
   5   2.0000     -10.577107      -287.8177 
   6   2.0000     -10.577103      -287.8176 
   7   2.0000     -10.577101      -287.8176 
   8   2.0000     -10.577097      -287.8175 
   9   2.0000     -10.577065      -287.8166 
  10   2.0000     -10.577064      -287.8165 
  11   2.0000     -10.577060      -287.8164 
  12   2.0000     -10.577059      -287.8164 
  13   2.0000     -10.551700      -287.1263 
  14   2.0000     -10.551697      -287.1263 
  15   2.0000     -10.551693      -287.1262 
  16   2.0000     -10.551691      -287.1261 
  17   2.0000     -10.543560      -286.9049 
  18   2.0000     -10.543560      -286.9049 
  19   2.0000     -10.543556      -286.9047 
  20   2.0000     -10.543555      -286.9047 
  21   2.0000     -10.542592      -286.8785 
  22   2.0000     -10.542591      -286.8785 
  23   2.0000     -10.542587      -286.8784 
  24   2.0000     -10.542587      -286.8784 
  25   2.0000      -3.267547       -88.9145 
  26   2.0000      -1.962737       -53.4088 
  27   2.0000      -1.958934       -53.3053 
  28   2.0000      -1.958934       -53.3053 
  29   2.0000      -1.075504       -29.2660 
  30   2.0000      -1.066118       -29.0105 
  31   2.0000      -1.066085       -29.0097 
  32   2.0000      -1.055709       -28.7273 
  33   2.0000      -0.918409       -24.9912 
  34   2.0000      -0.889485       -24.2041 
  35   2.0000      -0.889481       -24.2040 
  36   2.0000      -0.870279       -23.6815 
  37   2.0000      -0.864246       -23.5173 
  38   2.0000      -0.864237       -23.5171 
  39   2.0000      -0.860125       -23.4052 
  40   2.0000      -0.834785       -22.7157 
  41   2.0000      -0.810247       -22.0479 
  42   2.0000      -0.742877       -20.2147 
  43   2.0000      -0.742867       -20.2144 
  44   2.0000      -0.680443       -18.5158 
  45   2.0000      -0.655981       -17.8501 
  46   2.0000      -0.653317       -17.7777 
  47   2.0000      -0.653304       -17.7773 
  48   2.0000      -0.649435       -17.6720 
  49   2.0000      -0.628296       -17.0968 
  50   2.0000      -0.620585       -16.8870 
  51   2.0000      -0.601526       -16.3684 
  52   2.0000      -0.601519       -16.3682 
  53   2.0000      -0.586913       -15.9707 
  54   2.0000      -0.569636       -15.5006 
  55   2.0000      -0.569635       -15.5005 
  56   2.0000      -0.517182       -14.0732 
  57   2.0000      -0.506897       -13.7934 
  58   2.0000      -0.501349       -13.6424 
  59   2.0000      -0.490607       -13.3501 
  60   2.0000      -0.490594       -13.3498 
  61   2.0000      -0.490379       -13.3439 
  62   2.0000      -0.490362       -13.3434 
  63   2.0000      -0.488691       -13.2980 
  64   2.0000      -0.476803       -12.9745 
  65   2.0000      -0.465492       -12.6667 
  66   2.0000      -0.454955       -12.3800 
  67   2.0000      -0.454938       -12.3795 
  68   2.0000      -0.447880       -12.1874 
  69   2.0000      -0.437882       -11.9154 
  70   2.0000      -0.437872       -11.9151 
  71   2.0000      -0.435280       -11.8446 
  72   2.0000      -0.432513       -11.7693 
  73   2.0000      -0.427977       -11.6458 
  74   2.0000      -0.390592       -10.6286 
  75   2.0000      -0.381533       -10.3820 
  76   2.0000      -0.381522       -10.3817 
  77   2.0000      -0.351818        -9.5735 
  78   2.0000      -0.340483        -9.2650 
  79   2.0000      -0.340480        -9.2649 
  80   2.0000      -0.322240        -8.7686 
  81   2.0000      -0.310003        -8.4356 
  82   2.0000      -0.309998        -8.4355 
  83   2.0000      -0.305956        -8.3255 
  84   2.0000      -0.235890        -6.4189 
  85   2.0000      -0.234319        -6.3761 
  86   0.0000      -0.070712        -1.9242 
  87   0.0000      -0.070698        -1.9238 
  88   0.0000       0.004408         0.1200 
  89   0.0000       0.024061         0.6547 
  90   0.0000       0.049614         1.3501 
  91   0.0000       0.080334         2.1860 
  92   0.0000       0.083752         2.2790 
  93   0.0000       0.085032         2.3138 
  94   0.0000       0.085036         2.3140 
  95   0.0000       0.087676         2.3858 
  96   0.0000       0.087684         2.3860 
*Only the first 10 virtual orbitals were printed.

                    ********************************
                    * MULLIKEN POPULATION ANALYSIS *
                    ********************************

-----------------------
MULLIKEN ATOMIC CHARGES
-----------------------
   0 N :   -0.419031
   1 H :    0.146676
   2 C :   -0.204409
   3 C :   -0.204270
   4 N :   -0.419433
   5 C :   -0.203450
   6 H :    0.146790
   7 C :    0.232524
   8 N :   -0.419436
   9 C :   -0.203357
  10 C :   -0.262092
  11 C :    0.233653
  12 N :   -0.419005
  13 C :   -0.203548
  14 C :    0.232623
  15 C :    0.233999
  16 C :    0.233589
  17 C :    0.232576
  18 C :   -0.203514
  19 C :   -0.262332
  20 C :   -0.262101
  21 C :   -0.204361
  22 C :    0.233874
  23 C :   -0.204316
  24 C :   -0.262396
  25 C :    0.232730
  26 H :    0.146780
  27 H :    0.146758
  28 H :    0.148148
  29 H :    0.148138
  30 H :    0.146767
  31 H :    0.146732
  32 H :    0.148160
  33 H :    0.146758
  34 H :    0.148140
  35 H :    0.146694
  36 Mg:    0.724941
Sum of atomic charges:   -0.0000000

--------------------------------
MULLIKEN REDUCED ORBITAL CHARGES
--------------------------------
  0 N s       :     3.682534  s :     3.682534
      pz      :     1.367350  p :     3.682241
      px      :     1.281199
      py      :     1.033692
      dz2     :     0.004481  d :     0.050736
      dxz     :     0.005818
      dyz     :     0.013143
      dx2y2   :     0.013186
      dxy     :     0.014108
      f0      :     0.000696  f :     0.003521
      f+1     :     0.000347
      f-1     :     0.000504
      f+2     :     0.000104
      f-2     :     0.000515
      f+3     :     0.000602
      f-3     :     0.000752

  1 H s       :     0.833064  s :     0.833064
      pz      :     0.004065  p :     0.020260
      px      :     0.007560
      py      :     0.008636

  2 C s       :     3.221940  s :     3.221940
      pz      :     0.994327  p :     2.911851
      px      :     0.960630
      py      :     0.956893
      dz2     :     0.005786  d :     0.063647
      dxz     :     0.009138
      dyz     :     0.019648
      dx2y2   :     0.010170
      dxy     :     0.018905
      f0      :     0.001262  f :     0.006972
      f+1     :     0.000906
      f-1     :     0.000709
      f+2     :     0.000811
      f-2     :     0.000374
      f+3     :     0.001869
      f-3     :     0.001041

  3 C s       :     3.221699  s :     3.221699
      pz      :     0.994716  p :     2.911961
      px      :     0.956358
      py      :     0.960886
      dz2     :     0.005315  d :     0.063638
      dxz     :     0.020271
      dyz     :     0.009030
      dx2y2   :     0.010065
      dxy     :     0.018958
      f0      :     0.001306  f :     0.006972
      f+1     :     0.000633
      f-1     :     0.000905
      f+2     :     0.000858
      f-2     :     0.000369
      f+3     :     0.001020
      f-3     :     0.001881

  4 N s       :     3.682963  s :     3.682963
      pz      :     1.369556  p :     3.682199
      px      :     1.030548
      py      :     1.282095
      dz2     :     0.004293  d :     0.050750
      dxz     :     0.013393
      dyz     :     0.005753
      dx2y2   :     0.013124
      dxy     :     0.014187
      f0      :     0.000700  f :     0.003521
      f+1     :     0.000491
      f-1     :     0.000356
      f+2     :     0.000100
      f-2     :     0.000508
      f+3     :     0.000761
      f-3     :     0.000605

  5 C s       :     3.221132  s :     3.221132
      pz      :     0.994231  p :     2.911677
      px      :     0.975929
      py      :     0.941516
      dz2     :     0.005550  d :     0.063668
      dxz     :     0.017858
      dyz     :     0.011201
      dx2y2   :     0.013166
      dxy     :     0.015892
      f0      :     0.001294  f :     0.006974
      f+1     :     0.000689
      f-1     :     0.000871
      f+2     :     0.001094
      f-2     :     0.000119
      f+3     :     0.001110
      f-3     :     0.001797

  6 H s       :     0.832947  s :     0.832947
      pz      :     0.004115  p :     0.020263
      px      :     0.005829
      py      :     0.010319

  7 C s       :     3.127121  s :     3.127121
      pz      :     0.907636  p :     2.507741
      px      :     0.786839
      py      :     0.813266
      dz2     :     0.003702  d :     0.119669
      dxz     :     0.029463
      dyz     :     0.036182
      dx2y2   :     0.024644
      dxy     :     0.025678
      f0      :     0.001986  f :     0.012945
      f+1     :     0.001031
      f-1     :     0.001278
      f+2     :     0.000582
      f-2     :     0.002036
      f+3     :     0.002813
      f-3     :     0.003220

  8 N s       :     3.682957  s :     3.682957
      pz      :     1.369549  p :     3.682208
      px      :     1.030547
      py      :     1.282112
      dz2     :     0.004293  d :     0.050750
      dxz     :     0.013393
      dyz     :     0.005753
      dx2y2   :     0.013125
      dxy     :     0.014186
      f0      :     0.000700  f :     0.003521
      f+1     :     0.000491
      f-1     :     0.000356
      f+2     :     0.000100
      f-2     :     0.000508
      f+3     :     0.000761
      f-3     :     0.000605

  9 C s       :     3.220895  s :     3.220895
      pz      :     0.994238  p :     2.911819
      px      :     0.975972
      py      :     0.941610
      dz2     :     0.005548  d :     0.063668
      dxz     :     0.017859
      dyz     :     0.011202
      dx2y2   :     0.013167
      dxy     :     0.015892
      f0      :     0.001295  f :     0.006974
      f+1     :     0.000689
      f-1     :     0.000871
      f+2     :     0.001094
      f-2     :     0.000118
      f+3     :     0.001110
      f-3     :     0.001797

 10 C s       :     3.151237  s :     3.151237
      pz      :     1.012841  p :     3.045332
      px      :     1.029657
      py      :     1.002834
      dz2     :     0.004809  d :     0.059057
      dxz     :     0.013227
      dyz     :     0.017100
      dx2y2   :     0.011364
      dxy     :     0.012555
      f0      :     0.001140  f :     0.006467
      f+1     :     0.000747
      f-1     :     0.000808
      f+2     :     0.000605
      f-2     :     0.000419
      f+3     :     0.001535
      f-3     :     0.001212

 11 C s       :     3.128378  s :     3.128378
      pz      :     0.907080  p :     2.505435
      px      :     0.802253
      py      :     0.796102
      dz2     :     0.003869  d :     0.119593
      dxz     :     0.028434
      dyz     :     0.037154
      dx2y2   :     0.023138
      dxy     :     0.026998
      f0      :     0.001981  f :     0.012941
      f+1     :     0.000987
      f-1     :     0.001329
      f+2     :     0.000966
      f-2     :     0.001650
      f+3     :     0.001652
      f-3     :     0.004376

 12 N s       :     3.682526  s :     3.682526
      pz      :     1.367353  p :     3.682221
      px      :     1.281201
      py      :     1.033667
      dz2     :     0.004481  d :     0.050737
      dxz     :     0.005818
      dyz     :     0.013143
      dx2y2   :     0.013186
      dxy     :     0.014109
      f0      :     0.000696  f :     0.003521
      f+1     :     0.000347
      f-1     :     0.000504
      f+2     :     0.000104
      f-2     :     0.000515
      f+3     :     0.000602
      f-3     :     0.000752

 13 C s       :     3.220986  s :     3.220986
      pz      :     0.994920  p :     2.911925
      px      :     0.940877
      py      :     0.976128
      dz2     :     0.005586  d :     0.063663
      dxz     :     0.011423
      dyz     :     0.017592
      dx2y2   :     0.013300
      dxy     :     0.015762
      f0      :     0.001274  f :     0.006974
      f+1     :     0.000831
      f-1     :     0.000767
      f+2     :     0.001061
      f-2     :     0.000138
      f+3     :     0.001779
      f-3     :     0.001125

 14 C s       :     3.126941  s :     3.126941
      pz      :     0.907078  p :     2.507807
      px      :     0.812384
      py      :     0.788345
      dz2     :     0.003375  d :     0.119683
      dxz     :     0.037296
      dyz     :     0.028871
      dx2y2   :     0.024368
      dxy     :     0.025774
      f0      :     0.002005  f :     0.012945
      f+1     :     0.001248
      f-1     :     0.001037
      f+2     :     0.000598
      f-2     :     0.002002
      f+3     :     0.003245
      f-3     :     0.002810

 15 C s       :     3.128204  s :     3.128204
      pz      :     0.907563  p :     2.505265
      px      :     0.794923
      py      :     0.802778
      dz2     :     0.003408  d :     0.119589
      dxz     :     0.038377
      dyz     :     0.027841
      dx2y2   :     0.022900
      dxy     :     0.027063
      f0      :     0.002010  f :     0.012943
      f+1     :     0.001261
      f-1     :     0.001008
      f+2     :     0.000928
      f-2     :     0.001673
      f+3     :     0.004407
      f-3     :     0.001655

 16 C s       :     3.128379  s :     3.128379
      pz      :     0.907085  p :     2.505498
      px      :     0.802299
      py      :     0.796114
      dz2     :     0.003869  d :     0.119594
      dxz     :     0.028434
      dyz     :     0.037153
      dx2y2   :     0.023139
      dxy     :     0.026998
      f0      :     0.001981  f :     0.012941
      f+1     :     0.000987
      f-1     :     0.001329
      f+2     :     0.000966
      f-2     :     0.001650
      f+3     :     0.001652
      f-3     :     0.004377

 17 C s       :     3.127145  s :     3.127145
      pz      :     0.907642  p :     2.507663
      px      :     0.786754
      py      :     0.813267
      dz2     :     0.003703  d :     0.119670
      dxz     :     0.029463
      dyz     :     0.036182
      dx2y2   :     0.024648
      dxy     :     0.025675
      f0      :     0.001986  f :     0.012945
      f+1     :     0.001031
      f-1     :     0.001278
      f+2     :     0.000582
      f-2     :     0.002036
      f+3     :     0.002813
      f-3     :     0.003220

 18 C s       :     3.220919  s :     3.220919
      pz      :     0.994927  p :     2.911954
      px      :     0.940900
      py      :     0.976127
      dz2     :     0.005587  d :     0.063668
      dxz     :     0.011423
      dyz     :     0.017592
      dx2y2   :     0.013299
      dxy     :     0.015767
      f0      :     0.001274  f :     0.006974
      f+1     :     0.000831
      f-1     :     0.000767
      f+2     :     0.001061
      f-2     :     0.000138
      f+3     :     0.001779
      f-3     :     0.001125

 19 C s       :     3.151529  s :     3.151529
      pz      :     1.013635  p :     3.045242
      px      :     1.002335
      py      :     1.029272
      dz2     :     0.004450  d :     0.059093
      dxz     :     0.017604
      dyz     :     0.013097
      dx2y2   :     0.011417
      dxy     :     0.012526
      f0      :     0.001160  f :     0.006468
      f+1     :     0.000762
      f-1     :     0.000761
      f+2     :     0.000611
      f-2     :     0.000417
      f+3     :     0.001209
      f-3     :     0.001549

 20 C s       :     3.151154  s :     3.151154
      pz      :     1.012831  p :     3.045416
      px      :     1.029740
      py      :     1.002844
      dz2     :     0.004808  d :     0.059063
      dxz     :     0.013228
      dyz     :     0.017100
      dx2y2   :     0.011370
      dxy     :     0.012557
      f0      :     0.001140  f :     0.006467
      f+1     :     0.000747
      f-1     :     0.000808
      f+2     :     0.000605
      f-2     :     0.000419
      f+3     :     0.001535
      f-3     :     0.001212

 21 C s       :     3.221869  s :     3.221869
      pz      :     0.994324  p :     2.911876
      px      :     0.960627
      py      :     0.956924
      dz2     :     0.005786  d :     0.063643
      dxz     :     0.009138
      dyz     :     0.019648
      dx2y2   :     0.010171
      dxy     :     0.018901
      f0      :     0.001262  f :     0.006972
      f+1     :     0.000906
      f-1     :     0.000709
      f+2     :     0.000811
      f-2     :     0.000374
      f+3     :     0.001869
      f-3     :     0.001041

 22 C s       :     3.128267  s :     3.128267
      pz      :     0.907582  p :     2.505316
      px      :     0.794914
      py      :     0.802819
      dz2     :     0.003409  d :     0.119601
      dxz     :     0.038377
      dyz     :     0.027843
      dx2y2   :     0.022906
      dxy     :     0.027066
      f0      :     0.002011  f :     0.012943
      f+1     :     0.001261
      f-1     :     0.001008
      f+2     :     0.000928
      f-2     :     0.001673
      f+3     :     0.004407
      f-3     :     0.001655

 23 C s       :     3.221883  s :     3.221883
      pz      :     0.994711  p :     2.911822
      px      :     0.956305
      py      :     0.960805
      dz2     :     0.005315  d :     0.063639
      dxz     :     0.020271
      dyz     :     0.009031
      dx2y2   :     0.010066
      dxy     :     0.018957
      f0      :     0.001306  f :     0.006972
      f+1     :     0.000633
      f-1     :     0.000905
      f+2     :     0.000858
      f-2     :     0.000368
      f+3     :     0.001020
      f-3     :     0.001881

 24 C s       :     3.151530  s :     3.151530
      pz      :     1.013640  p :     3.045307
      px      :     1.002366
      py      :     1.029302
      dz2     :     0.004450  d :     0.059091
      dxz     :     0.017603
      dyz     :     0.013096
      dx2y2   :     0.011413
      dxy     :     0.012529
      f0      :     0.001160  f :     0.006468
      f+1     :     0.000762
      f-1     :     0.000761
      f+2     :     0.000611
      f-2     :     0.000417
      f+3     :     0.001209
      f-3     :     0.001549

 25 C s       :     3.126958  s :     3.126958
      pz      :     0.907082  p :     2.507691
      px      :     0.812360
      py      :     0.788249
      dz2     :     0.003371  d :     0.119676
      dxz     :     0.037296
      dyz     :     0.028874
      dx2y2   :     0.024369
      dxy     :     0.025767
      f0      :     0.002005  f :     0.012945
      f+1     :     0.001248
      f-1     :     0.001037
      f+2     :     0.000598
      f-2     :     0.002002
      f+3     :     0.003245
      f-3     :     0.002810

 26 H s       :     0.832957  s :     0.832957
      pz      :     0.004040  p :     0.020263
      px      :     0.010396
      py      :     0.005827

 27 H s       :     0.832983  s :     0.832983
      pz      :     0.004087  p :     0.020259
      px      :     0.008663
      py      :     0.007509

 28 H s       :     0.831243  s :     0.831243
      pz      :     0.004533  p :     0.020610
      px      :     0.007157
      py      :     0.008920

 29 H s       :     0.831252  s :     0.831252
      pz      :     0.004481  p :     0.020609
      px      :     0.008979
      py      :     0.007149

 30 H s       :     0.832970  s :     0.832970
      pz      :     0.004040  p :     0.020263
      px      :     0.010396
      py      :     0.005827

 31 H s       :     0.833009  s :     0.833009
      pz      :     0.004087  p :     0.020259
      px      :     0.008663
      py      :     0.007509

 32 H s       :     0.831230  s :     0.831230
      pz      :     0.004533  p :     0.020610
      px      :     0.007157
      py      :     0.008920

 33 H s       :     0.832979  s :     0.832979
      pz      :     0.004115  p :     0.020263
      px      :     0.005829
      py      :     0.010320

 34 H s       :     0.831251  s :     0.831251
      pz      :     0.004481  p :     0.020609
      px      :     0.008980
      py      :     0.007149

 35 H s       :     0.833046  s :     0.833046
      pz      :     0.004065  p :     0.020260
      px      :     0.007560
      py      :     0.008636

 36 Mgs       :     4.540742  s :     4.540742
      pz      :     2.092542  p :     6.462674
      px      :     2.185503
      py      :     2.184629
      dz2     :     0.031498  d :     0.271643
      dxz     :     0.027401
      dyz     :     0.028644
      dx2y2   :     0.162745
      dxy     :     0.021356



                     *******************************
                     * LOEWDIN POPULATION ANALYSIS *
                     *******************************

----------------------
LOEWDIN ATOMIC CHARGES
----------------------
   0 N :    0.177195
   1 H :    0.141792
   2 C :   -0.108522
   3 C :   -0.108514
   4 N :    0.177234
   5 C :   -0.108516
   6 H :    0.141806
   7 C :   -0.197285
   8 N :    0.177237
   9 C :   -0.108516
  10 C :   -0.080377
  11 C :   -0.197338
  12 N :    0.177194
  13 C :   -0.108523
  14 C :   -0.197320
  15 C :   -0.197390
  16 C :   -0.197339
  17 C :   -0.197286
  18 C :   -0.108525
  19 C :   -0.080385
  20 C :   -0.080377
  21 C :   -0.108524
  22 C :   -0.197392
  23 C :   -0.108512
  24 C :   -0.080386
  25 C :   -0.197324
  26 H :    0.141809
  27 H :    0.141799
  28 H :    0.160278
  29 H :    0.160275
  30 H :    0.141809
  31 H :    0.141798
  32 H :    0.160278
  33 H :    0.141805
  34 H :    0.160275
  35 H :    0.141792
  36 Mg:    0.283978

-------------------------------
LOEWDIN REDUCED ORBITAL CHARGES
-------------------------------
  0 N s       :     2.975768  s :     2.975768
      pz      :     1.190440  p :     3.629158
      px      :     1.329896
      py      :     1.108823
      dz2     :     0.016632  d :     0.199545
      dxz     :     0.012016
      dyz     :     0.043106
      dx2y2   :     0.059946
      dxy     :     0.067844
      f0      :     0.001152  f :     0.018334
      f+1     :     0.000887
      f-1     :     0.001740
      f+2     :     0.000374
      f-2     :     0.003470
      f+3     :     0.004012
      f-3     :     0.006700

  1 H s       :     0.798198  s :     0.798198
      pz      :     0.013486  p :     0.060010
      px      :     0.021795
      py      :     0.024729

  2 C s       :     2.763882  s :     2.763882
      pz      :     0.901147  p :     2.928651
      px      :     0.982307
      py      :     1.045197
      dz2     :     0.027946  d :     0.369407
      dxz     :     0.031030
      dyz     :     0.058801
      dx2y2   :     0.101557
      dxy     :     0.150074
      f0      :     0.002889  f :     0.046582
      f+1     :     0.003797
      f-1     :     0.004044
      f+2     :     0.007237
      f-2     :     0.002453
      f+3     :     0.017810
      f-3     :     0.008353

  3 C s       :     2.763892  s :     2.763892
      pz      :     0.900560  p :     2.928653
      px      :     1.046551
      py      :     0.981542
      dz2     :     0.026672  d :     0.369390
      dxz     :     0.060365
      dyz     :     0.030791
      dx2y2   :     0.101455
      dxy     :     0.150107
      f0      :     0.002954  f :     0.046579
      f+1     :     0.004005
      f-1     :     0.003729
      f+2     :     0.007385
      f-2     :     0.002321
      f+3     :     0.008313
      f-3     :     0.017872

  4 N s       :     2.975711  s :     2.975711
      pz      :     1.192372  p :     3.629133
      px      :     1.108134
      py      :     1.328627
      dz2     :     0.016112  d :     0.199583
      dxz     :     0.043613
      dyz     :     0.011741
      dx2y2   :     0.059978
      dxy     :     0.068139
      f0      :     0.001128  f :     0.018339
      f+1     :     0.001788
      f-1     :     0.000841
      f+2     :     0.000347
      f-2     :     0.003523
      f+3     :     0.006715
      f-3     :     0.003998

  5 C s       :     2.763896  s :     2.763896
      pz      :     0.900673  p :     2.928678
      px      :     1.043628
      py      :     0.984377
      dz2     :     0.027464  d :     0.369367
      dxz     :     0.051617
      dyz     :     0.038660
      dx2y2   :     0.101368
      dxy     :     0.150258
      f0      :     0.002921  f :     0.046575
      f+1     :     0.004005
      f-1     :     0.003792
      f+2     :     0.008859
      f-2     :     0.000812
      f+3     :     0.009997
      f-3     :     0.016189

  6 H s       :     0.798188  s :     0.798188
      pz      :     0.013602  p :     0.060006
      px      :     0.017716
      py      :     0.028689

  7 C s       :     2.697450  s :     2.697450
      pz      :     0.838952  p :     2.783502
      px      :     0.965942
      py      :     0.978608
      dz2     :     0.044372  d :     0.636951
      dxz     :     0.093978
      dyz     :     0.106720
      dx2y2   :     0.199917
      dxy     :     0.191965
      f0      :     0.004870  f :     0.079382
      f+1     :     0.005060
      f-1     :     0.006009
      f+2     :     0.004962
      f-2     :     0.014182
      f+3     :     0.021832
      f-3     :     0.022465

  8 N s       :     2.975708  s :     2.975708
      pz      :     1.192365  p :     3.629131
      px      :     1.108135
      py      :     1.328631
      dz2     :     0.016112  d :     0.199585
      dxz     :     0.043613
      dyz     :     0.011741
      dx2y2   :     0.059979
      dxy     :     0.068140
      f0      :     0.001128  f :     0.018339
      f+1     :     0.001788
      f-1     :     0.000841
      f+2     :     0.000346
      f-2     :     0.003523
      f+3     :     0.006715
      f-3     :     0.003998

  9 C s       :     2.763897  s :     2.763897
      pz      :     0.900670  p :     2.928678
      px      :     1.043626
      py      :     0.984381
      dz2     :     0.027462  d :     0.369367
      dxz     :     0.051615
      dyz     :     0.038660
      dx2y2   :     0.101370
      dxy     :     0.150260
      f0      :     0.002921  f :     0.046575
      f+1     :     0.004005
      f-1     :     0.003792
      f+2     :     0.008859
      f-2     :     0.000812
      f+3     :     0.009997
      f-3     :     0.016189

 10 C s       :     2.750525  s :     2.750525
      pz      :     0.898001  p :     2.922843
      px      :     1.009415
      py      :     1.015427
      dz2     :     0.025635  d :     0.367615
      dxz     :     0.042372
      dyz     :     0.053579
      dx2y2   :     0.095138
      dxy     :     0.150892
      f0      :     0.003017  f :     0.039394
      f+1     :     0.003750
      f-1     :     0.004060
      f+2     :     0.005754
      f-2     :     0.002242
      f+3     :     0.011368
      f-3     :     0.009203

 11 C s       :     2.697462  s :     2.697462
      pz      :     0.838553  p :     2.783477
      px      :     0.979080
      py      :     0.965844
      dz2     :     0.044728  d :     0.637013
      dxz     :     0.088286
      dyz     :     0.112215
      dx2y2   :     0.197869
      dxy     :     0.193915
      f0      :     0.004864  f :     0.079386
      f+1     :     0.004736
      f-1     :     0.006349
      f+2     :     0.007350
      f-2     :     0.011832
      f+3     :     0.014138
      f-3     :     0.030116

 12 N s       :     2.975767  s :     2.975767
      pz      :     1.190440  p :     3.629159
      px      :     1.329896
      py      :     1.108823
      dz2     :     0.016632  d :     0.199545
      dxz     :     0.012016
      dyz     :     0.043106
      dx2y2   :     0.059947
      dxy     :     0.067844
      f0      :     0.001152  f :     0.018334
      f+1     :     0.000887
      f-1     :     0.001740
      f+2     :     0.000374
      f-2     :     0.003470
      f+3     :     0.004012
      f-3     :     0.006700

 13 C s       :     2.763886  s :     2.763886
      pz      :     0.901091  p :     2.928674
      px      :     0.985228
      py      :     1.042355
      dz2     :     0.027162  d :     0.369385
      dxz     :     0.039759
      dyz     :     0.050903
      dx2y2   :     0.101595
      dxy     :     0.149967
      f0      :     0.002923  f :     0.046578
      f+1     :     0.003692
      f-1     :     0.004084
      f+2     :     0.008811
      f-2     :     0.000910
      f+3     :     0.016124
      f-3     :     0.010034

 14 C s       :     2.697436  s :     2.697436
      pz      :     0.838606  p :     2.783517
      px      :     0.980054
      py      :     0.964857
      dz2     :     0.044514  d :     0.636977
      dxz     :     0.108128
      dyz     :     0.092328
      dx2y2   :     0.199923
      dxy     :     0.192084
      f0      :     0.004886  f :     0.079391
      f+1     :     0.006249
      f-1     :     0.004821
      f+2     :     0.005035
      f-2     :     0.014045
      f+3     :     0.022578
      f-3     :     0.021776

 15 C s       :     2.697447  s :     2.697447
      pz      :     0.838933  p :     2.783490
      px      :     0.966935
      py      :     0.977622
      dz2     :     0.044183  d :     0.637058
      dxz     :     0.113895
      dyz     :     0.086759
      dx2y2   :     0.198091
      dxy     :     0.194130
      f0      :     0.004896  f :     0.079396
      f+1     :     0.006408
      f-1     :     0.004646
      f+2     :     0.007029
      f-2     :     0.012019
      f+3     :     0.030270
      f-3     :     0.014128

 16 C s       :     2.697462  s :     2.697462
      pz      :     0.838554  p :     2.783477
      px      :     0.979081
      py      :     0.965842
      dz2     :     0.044727  d :     0.637014
      dxz     :     0.088287
      dyz     :     0.112214
      dx2y2   :     0.197869
      dxy     :     0.193917
      f0      :     0.004864  f :     0.079386
      f+1     :     0.004736
      f-1     :     0.006349
      f+2     :     0.007350
      f-2     :     0.011832
      f+3     :     0.014138
      f-3     :     0.030116

 17 C s       :     2.697450  s :     2.697450
      pz      :     0.838952  p :     2.783503
      px      :     0.965942
      py      :     0.978609
      dz2     :     0.044372  d :     0.636951
      dxz     :     0.093977
      dyz     :     0.106720
      dx2y2   :     0.199917
      dxy     :     0.191965
      f0      :     0.004870  f :     0.079382
      f+1     :     0.005060
      f-1     :     0.006009
      f+2     :     0.004962
      f-2     :     0.014182
      f+3     :     0.021832
      f-3     :     0.022466

 18 C s       :     2.763885  s :     2.763885
      pz      :     0.901093  p :     2.928675
      px      :     0.985228
      py      :     1.042354
      dz2     :     0.027162  d :     0.369387
      dxz     :     0.039760
      dyz     :     0.050903
      dx2y2   :     0.101595
      dxy     :     0.149967
      f0      :     0.002923  f :     0.046578
      f+1     :     0.003692
      f-1     :     0.004084
      f+2     :     0.008811
      f-2     :     0.000910
      f+3     :     0.016124
      f-3     :     0.010034

 19 C s       :     2.750524  s :     2.750524
      pz      :     0.897810  p :     2.922852
      px      :     1.016603
      py      :     1.008439
      dz2     :     0.024812  d :     0.367616
      dxz     :     0.054988
      dyz     :     0.041563
      dx2y2   :     0.095328
      dxy     :     0.150925
      f0      :     0.003054  f :     0.039394
      f+1     :     0.004010
      f-1     :     0.003743
      f+2     :     0.005776
      f-2     :     0.002178
      f+3     :     0.009179
[...]
     Transition      Energy     Energy  Wavelength fosc(P2)      P2        PX        PY        PZ   
                      (eV)      (cm-1)    (nm)                 (au**2)    (au)      (au)      (au)  
----------------------------------------------------------------------------------------------------
  0-1A  ->  1-1A    2.520041   20325.5   492.0   0.002082892   0.00029  -0.01502  -0.00793   0.00099
  0-1A  ->  2-1A    2.520157   20326.4   492.0   0.002106794   0.00029   0.00812  -0.01500   0.00131
  0-1A  ->  3-1A    4.209742   33953.9   294.5   0.013307967   0.00309  -0.05488   0.00875   0.00009
  0-1A  ->  4-1A    4.209803   33954.4   294.5   0.013298632   0.00309  -0.00892  -0.05454   0.00564
  0-1A  ->  5-1A    4.350625   35090.2   285.0   0.000000000   0.00000  -0.00000  -0.00000   0.00000
  0-1A  ->  6-1A    4.424689   35687.5   280.2   0.000000000   0.00000  -0.00000  -0.00000  -0.00001
  0-1A  ->  7-1A    4.486177   36183.5   276.4   0.001784010   0.00044  -0.02089  -0.00210   0.00051
  0-1A  ->  8-1A    4.486977   36189.9   276.3   0.001775820   0.00044   0.00202  -0.02076   0.00202
  0-1A  ->  9-1A    4.682878   37770.0   264.8   0.000000000   0.00000  -0.00000  -0.00000  -0.00001
  0-1A  -> 10-1A    4.889690   39438.0   253.6   0.000000000   0.00000   0.00000  -0.00000  -0.00001
  0-1A  -> 11-1A    4.984731   40204.6   248.7   0.000000000   0.00000   0.00000   0.00000   0.00000
  0-1A  -> 12-1A    5.023610   40518.1   246.8   0.000000000   0.00000  -0.00000   0.00000   0.00001
  0-1A  -> 13-1A    5.074906   40931.9   244.3   0.000000250   0.00000  -0.00008  -0.00002  -0.00025
  0-1A  -> 14-1A    5.098052   41118.6   243.2   0.006276596   0.00176  -0.04130  -0.00749   0.00142
  0-1A  -> 15-1A    5.098440   41121.7   243.2   0.006257206   0.00176   0.00751  -0.04105   0.00410
  0-1A  -> 16-1A    5.140954   41464.6   241.2   0.000000222   0.00000   0.00006   0.00023  -0.00007
  0-1A  -> 17-1A    5.182119   41796.6   239.3   0.000000001   0.00000   0.00002  -0.00000   0.00000
  0-1A  -> 18-1A    5.182404   41798.9   239.2   0.000000001   0.00000   0.00000   0.00002  -0.00000
  0-1A  -> 19-1A    5.310357   42830.9   233.5   0.000000000   0.00000  -0.00000  -0.00000  -0.00000
  0-1A  -> 20-1A    5.508116   44426.0   225.1   0.000000000   0.00000  -0.00000  -0.00000  -0.00000
  0-1A  -> 21-1A    5.624147   45361.8   220.4   0.000000000   0.00000  -0.00000   0.00000   0.00000
  0-1A  -> 22-1A    5.746274   46346.8   215.8   0.000000000   0.00000   0.00000  -0.00000   0.00000
  0-1A  -> 23-1A    5.819703   46939.1   213.0   0.000000004   0.00000  -0.00000  -0.00003  -0.00001
  0-1A  -> 24-1A    5.971109   48160.2   207.6   0.000000001   0.00000  -0.00000  -0.00000  -0.00002
  0-1A  -> 25-1A    5.976474   48203.5   207.5   0.000000180   0.00000   0.00013   0.00017   0.00011
  0-1A  -> 26-1A    6.020560   48559.1   205.9   0.017778020   0.00590   0.00116   0.00736   0.07645
  0-1A  -> 27-1A    6.024376   48589.9   205.8   0.000019233   0.00001   0.00031   0.00028   0.00249
  0-1A  -> 28-1A    6.227601   50229.0   199.1   0.000000000   0.00000   0.00000   0.00000  -0.00000
  0-1A  -> 29-1A    6.655934   53683.7   186.3   0.000000000   0.00000  -0.00000   0.00000   0.00001
  0-1A  -> 30-1A    6.758599   54511.8   183.4   0.059084376   0.02201   0.08206  -0.12312   0.01091

------------------------------------------------------------------------------------------
                     CD SPECTRUM VIA TRANSITION ELECTRIC DIPOLE MOMENTS    
------------------------------------------------------------------------------------------
     Transition      Energy     Energy  Wavelength    R        MX        MY        MZ   
                      (eV)      (cm-1)    (nm)   (1e40*cgs)   (au)      (au)      (au)  
------------------------------------------------------------------------------------------
  0-1A  ->  1-1A    2.520041   20325.5   492.0    0.00033   0.00000  -0.00000  -0.00002
  0-1A  ->  2-1A    2.520157   20326.4   492.0    0.00012  -0.00001  -0.00000  -0.00001
  0-1A  ->  3-1A    4.209742   33953.9   294.5    0.02770   0.00001  -0.00003   0.00001
  0-1A  ->  4-1A    4.209803   33954.4   294.5   -0.02968  -0.00003  -0.00001  -0.00000
  0-1A  ->  5-1A    4.350625   35090.2   285.0   -0.00061   0.01361   0.07792   0.79110
  0-1A  ->  6-1A    4.424689   35687.5   280.2    0.00002  -0.00002  -0.00030   0.00375
  0-1A  ->  7-1A    4.486177   36183.5   276.4   -0.01244  -0.00002   0.00003  -0.00001
  0-1A  ->  8-1A    4.486977   36189.9   276.3    0.00701   0.00001   0.00001   0.00000
  0-1A  ->  9-1A    4.682878   37770.0   264.8   -0.00000  -0.00003  -0.00043  -0.00013
  0-1A  -> 10-1A    4.889690   39438.0   253.6    0.00002   0.00011   0.00029   0.00186
  0-1A  -> 11-1A    4.984731   40204.6   248.7   -0.00000   0.00001   0.00088   0.00000
  0-1A  -> 12-1A    5.023610   40518.1   246.8    0.00000  -0.00049  -0.00008  -0.00007
  0-1A  -> 13-1A    5.074906   40931.9   244.3    0.00018   0.00000   0.00000  -0.00000
  0-1A  -> 14-1A    5.098052   41118.6   243.2   -0.00093  -0.00002   0.00012  -0.00000
  0-1A  -> 15-1A    5.098440   41121.7   243.2   -0.00670   0.00011   0.00001  -0.00000
  0-1A  -> 16-1A    5.140954   41464.6   241.2   -0.00000   0.00000   0.00000   0.00002
  0-1A  -> 17-1A    5.182119   41796.6   239.3    0.02529  -0.14232   0.34412  -0.03216
  0-1A  -> 18-1A    5.182404   41798.9   239.2   -0.02189   0.34587   0.14114  -0.01886
  0-1A  -> 19-1A    5.310357   42830.9   233.5    0.00005  -0.00542  -0.03560  -0.35435
  0-1A  -> 20-1A    5.508116   44426.0   225.1    0.00000   0.00018  -0.00026  -0.00277
  0-1A  -> 21-1A    5.624147   45361.8   220.4    0.00001   0.00017  -0.00008   0.00064
  0-1A  -> 22-1A    5.746274   46346.8   215.8   -0.00031   0.00986   0.06183   0.63144
  0-1A  -> 23-1A    5.819703   46939.1   213.0    0.00000   0.00000   0.00000   0.00002
  0-1A  -> 24-1A    5.971109   48160.2   207.6    0.00000  -0.00002  -0.00085  -0.00003
  0-1A  -> 25-1A    5.976474   48203.5   207.5   -0.00001  -0.00000   0.00002   0.00007
  0-1A  -> 26-1A    6.020560   48559.1   205.9   -0.00026   0.00000   0.00000   0.00000
  0-1A  -> 27-1A    6.024376   48589.9   205.8   -0.00002   0.00000   0.00000   0.00001
  0-1A  -> 28-1A    6.227601   50229.0   199.1   -0.00000  -0.00004   0.00076  -0.00034
  0-1A  -> 29-1A    6.655934   53683.7   186.3    0.00001  -0.00095   0.00048   0.00007
  0-1A  -> 30-1A    6.758599   54511.8   183.4   -0.03529   0.00011   0.00016   0.00001

------------------------------------------------------------------------------------------
                     CD SPECTRUM VIA TRANSITION VELOCITY DIPOLE MOMENTS    
------------------------------------------------------------------------------------------
     Transition      Energy     Energy  Wavelength    R        MX        MY        MZ   
                      (eV)      (cm-1)    (nm)   (1e40*cgs)   (au)      (au)      (au)  
------------------------------------------------------------------------------------------
  0-1A  ->  1-1A    2.520041   20325.5   492.0   -0.00021   0.00000  -0.00000  -0.00002
  0-1A  ->  2-1A    2.520157   20326.4   492.0   -0.00006  -0.00001  -0.00000  -0.00001
  0-1A  ->  3-1A    4.209742   33953.9   294.5   -0.00253   0.00001  -0.00003   0.00001
  0-1A  ->  4-1A    4.209803   33954.4   294.5    0.00272  -0.00003  -0.00001  -0.00000
  0-1A  ->  5-1A    4.350625   35090.2   285.0    0.00273   0.01361   0.07792   0.79110
  0-1A  ->  6-1A    4.424689   35687.5   280.2   -0.00006  -0.00002  -0.00030   0.00375
  0-1A  ->  7-1A    4.486177   36183.5   276.4    0.00074  -0.00002   0.00003  -0.00001
  0-1A  ->  8-1A    4.486977   36189.9   276.3   -0.00044   0.00001   0.00001   0.00000
  0-1A  ->  9-1A    4.682878   37770.0   264.8    0.00000  -0.00003  -0.00043  -0.00013
  0-1A  -> 10-1A    4.889690   39438.0   253.6   -0.00003   0.00011   0.00029   0.00186
  0-1A  -> 11-1A    4.984731   40204.6   248.7    0.00000   0.00001   0.00088   0.00000
  0-1A  -> 12-1A    5.023610   40518.1   246.8   -0.00000  -0.00049  -0.00008  -0.00007
  0-1A  -> 13-1A    5.074906   40931.9   244.3    0.00000   0.00000   0.00000  -0.00000
  0-1A  -> 14-1A    5.098052   41118.6   243.2    0.00006  -0.00002   0.00012  -0.00000
  0-1A  -> 15-1A    5.098440   41121.7   243.2    0.00071   0.00011   0.00001  -0.00000
  0-1A  -> 16-1A    5.140954   41464.6   241.2   -0.00000   0.00000   0.00000   0.00002
  0-1A  -> 17-1A    5.182119   41796.6   239.3   -0.00908  -0.14232   0.34412  -0.03216
  0-1A  -> 18-1A    5.182404   41798.9   239.2    0.00955   0.34587   0.14114  -0.01886
  0-1A  -> 19-1A    5.310357   42830.9   233.5    0.00043  -0.00542  -0.03560  -0.35435
  0-1A  -> 20-1A    5.508116   44426.0   225.1    0.00002   0.00018  -0.00026  -0.00277
  0-1A  -> 21-1A    5.624147   45361.8   220.4    0.00000   0.00017  -0.00008   0.00064
  0-1A  -> 22-1A    5.746274   46346.8   215.8    0.00046   0.00986   0.06183   0.63144
  0-1A  -> 23-1A    5.819703   46939.1   213.0   -0.00000   0.00000   0.00000   0.00002
  0-1A  -> 24-1A    5.971109   48160.2   207.6    0.00000  -0.00002  -0.00085  -0.00003
  0-1A  -> 25-1A    5.976474   48203.5   207.5    0.00002  -0.00000   0.00002   0.00007
  0-1A  -> 26-1A    6.020560   48559.1   205.9    0.00070   0.00000   0.00000   0.00000
  0-1A  -> 27-1A    6.024376   48589.9   205.8    0.00005   0.00000   0.00000   0.00001
  0-1A  -> 28-1A    6.227601   50229.0   199.1    0.00000  -0.00004   0.00076  -0.00034
  0-1A  -> 29-1A    6.655934   53683.7   186.3    0.00001  -0.00095   0.00048   0.00007
  0-1A  -> 30-1A    6.758599   54511.8   183.4   -0.01848   0.00011   0.00016   0.00001

Total run time:     6244.654 sec

           *** ORCA-CIS/TD-DFT FINISHED WITHOUT ERROR ***
-----------------------
CIS/TD-DFT TOTAL ENERGY
-----------------------

    E(SCF)  =  -1188.537413281 Eh
    DE(CIS) =      0.092609790 Eh (Root  1)
    ----------------------------- ---------
    E(tot)  =  -1188.444803491 Eh


Maximum memory used throughout the entire CIS-calculation: 2678.6 MB
=> NOW LEAVING ORCA_CIS

-------------------------   --------------------
FINAL SINGLE POINT ENERGY     -1188.444803491125
-------------------------   --------------------



           ************************************************************
           *        Program running with 4 parallel MPI-processes     *
           *              working on a common directory               *
           ************************************************************

------------------------------------------------------------------------------
                              ORCA PROPERTY CALCULATIONS
------------------------------------------------------------------------------

GBWName                                 ... tddft.gbw
Number of atoms                         ...     37
Number of basis functions               ...    848
Max core memory                         ...   3000 MB

Electric properties:
Dipole moment                           ... YES
Quadrupole moment                       ...  NO
Static polarizability (Dipole/Dipole)   ...  NO
Static polarizability (Dipole/Quad.)    ...  NO
Static polarizability (Quad./Quad.)     ...  NO
Static polarizability (Velocity)        ...  NO
Static hyperpolarizability              ...  NO

Atomic electric properties:
Dipole moment                           ...  NO
Quadrupole moment                       ...  NO
Static polarizability                   ...  NO

Choice of electric origin               ... Center of mass
Position of electric origin             ...    -0.158818     5.090151     6.572142

General magnetic properties:
Magnetizability                         ...  NO

EPR properties:
g-Tensor (aka g-matrix)                 ...  NO
Zero-Field splitting spin-orbit         ...  NO
Zero-field splitting spin-spin          ...  NO
Hyperfine couplings                     ...  NO (   0 nuclei)
Quadrupole couplings                    ...  NO (   0 nuclei)
Contact density                         ...  NO (   0 nuclei)

NMR properties:
Chemical shifts                         ...  NO (   0 nuclei)
Spin-rotation constants                 ...  NO (   0 nuclei)
Spin-spin couplings                     ...  NO (   0 nuclei,    0 pairs)

Choice of magnetic origin               ... GIAO
Position of magnetic origin             ...     0.000000     0.000000     0.000000

Properties with geometric perturbations:
SCF Hessian                             ...  NO
IR spectrum                             ...  NO
VCD spectrum                            ...  NO
X-ray spectroscopy properties:
SCF XES/XAS/RIXS spectra                ...  NO

SCF SOC stabilization energy            ...  NO
Diagonal Born-Oppenheimer correction    ...  NO

-------------
DIPOLE MOMENT
-------------

Method             : SCF
Type of density    : Electron Density
Multiplicity       :   1
Irrep              :   0
Energy             : -1188.5374132814429231 Eh
Basis              : AO
                                X                 Y                 Z
Electronic contribution:      0.000008603      -0.000038025      -0.000455664
Nuclear contribution   :     -0.000008108       0.000042856       0.000532868
                        -----------------------------------------
Total Dipole Moment    :      0.000000494       0.000004830       0.000077205
                        -----------------------------------------
Magnitude (a.u.)       :      0.000077357
Magnitude (Debye)      :      0.000196627



--------------------
Rotational spectrum 
--------------------
 
Rotational constants in cm-1:             0.008916             0.008916             0.004458 
Rotational constants in MHz :           267.307767           267.296540           133.651083 

Dipole components along the rotational axes: 
x,y,z [a.u.] :    -0.000003    -0.000001     0.000077 
x,y,z [Debye]:    -0.000006    -0.000003     0.000196 

 

Dipole moment calculation done in   0.0 sec 

Maximum memory used throughout the entire PROP-calculation: 86.1 MB

--------------------------------
SUGGESTED CITATIONS FOR THIS RUN
--------------------------------

Below you find a list of papers that are relevant to this ORCA run
We neither can nor want to force you to cite these papers, but we appreciate if you do
You receive ORCA, which is the product of decades of hard work by many enthusiastic individuals, for free
The only thing we kindly ask in return is that you cite our papers,
We deeply appreciate it, if you show your appreciation for ORCA by not just citing the generic ORCA reference.

Please note that relegating all ORCA citations to the supporting information does *not* help us.
SI sections are not indexed - citations you put there will not count into any citation statistics
But we need these citations in order to attract the funding resources that allow us to do what we are doing

Therefore, if you are a happy ORCA user, please consider citing a few of the papers listed below in the main body of your paper

In addition to the list printed below, the program has created the file tddft.bibtex that contains the list in bibtex format
You can import this file easily into all common literature databanks and citation aid programs

It goes without saying that in many instances, there are alternative algorithms to achieve similar
results as the ones you have gotten from ORCA. It is, of course, also the case that in some instances
ORCA just re-implements algorithms worked out by others. We are fully aware of that and we are also
fully appreciative of our colleagues work. Hence this citation list should not be read as indicating
that the listed papers, which are focused on our own work, are the only ones worth citing. It simply
meant to make it easier for users to cite ORCA specific papers. It is not a substitute for doing your
own literature research and citing the relevant literature in a scientifically appropriate manner.

List of essential papers. We consider these as the minimum necessary citations

  1. Neese, F.
     Software update: the ORCA program system, version 6.0
     WIRES Comput. Molec. Sci. 2025 15(1), e70019
     doi.org/10.1002/wcms.70019

List of papers to cite with high priority. The work reported in these papers was absolutely
necessary for this run to complete.
Our perspective: the developers of density functionals and basis sets usually get cited in chemistry papers
Good! But without the algorithms to do something with them, the functionals or basis sets would not do anything.
Hence, in our opinion, the algorithm design and method developments papers are equally worthy of getting cited

  1. Neese, F.; Olbrich, G.
     Efficient use of the resolution of the identity approximation in time-dependent density functional calculations with hybrid density functionals
     Chem. Phys. Lett. 2002 362 , 170-178
     doi.org/10.1016/s0009-2614(02)01053-9
  2. Neese, F.
     An improvement of the resolution of the identity approximation for the formation of the Coulomb matrix
     J. Comp. Chem. 2003 24(14), 1740-1747
     doi.org/10.1002/jcc.10318
  3. Neese, F.; Wennmohs, F.; Hansen, A.; Becker, U.
     Efficient, approximate and parallel Hartree-Fock and hybrid DFT calculations. A 'chain-of-spheres' algorithm for the Hartree-Fock exchange
     Chem. Phys. 2009 356(1-3), 98-109
     doi.org/10.1016/j.chemphys.2008.10.036
  4. Helmich-Paris, B.; de Souza, B.; Neese, F.; Izsák, R.
     An improved chain of spheres for exchange algorithm
     J. Chem. Phys. 2021 155(10), 104109
     doi.org/10.1063/5.0058766
  5. Neese, F.
     The SHARK Integral Generation and Digestion System
     J. Comp. Chem. 2022 44(3), 381
     doi.org/10.1002/jcc.26942

List of suggested additional citations. These are papers that are important in the 'surrounding' of 
of this run, or papers that preceded the highly important papers. If you like your results we are grateful for a citation.

  1. Izsak, R.; Neese, F.
     An overlap fitted chain of spheres exchange method
     J. Chem. Phys. 2011 135 , 144105
     doi.org/10.1063/1.3646921
  2. Izsak, R.; Hansen, A.; Neese, F.
     The resolution of identity and chain of spheres approximations for the LPNO-CCSD singles Fock term
     Molec. Phys. 2012 110 , 2413-2417
     doi.org/10.1080/00268976.2012.687466
  3. Neese, F.
     The ORCA program system
     WIRES Comput. Molec. Sci. 2012 2(1), 73-78
     doi.org/10.1002/wcms.81
  4. Izsak, R.; Neese, F.; Klopper, W.
     Robust fitting techniques in the chain of spheres approximation to the Fock exchange: The role of the complementary space
     J. Chem. Phys. 2013 139 , 
     doi.org/10.1063/1.4819264
  5. Neese, F.
     Software update: the ORCA program system, version 4.0
     WIRES Comput. Molec. Sci. 2018 8(1), 1-6
     doi.org/10.1002/wcms.1327
  6. Neese, F.; Wennmohs, F.; Becker, U.; Riplinger, C.
     The ORCA quantum chemistry program package
     J. Chem. Phys. 2020 152(22), 224108
     doi.org/10.1063/5.0004608
  7. Neese, F.
     Software update: The ORCA program system—Version 5.0
     WIRES Comput. Molec. Sci. 2022 12(1), e1606
     doi.org/10.1002/wcms.1606

List of optional additional citations

  1. Neese, F.
     Approximate second-order SCF convergence for spin unrestricted wavefunctions
     Chem. Phys. Lett. 2000 325(1-3), 93-98
     doi.org/10.1016/s0009-2614(00)00662-x

Timings for individual modules:

Sum of individual times          ...     7316.647 sec (= 121.944 min)
Startup calculation              ...       15.887 sec (=   0.265 min)   0.2 %
SCF iterations                   ...     1053.774 sec (=  17.563 min)  14.4 %
Property integrals               ...        0.948 sec (=   0.016 min)   0.0 %
Property calculations            ...        0.625 sec (=   0.010 min)   0.0 %
CIS module                       ...     6245.413 sec (= 104.090 min)  85.4 %
                             ****ORCA TERMINATED NORMALLY****
TOTAL RUN TIME: 0 days 2 hours 1 minutes 57 seconds 29 msec
