
                                 *****************
                                 * O   R   C   A *
                                 *****************

                                            #,                                       
                                            ###                                      
                                            ####                                     
                                            #####                                    
                                            ######                                   
                                           ########,                                 
                                     ,,################,,,,,                         
                               ,,#################################,,                 
                          ,,##########################################,,             
                       ,#########################################, ''#####,          
                    ,#############################################,,   '####,        
                  ,##################################################,,,,####,       
                ,###########''''           ''''###############################       
              ,#####''   ,,,,##########,,,,          '''####'''          '####       
            ,##' ,,,,###########################,,,                        '##       
           ' ,,###''''                  '''############,,,                           
         ,,##''                                '''############,,,,        ,,,,,,###''
      ,#''                                            '''#######################'''  
     '                                                          ''''####''''         
             ,#######,   #######,   ,#######,      ##                                
            ,#'     '#,  ##    ##  ,#'     '#,    #''#        ,####,    ,#,          
            ##       ##  ##   ,#'  ##            #'  '#       #'       ,# #          
            ##       ##  #######   ##           ,######,      #####,      #          
            '#,     ,#'  ##    ##  '#,     ,#' ,#      #,     #,   #      #          
             '#######'   ##     ##  '#######'  #'      '#     '####' #    #          



                #########################################################
                #                        -***-                          #
                #          Department of theory and spectroscopy        #
                #                                                       #
                #                      Frank Neese                      #
                #                                                       #
                #     Directorship, Architecture, Infrastructure        #
                #                    SHARK, DRIVERS                     #
                #        Core code/Algorithms in most modules           #
                #                                                       #
                #        Max Planck Institute fuer Kohlenforschung      #
                #                Kaiser Wilhelm Platz 1                 #
                #                 D-45470 Muelheim/Ruhr                 #
                #                      Germany                          #
                #                                                       #
                #                  All rights reserved                  #
                #                        -***-                          #
                #########################################################


                         Program Version 6.1.1  -  RELEASE   -
                                (GIT: $487d211c$)
                          ($2025-11-21 10:33:24 +0100$)


 With contributions from (in alphabetic order):
[Max-Planck-Institut fuer Kohlenforschung]                               
  Daniel Aravena         : Magnetic Suceptibility                        
  Michael Atanasov       : Ab Initio Ligand Field Theory (pilot matlab implementation)
  Alexander A. Auer      : GIAO ZORA, VPT2 properties, NMR spectrum      
  Ute Becker             : All parallelization in ORCA, NUMFREQ, NUMCALC 
  Giovanni Bistoni       : ED, misc. LED, open-shell LED, HFLD           
  Dmytro Bykov           : pre 5.0 version of the SCF Hessian            
  Marcos Casanova-Páez   : Triplet and SCS-CIS(D). UHF-(DLPNO)-IP/EA/STEOM-CCSD. UHF-CVS-IP/STEOM-CCSD   
  Vijay G. Chilkuri      : MRCI spin determinant printing, contributions to CSF-ICE 
  Pauline Colinet        : FMM embedding                                 
  Dipayan Datta          : RHF DLPNO-CCSD density                        
  Achintya Kumar Dutta   : EOM-CC, STEOM-CC                              
  Nicolas Foglia         : Exact transition moments, OPA infrastructure, MCD improvements    
  Dmitry Ganyushin       : Spin-Orbit,Spin-Spin,Magnetic field MRCI      
  Miquel Garcia-Rates    : C-PCM and meta-GGA Hessian, CCSD/C-PCM, Gaussian charge scheme 
  Tiago L. C. Gouveia    : GS-ROHF, GS-ROCIS                             
  Yang Guo               : DLPNO-NEVPT2, F12-NEVPT2, CIM, IAO-localization        
  Andreas Hansen         : Spin unrestricted coupled pair/coupled cluster methods 
  Ingolf Harden          : AUTO-CI MPn and infrastructure                
  Benjamin Helmich-Paris : MC-RPA, TRAH-(SCF,CASSCF), AVAS, COSX integrals, SCF dyn. polar., MC-PDFT, srDFT 
  Lee Huntington         : MR-EOM, pCC                                   
  Robert Izsak           : Overlap fitted RIJCOSX, COSX-SCS-MP3, EOM     
  Riya Kayal             : Wick's Theorem for AUTO-CI, AUTO-CI UHF-CCSDT 
  Emily Kempfer          : AUTO-CI RHF CISDT and CCSDT, approximate NEVPT4
  Christian Kollmar      : KDIIS, OOCD, Brueckner-CCSD(T), CCSD density, CASPT2, CASPT2-K, improved NEVPT2 
  Axel Koslowski         : Symmetry handling                             
  Simone Kossmann        : meta-GGA functionals, TD-DFT gradient, OOMP2, (MP2 Hessian; deprecated post 5.0) 
  Lucas Lang             : DCDCAS, Hyperfine gauge corrections, ICE-SOC+SSC
  Marvin Lechner         : AUTO-CI (C++ implementation), FIC-MRCC        
  Spencer Leger          : CASSCF response                               
  Dagmar Lenk            : GEPOL surface, SMD, ORCA-2-JSON               
  Dimitrios Liakos       : Extrapolation schemes; Compound Job, Property file
  Dimitrios Manganas     : Further ROCIS development; embedding schemes. LFT, Crystal Embedding 
  Dimitrios Pantazis     : SARC Basis sets                               
  Anastasios Papadopoulos: AUTO-CI, single reference methods and gradients 
  Taras Petrenko         : pre 6.0 DFT Hessian and TD-DFT gradient,  ECA, NRVS 
  Petra Pikulova         : Analytic Raman intensities                    
  Peter Pinski           : DLPNO-MP2, DLPNO-MP2 Gradient                 
  Shashank Vittal Rao    : ES-AILFT, MagRelax                            
  Christoph Reimann      : Effective Core Potentials                     
  Marius Retegan         : Local ZFS, SOC                                
  Christoph Riplinger    : Optimizer, TS searches, QM/MM, DLPNO-CCSD(T), (RO)-DLPNO pert. Triples 
  Michael Roemelt        : Original ROCIS implementation, recursive CI coupling coefficients
  Masaaki Saitow         : Open-shell DLPNO-CCSD energy and density      
  Barbara Sandhoefer     : DKH picture change effects                    
  Yorick L. A. Schmerwitz: GMF and freeze-and-release deltaSCF, NEB S-IDPP initial path                    
  Kantharuban Sivalingam : CASSCF convergence/infrastructure, NEVPT2, NEVPT3, NEVPT4(SD), FIC-MRCI and CEPA variants
  Bernardo de Souza      : ESD, SOC TD-DFT                               
  Georgi L. Stoychev     : AutoAux, RI-MP2 NMR, DLPNO-MP2 response, X2C  
  Van Anh Tran           : RI-MP2 g-tensors                              
  Willem Van den Heuvel  : Paramagnetic NMR                              
  Zikuan Wang            : NOTCH, Electric field optimization            
  Frank Wennmohs         : Technical directorship and infrastructure     
  Hang Xu                : AUTO-CI-Response properties                   
                                                                         
[FACCTs GmbH]                                                            
  Markus Bursch, Nicolas Foglia, Miquel Garcia-Rates, Ingolf Harden, Hagen Neugebauer, Anastasios Papadopoulos, 
  Christoph Riplinger, Bernardo de Souza, Georgi L. Stoychev                                                    
                                                                 
  APM, various basis sets, CI-OPT, improved COSX, DLPNO-Multilevel,           
  DOCKER, DRACO, updates on ESD, Fragmentator, GOAT, IRC, LR-CPCM, L-BFGS, MBIS, meta-GGA TD-DFT gradient, ML-optimized integration grids, 
  MM, NACMEs, nearIR, NEB, NEB-TS, NL-DFT gradient (VV10), 2- and 3-layer-ONIOM, interface openCOSMO-RS, QMMM,   
  Crystal-QMMM, RESP, rigid body optimization, SF, symmetry and pop. for TD-DFT, various functionals, SOLVATOR                                   
                                                                         
[Other institutions]                                                     
  V. Asgeirsson          : NEB                                           
  Christoph Bannwarth    : sTDA-DFT, sTD-DFT, PBEh-3c, B97-3c, D3        
  Giovanni Bistoni       : ETS/NOCV, ADLD/ADEX, COVALED                  
  Martin Brehm           : Molecular dynamics                            
  Ronald Cardenas        : ETS/NOCV                                      
  Martina Colucci        : COVALED                                       
  Sebastian Ehlert       : rSCAN, r2SCAN, r2SCAN-3c, D4, dhf basis sets  
  Marvin Friede          : D4 for Fr, Ra, Ac-Lr                          
  Lars Goerigk           : TD-DFT with DH, B97 family of functionals     
  Stefan Grimme          : VdW corrections, initial TS optimization, DFT functionals, gCP, sTDA/sTD-DF 
  Waldemar Hujo          : DFT-NL                                        
  H. Jonsson             : NEB                                           
  Holger Kruse           : gCP                                           
  Marcel Mueller         : wB97X-3c, vDZP basis set                      
  Hagen Neugebauer       : wr2SCAN, Native XTB                           
  Gianluca Regni         : ADLD/ADEX                                     
  Tobias Risthaus        : pre 6.0 range-separated hybrid DFT and stability analysis
  Lukas Wittmann         : regularized MP2, r2SCAN double-hybrids, wr2SCAN        
                                                                         
We gratefully acknowledge several colleagues who have allowed us to      
interface, adapt or use parts of their codes:                            
  Ed Valeev, F. Pavosevic, A. Kumar             : LibInt (2-el integral package), F12 methods 
  Garnet Chan, S. Sharma, J. Yang, R. Olivares  : DMRG                   
  Ulf Ekstrom                                   : XCFun DFT Library      
  Mihaly Kallay                                 : mrcc  (arbitrary order and MRCC methods)
  Frank Weinhold                                : gennbo (NPA and NBO analysis)           
  Simon Mueller                                 : openCOSMO-RS                            
  Christopher J. Cramer and Donald G. Truhlar   : smd solvation model                     
  S Lehtola, MJT Oliveira, MAL Marques          : LibXC Library                           
  Liviu Ungur et al                             : ANISO software                          


 Your calculation uses the libint2 library for the computation of 2-el integrals
 For citations please refer to: http://libint.valeyev.net

 Your ORCA version has been built with support for libXC version: 7.0.0
 For citations please refer to: https://libxc.gitlab.io

 This ORCA versions uses:
   CBLAS   interface :  Fast vector & matrix operations
   LAPACKE interface :  Fast linear algebra routines
   SCALAPACK package :  Parallel linear algebra routines
   Shared memory     :  Shared parallel matrices
   BLAS/LAPACK       :  OpenBLAS 0.3.29  USE64BITINT DYNAMIC_ARCH NO_AFFINITY Haswell SINGLE_THREADED
        Core in use  :  Haswell
   Copyright (c) 2011-2014, The OpenBLAS Project


  ***********************************
  * Starting time: Fri Jul 10 22:58:04 2026
  * Host name:     steezy
  * Process ID:    2076245
  * Working dir.:  /home/jannes/chlorophyll-ladder/009-mgchlorin-axial-ligation/mgchlorin_imidazole/03_tddft_ch2cl2/wb97xd
  ***********************************

NOTE: MaxCore=3000 MB was set to SCF,MP2,MDCI,CIPSI,MRCI,RASCI and CIS
      => If you want to overwrite this, your respective input block should be placed after the MaxCore statement


***************************************
The coordinates will be read from file: /home/jannes/chlorophyll-ladder/009-mgchlorin-axial-ligation/mgchlorin_imidazole/01_opt/mgchlorin_imidazole_opt_b3lypd4_tzvp.xyz
***************************************


Your calculation utilizes the atom-pairwise dispersion correction
with the zero-damping scheme (D30)


XCFun DFT library Copyright 2009-2010 Ulf Ekstrom and contributors.
See http://admol.org/xcfun for more information.
This is free software; see the source code for copying conditions.
There is ABSOLUTELY NO WARRANTY; not even for MERCHANTABILITY or FITNESS FOR A PARTICULAR PURPOSE.
For details see the documentation.
Scientific users of this library should cite U. Ekstrom, L. Visscher, R. Bast, A. J. Thorvaldsen and K. Ruud;
J.Chem.Theor.Comp. 2010, DOI: 10.1021/ct100117s
XCFun Version 0.99 

================================================================================

----- Orbital basis set information -----
Your calculation utilizes the basis: def2-TZVP
   F. Weigend and R. Ahlrichs, Phys. Chem. Chem. Phys. 7, 3297 (2005).

----- AuxJ basis set information -----
Your calculation utilizes the auxiliary basis: def2/J
   H-Rn: F. Weigend, Phys. Chem. Chem. Phys. 8, 1057 (2006).
   Fr-Lr: K. Eichkorn, F. Weigend, O. Treutler, R. Ahlrichs; Theor. Chem. Acc. 97, 119 (1997).

================================================================================
                                        WARNINGS
                       Please study these warnings very carefully!
================================================================================


WARNING: CIS/ROCIS methods need fully converged wavefunctions
  ===> : Setting SCFConvForced true
         You can overwrite this default with %scf ConvForced false 


================================================================================
                                       INPUT FILE
================================================================================
NAME = tddft.inp
|  1> %pal nprocs 4 end
|  2> %maxcore 3000
|  3> ! wB97X-D3 def2-TZVP def2/J RIJCOSX DefGrid3 TightSCF CPCM(CH2Cl2)
|  4> %tddft
|  5>   nroots 30
|  6>   tda false
|  7>   triplets false
|  8> end
|  9> * xyzfile 0 1 /home/jannes/chlorophyll-ladder/009-mgchlorin-axial-ligation/mgchlorin_imidazole/01_opt/mgchlorin_imidazole_opt_b3lypd4_tzvp.xyz
| 10> 
| 11>                          ****END OF INPUT****
================================================================================

                       ****************************
                       * Single Point Calculation *
                       ****************************

---------------------------------
CARTESIAN COORDINATES (ANGSTROEM)
---------------------------------
  N      1.686977    1.314594   -0.070141
  N     -1.244066    1.614892    0.010363
  N      1.296068   -1.605044   -0.041730
  N     -1.595971   -1.274834   -0.003516
  C      2.970609    3.301555   -0.232211
  C      3.922431    2.104910   -0.102015
  C      1.597742    2.664663   -0.109541
  C      2.979759    0.914541   -0.093658
  C      0.434405    3.400412   -0.067464
  C      3.423560   -0.389267   -0.088962
  C     -0.889070    2.920137   -0.019573
  C      2.647232   -1.563978   -0.082176
  C     -2.620848    1.565510    0.027377
  C      0.926464   -2.931741   -0.066724
  C     -2.069437    3.748719   -0.008343
  C      3.177401   -2.905444   -0.124641
  C     -3.141080    2.907354    0.021299
  C      2.110072   -3.750696   -0.115251
  C     -3.378288    0.405243    0.033372
  C     -0.376898   -3.398678   -0.057022
  C     -2.911256   -0.915786    0.006138
  C     -1.553694   -2.636326   -0.036770
  C     -3.735300   -2.091666   -0.021863
  C     -2.889482   -3.163600   -0.049382
  H      3.066735    3.799064   -1.200440
  H      3.128997    4.062511    0.533242
  H      4.496140    2.134826    0.827766
  H      4.642784    2.039364   -0.918402
  H      0.544588    4.477580   -0.101599
  H      4.497149   -0.531874   -0.111807
  H     -2.073111    4.827608   -0.035091
  H      4.225360   -3.159508   -0.167527
  H     -4.188580    3.167597    0.023519
  H      2.117427   -4.829413   -0.148927
  H     -4.454237    0.532723    0.041623
  H     -0.502711   -4.474509   -0.080584
  H     -4.814489   -2.097809   -0.027947
  H     -3.147034   -4.211120   -0.081508
  Mg     0.030982    0.001266    0.263024
  N      0.086343    0.074074    2.409607
  C     -0.591908    0.918226    3.154555
  N     -0.375326    0.667276    4.465350
  C      0.491190   -0.400629    4.556276
  C      0.766939   -0.755449    3.268883
  H     -1.233194    1.701213    2.785884
  H      0.818760   -0.797491    5.500144
  H      1.398114   -1.545010    2.899381
  H     -0.782140    1.170094    5.235166

----------------------------
CARTESIAN COORDINATES (A.U.)
----------------------------
  NO LB      ZA    FRAG     MASS         X           Y           Z
   0 N     7.0000    0    14.007    3.187925    2.484222   -0.132548
   1 N     7.0000    0    14.007   -2.350945    3.051704    0.019584
   2 N     7.0000    0    14.007    2.449213   -3.033094   -0.078857
   3 N     7.0000    0    14.007   -3.015948   -2.409087   -0.006645
   4 C     6.0000    0    12.011    5.613637    6.239035   -0.438816
   5 C     6.0000    0    12.011    7.412321    3.977704   -0.192780
   6 C     6.0000    0    12.011    3.019295    5.035483   -0.207002
   7 C     6.0000    0    12.011    5.630929    1.728231   -0.176987
   8 C     6.0000    0    12.011    0.820907    6.425848   -0.127488
   9 C     6.0000    0    12.011    6.469590   -0.735609   -0.168113
  10 C     6.0000    0    12.011   -1.680100    5.518259   -0.036987
  11 C     6.0000    0    12.011    5.002544   -2.955489   -0.155291
  12 C     6.0000    0    12.011   -4.952684    2.958385    0.051734
  13 C     6.0000    0    12.011    1.750763   -5.540187   -0.126089
  14 C     6.0000    0    12.011   -3.910669    7.084053   -0.015767
  15 C     6.0000    0    12.011    6.004418   -5.490494   -0.235538
  16 C     6.0000    0    12.011   -5.935782    5.494104    0.040249
  17 C     6.0000    0    12.011    3.987459   -7.087787   -0.217793
  18 C     6.0000    0    12.011   -6.384039    0.765799    0.063063
  19 C     6.0000    0    12.011   -0.712233   -6.422570   -0.107755
  20 C     6.0000    0    12.011   -5.501477   -1.730584    0.011599
  21 C     6.0000    0    12.011   -2.936056   -4.981934   -0.069486
  22 C     6.0000    0    12.011   -7.058695   -3.952677   -0.041315
  23 C     6.0000    0    12.011   -5.460329   -5.978338   -0.093318
  24 H     1.0000    0     1.008    5.795289    7.179191   -2.268502
  25 H     1.0000    0     1.008    5.912948    7.677034    1.007682
  26 H     1.0000    0     1.008    8.496473    4.034237    1.564250
  27 H     1.0000    0     1.008    8.773590    3.853840   -1.735529
  28 H     1.0000    0     1.008    1.029122    8.461399   -0.191994
  29 H     1.0000    0     1.008    8.498380   -1.005095   -0.211285
  30 H     1.0000    0     1.008   -3.917613    9.122856   -0.066312
  31 H     1.0000    0     1.008    7.984774   -5.970606   -0.316580
  32 H     1.0000    0     1.008   -7.915269    5.985892    0.044444
  33 H     1.0000    0     1.008    4.001357   -9.126268   -0.281431
  34 H     1.0000    0     1.008   -8.417288    1.006701    0.078656
  35 H     1.0000    0     1.008   -0.949986   -8.455596   -0.152281
  36 H     1.0000    0     1.008   -9.098067   -3.964284   -0.052812
  37 H     1.0000    0     1.008   -5.947032   -7.957863   -0.154028
  38 Mg   12.0000    0    24.305    0.058547    0.002392    0.497043
  39 N     7.0000    0    14.007    0.163166    0.139979    4.553497
  40 C     6.0000    0    12.011   -1.118545    1.735195    5.961246
  41 N     7.0000    0    14.007   -0.709264    1.260969    8.438289
  42 C     6.0000    0    12.011    0.928215   -0.757080    8.610113
  43 C     6.0000    0    12.011    1.449305   -1.427593    6.177293
  44 H     1.0000    0     1.008   -2.330398    3.214827    5.264558
  45 H     1.0000    0     1.008    1.547233   -1.507039   10.393766
  46 H     1.0000    0     1.008    2.642052   -2.919646    5.479036
  47 H     1.0000    0     1.008   -1.478030    2.211158    9.893029

--------------------------------
INTERNAL COORDINATES (ANGSTROEM)
--------------------------------
 N      0   0   0     0.000000000000     0.00000000     0.00000000
 N      1   0   0     2.947486350172     0.00000000     0.00000000
 N      1   2   0     2.945828126371    88.20947573     0.00000000
 N      3   1   2     2.911079671341    91.11929974     0.80715272
 C      1   2   3     2.371073823090   117.05466142   176.90212528
 C      5   1   2     1.534560609903    71.12653572   176.43333539
 C      1   2   3     1.353588294752    80.42259655   178.54766819
 C      1   2   3     1.353470340789   168.64364198   357.76596920
 C      7   1   2     1.377116749417   125.99258173     1.50888961
 C      8   1   7     1.377278543597   125.98196374   181.20281987
 C      2   1   3     1.352990322192    80.60546467   180.52233867
 C      3   1   2     1.352393820728    80.62107172   179.90284917
 C      2   1   3     1.377771680673   172.05125211   353.39051782
 C      3   1   2     1.377445050622   171.90094100    12.88565013
 C     11   2   1     1.442199392872   109.83646179   179.55494343
 C     12   3   1     1.443057439826   109.85925776   181.45151808
 C     15  11   2     1.362788822813   106.80176759   359.65838229
 C     16  12   3     1.361517385722   106.79204084     0.29156805
 C     13   2  11     1.385630030716   125.19159905   178.69666656
 C     14   3  12     1.384512915517   125.26106051   180.89130603
 C      4   3   1     1.363446139236   171.23871913     1.67942532
 C      4   3   1     1.362553852118    81.69232101   178.15836169
 C     21   4  22     1.436150364206   109.74083976     0.00000000
 C     23  21   4     1.365726298515   106.71891006   359.96199257
 H      5   1   2     1.092804505014   119.32013955   281.69849699
 H      5   1   2     1.090899211643   127.96557171    71.25187495
 H      6   5   1     1.092944859141   112.11195893   244.98233562
 H      6   5   1     1.090730038156   113.14102048   123.91365165
 H      9   7   1     1.083325722172   116.38172549   179.54988406
 H     10   8   1     1.083260292684   116.35322274   179.92679746
 H     15  11   2     1.079226072128   125.23565366   180.54529963
 H     16  12   3     1.079169192758   125.22500344   179.61585041
 H     17  15  11     1.079345565166   127.90436383   180.91093752
 H     18  16  12     1.079267751577   127.94770026   179.30461915
 H     19  13   2     1.083506306146   116.38115741   180.32684545
 H     20  14   3     1.083418999991   116.36337595   179.96740579
 H     23  21   4     1.079223838068   125.34778292   180.43565273
 H     24  23  21     1.079195358710   127.92598576   180.44323431
 Mg     3   1   2     2.067256417027    46.56842154   349.30073568
 N     39   3   1     2.148530675946    99.08201017   263.50222852
 C     40  39   3     1.314369549312   125.08046622   181.84455130
 N     41  40  39     1.352060218300   110.34113851   177.63312489
 C     42  41  40     1.378238138060   107.96786427   359.94580940
 C     43  42  41     1.363566932247   105.45482476     0.03663726
 H     41  40  39     1.077141930779   125.45699601   357.72628083
 H     43  42  41     1.075029386219   122.38035120   180.17627298
 H     44  43  42     1.076252281312   129.31909261   180.29177562
 H     42  41  40     1.005454808586   125.77750555   180.32691267

---------------------------
INTERNAL COORDINATES (A.U.)
---------------------------
 N      0   0   0     0.000000000000     0.00000000     0.00000000
 N      1   0   0     5.569941985296     0.00000000     0.00000000
 N      1   2   0     5.566808396444    88.20947573     0.00000000
 N      3   1   2     5.501143332861    91.11929974     0.80715272
 C      1   2   3     4.480680168949   117.05466142   176.90212528
 C      5   1   2     2.899899288620    71.12653572   176.43333539
 C      1   2   3     2.557911175162    80.42259655   178.54766819
 C      1   2   3     2.557688274476   168.64364198   357.76596920
 C      7   1   2     2.602373510833   125.99258173     1.50888961
 C      8   1   7     2.602679257524   125.98196374   181.20281987
 C      2   1   3     2.556781170788    80.60546467   180.52233867
 C      3   1   2     2.555653946383    80.62107172   179.90284917
 C      2   1   3     2.603611151544   172.05125211   353.39051782
 C      3   1   2     2.602993910201   171.90094100    12.88565013
 C     11   2   1     2.725361883035   109.83646179   179.55494343
 C     12   3   1     2.726983356789   109.85925776   181.45151808
 C     15  11   2     2.575297653485   106.80176759   359.65838229
 C     16  12   3     2.572894985586   106.79204084     0.29156805
 C     13   2  11     2.618461280991   125.19159905   178.69666656
 C     14   3  12     2.616350239204   125.26106051   180.89130603
 C      4   3   1     2.576539801508   171.23871913     1.67942532
 C      4   3   1     2.574853623222    81.69232101   178.15836169
 C     21   4  22     2.713930875481   109.74083976     0.00000000
 C     23  21   4     2.580848678087   106.71891006   359.96199257
 H      5   1   2     2.065101232393   119.32013955   281.69849699
 H      5   1   2     2.061500749715   127.96557171    71.25187495
 H      6   5   1     2.065366463254   112.11195893   244.98233562
 H      6   5   1     2.061181058156   113.14102048   123.91365165
 H      9   7   1     2.047188928737   116.38172549   179.54988406
 H     10   8   1     2.047065284924   116.35322274   179.92679746
 H     15  11   2     2.039441712909   125.23565366   180.54529963
 H     16  12   3     2.039334226478   125.22500344   179.61585041
 H     17  15  11     2.039667522027   127.90436383   180.91093752
 H     18  16  12     2.039520475653   127.94770026   179.30461915
 H     19  13   2     2.047530182992   116.38115741   180.32684545
 H     20  14   3     2.047365198269   116.36337595   179.96740579
 H     23  21   4     2.039437491148   125.34778292   180.43565273
 H     24  23  21     2.039383672962   127.92598576   180.44323431
 Mg     3   1   2     3.906548476773    46.56842154   349.30073568
 N     39   3   1     4.060134567867    99.08201017   263.50222852
 C     40  39   3     2.483798486965   125.08046622   181.84455130
 N     41  40  39     2.555023529158   110.34113851   177.63312489
 C     42  41  40     2.604492628258   107.96786427   359.94580940
 C     43  42  41     2.576768067218   105.45482476     0.03663726
 H     41  40  39     2.035503256535   125.45699601   357.72628083
 H     43  42  41     2.031511125870   122.38035120   180.17627298
 H     44  43  42     2.033822062687   129.31909261   180.29177562
 H     42  41  40     1.900034228263   125.77750555   180.32691267

---------------------
BASIS SET INFORMATION
---------------------
There are 4 groups of distinct atoms

 Group   1 Type N   : 11s6p2d1f contracted to 5s3p2d1f pattern {62111/411/11/1}
 Group   2 Type C   : 11s6p2d1f contracted to 5s3p2d1f pattern {62111/411/11/1}
 Group   3 Type H   : 5s1p contracted to 3s1p pattern {311/1}
 Group   4 Type Mg  : 14s8p3d contracted to 5s4p3d pattern {73211/5111/111}

Atom   0N    basis set group =>   1
Atom   1N    basis set group =>   1
Atom   2N    basis set group =>   1
Atom   3N    basis set group =>   1
Atom   4C    basis set group =>   2
Atom   5C    basis set group =>   2
Atom   6C    basis set group =>   2
Atom   7C    basis set group =>   2
Atom   8C    basis set group =>   2
Atom   9C    basis set group =>   2
Atom  10C    basis set group =>   2
Atom  11C    basis set group =>   2
Atom  12C    basis set group =>   2
Atom  13C    basis set group =>   2
Atom  14C    basis set group =>   2
Atom  15C    basis set group =>   2
Atom  16C    basis set group =>   2
Atom  17C    basis set group =>   2
Atom  18C    basis set group =>   2
Atom  19C    basis set group =>   2
Atom  20C    basis set group =>   2
Atom  21C    basis set group =>   2
Atom  22C    basis set group =>   2
Atom  23C    basis set group =>   2
Atom  24H    basis set group =>   3
Atom  25H    basis set group =>   3
Atom  26H    basis set group =>   3
Atom  27H    basis set group =>   3
Atom  28H    basis set group =>   3
Atom  29H    basis set group =>   3
Atom  30H    basis set group =>   3
Atom  31H    basis set group =>   3
Atom  32H    basis set group =>   3
Atom  33H    basis set group =>   3
Atom  34H    basis set group =>   3
Atom  35H    basis set group =>   3
Atom  36H    basis set group =>   3
Atom  37H    basis set group =>   3
Atom  38Mg   basis set group =>   4
Atom  39N    basis set group =>   1
Atom  40C    basis set group =>   2
Atom  41N    basis set group =>   1
Atom  42C    basis set group =>   2
Atom  43C    basis set group =>   2
Atom  44H    basis set group =>   3
Atom  45H    basis set group =>   3
Atom  46H    basis set group =>   3
Atom  47H    basis set group =>   3
---------------------------------
AUXILIARY/J BASIS SET INFORMATION
---------------------------------
There are 4 groups of distinct atoms

 Group   1 Type N   : 12s5p4d2f1g contracted to 6s4p3d1f1g pattern {711111/2111/211/2/1}
 Group   2 Type C   : 12s5p4d2f1g contracted to 6s4p3d1f1g pattern {711111/2111/211/2/1}
 Group   3 Type H   : 5s2p1d contracted to 3s1p1d pattern {311/2/1}
 Group   4 Type Mg  : 14s5p5d2f1g contracted to 8s4p4d1f1g pattern {71111111/2111/2111/2/1}

Atom   0N    basis set group =>   1
Atom   1N    basis set group =>   1
Atom   2N    basis set group =>   1
Atom   3N    basis set group =>   1
Atom   4C    basis set group =>   2
Atom   5C    basis set group =>   2
Atom   6C    basis set group =>   2
Atom   7C    basis set group =>   2
Atom   8C    basis set group =>   2
Atom   9C    basis set group =>   2
Atom  10C    basis set group =>   2
Atom  11C    basis set group =>   2
Atom  12C    basis set group =>   2
Atom  13C    basis set group =>   2
Atom  14C    basis set group =>   2
Atom  15C    basis set group =>   2
Atom  16C    basis set group =>   2
Atom  17C    basis set group =>   2
Atom  18C    basis set group =>   2
Atom  19C    basis set group =>   2
Atom  20C    basis set group =>   2
Atom  21C    basis set group =>   2
Atom  22C    basis set group =>   2
Atom  23C    basis set group =>   2
Atom  24H    basis set group =>   3
Atom  25H    basis set group =>   3
Atom  26H    basis set group =>   3
Atom  27H    basis set group =>   3
Atom  28H    basis set group =>   3
Atom  29H    basis set group =>   3
Atom  30H    basis set group =>   3
Atom  31H    basis set group =>   3
Atom  32H    basis set group =>   3
Atom  33H    basis set group =>   3
Atom  34H    basis set group =>   3
Atom  35H    basis set group =>   3
Atom  36H    basis set group =>   3
Atom  37H    basis set group =>   3
Atom  38Mg   basis set group =>   4
Atom  39N    basis set group =>   1
Atom  40C    basis set group =>   2
Atom  41N    basis set group =>   1
Atom  42C    basis set group =>   2
Atom  43C    basis set group =>   2
Atom  44H    basis set group =>   3
Atom  45H    basis set group =>   3
Atom  46H    basis set group =>   3
Atom  47H    basis set group =>   3


           ************************************************************
           *        Program running with 4 parallel MPI-processes     *
           *              working on a common directory               *
           ************************************************************
------------------------------------------------------------------------------
                             ORCA STARTUP CALCULATIONS
                           -- RI-GTO INTEGRALS CHOSEN --
------------------------------------------------------------------------------
------------------------------------------------------------------------------
                   ___                                                        
                  /   \      - P O W E R E D   B Y -                         
                 /     \                                                     
                 |  |  |   _    _      __       _____    __    __             
                 |  |  |  | |  | |    /  \     |  _  \  |  |  /  |          
                  \  \/   | |  | |   /    \    | | | |  |  | /  /          
                 / \  \   | |__| |  /  /\  \   | |_| |  |  |/  /          
                |  |  |   |  __  | /  /__\  \  |    /   |      \           
                |  |  |   | |  | | |   __   |  |    \   |  |\   \          
                \     /   | |  | | |  |  |  |  | |\  \  |  | \   \       
                 \___/    |_|  |_| |__|  |__|  |_| \__\ |__|  \__/        
                                                                              
                      - O R C A' S   B I G   F R I E N D -                    
                                      &                                       
                       - I N T E G R A L  F E E D E R -                       
                                                                              
 v1 FN, 2020, v2 2021, v3 2022-2024                                           
------------------------------------------------------------------------------


----------------------
SHARK INTEGRAL PACKAGE
----------------------

Number of atoms                             ...     48
Number of basis functions                   ...   1039
Number of shells                            ...    403
Maximum angular momentum                    ...      3
Integral batch strategy                     ... SHARK/LIBINT Hybrid
RI-J (if used) integral strategy            ... SPLIT-RIJ (Revised 2003 algorithm where possible)
Printlevel                                  ...      1
Contraction scheme used                     ... SEGMENTED contraction
Prescreening option                         ... SCHWARTZ
   Thresh                                   ... 2.500e-11
   Tcut                                     ... 2.500e-12
   Tpresel                                  ... 2.500e-12 
Coulomb Range Separation                    ... NOT USED
Exchange Range Separation                   ... Long Range
   Mu parameter                             ... 2.500e-01
   Scaling (regular/separated)              ... 1.957e-01 8.043e-01
Robust (split-)RI terms used:
  metric    (central integrals)             ... YES
  density   (r.h.s.  integrals)             ... YES
  potential (l.h.s.  integrals)             ... YES
Multipole approximations                    ... NOT USED
Finite Nucleus Model                        ... NOT USED
CABS basis                                  ... NOT available
Auxiliary Coulomb fitting basis             ... AVAILABLE
   # of basis functions in Aux-J            ...   1675
   # of shells in Aux-J                     ...    543
   Maximum angular momentum in Aux-J        ...      4
Auxiliary J/K fitting basis                 ... NOT available
Auxiliary Correlation fitting basis         ... NOT available
Auxiliary 'external' fitting basis          ... NOT available

Checking pre-screening integrals            ... done (  0.0 sec) Dimension = 403
   => SHARK Basis and OBASIS are compatible. Storing Pre-screening
Shell pair information
Shell pair cut-off parameter TPreSel        ...   2.5e-12
Total number of shell pairs                 ...     81406
Shell pairs after pre-screening             ...     56511
Total number of primitive shell pairs       ...    255268
Primitive shell pairs kept                  ...    113104
          la=0 lb=0:  13747 shell pairs
          la=1 lb=0:  16197 shell pairs
          la=1 lb=1:   4776 shell pairs
          la=2 lb=0:   8278 shell pairs
          la=2 lb=1:   5060 shell pairs
          la=2 lb=2:   1377 shell pairs
          la=3 lb=0:   3500 shell pairs
          la=3 lb=1:   2211 shell pairs
          la=3 lb=2:   1136 shell pairs
          la=3 lb=3:    229 shell pairs

Checking whether 4 symmetric matrices of dimension 1039 fit in memory
:Max Core in MB      =   3000.00
 MB in use           =     71.41
 MB left             =   2928.59
 MB needed           =     16.49
 Data fit in memory  = YES
Calculating RI/J V-Matrix + Cholesky decomp.... done (  0.3 sec)
Calculating Nuclear repulsion               ... done (  0.0 sec) ENN=   3002.845142179156 Eh

Diagonalization of the overlap matrix:
Smallest eigenvalue                        ... 1.011e-05
Time for diagonalization                   ...    0.320 sec
Threshold for overlap eigenvalues          ... 1.000e-07
Number of eigenvalues below threshold      ... 0
Time for construction of square roots      ...    0.289 sec
Total time needed                          ...    0.625 sec

-------------------
DFT GRID GENERATION
-------------------

General Integration Accuracy     IntAcc      ... 4.959
Radial Grid Type                 RadialGrid  ... OptM3 with GC (2021)
Angular Grid (max. ang.)         AngularGrid ... 6 (Lebedev-590)
Angular grid pruning method      GridPruning ... 4 (adaptive)
Weight generation scheme         WeightScheme... mBecke (2022)
Basis function cutoff            BFCut       ... 1.0000e-11
Integration weight cutoff        WCut        ... 1.0000e-14
Partially contracted basis set               ... off
Rotationally invariant grid construction     ... off
Angular grids for H and He will be reduced by one unit

Total number of grid points                  ...   575843
Total number of batches                      ...     9021
Average number of points per batch           ...       63
Average number of grid points per atom       ...    11997

--------------------
COSX GRID GENERATION
--------------------

GRIDX 1
-------
General Integration Accuracy     IntAcc      ... 4.020
Radial Grid Type                 RadialGrid  ... OptM3 with GC (2021)
Angular Grid (max. ang.)         AngularGrid ... 2 (Lebedev-110)
Angular grid pruning method      GridPruning ... 4 (adaptive)
Weight generation scheme         WeightScheme... mBecke (2022)
Basis function cutoff            BFCut       ... 1.0000e-11
Integration weight cutoff        WCut        ... 1.0000e-14
Partially contracted basis set               ... on
Rotationally invariant grid construction     ... off
Angular grids for H and He will be reduced by one unit

Total number of grid points                  ...    65260
Total number of batches                      ...      533
Average number of points per batch           ...      122
Average number of grid points per atom       ...     1360
UseSFitting                                  ... on

GRIDX 2
-------
General Integration Accuracy     IntAcc      ... 4.338
Radial Grid Type                 RadialGrid  ... OptM3 with GC (2021)
Angular Grid (max. ang.)         AngularGrid ... 3 (Lebedev-194)
Angular grid pruning method      GridPruning ... 4 (adaptive)
Weight generation scheme         WeightScheme... mBecke (2022)
Basis function cutoff            BFCut       ... 1.0000e-11
Integration weight cutoff        WCut        ... 1.0000e-14
Partially contracted basis set               ... on
Rotationally invariant grid construction     ... off
Angular grids for H and He will be reduced by one unit

Total number of grid points                  ...   143029
Total number of batches                      ...     1139
Average number of points per batch           ...      125
Average number of grid points per atom       ...     2980
UseSFitting                                  ... on

GRIDX 3
-------
General Integration Accuracy     IntAcc      ... 4.871
Radial Grid Type                 RadialGrid  ... OptM3 with GC (2021)
Angular Grid (max. ang.)         AngularGrid ... 4 (Lebedev-302)
Angular grid pruning method      GridPruning ... 4 (adaptive)
Weight generation scheme         WeightScheme... mBecke (2022)
Basis function cutoff            BFCut       ... 1.0000e-11
Integration weight cutoff        WCut        ... 1.0000e-14
Partially contracted basis set               ... on
Rotationally invariant grid construction     ... off
Angular grids for H and He will be reduced by one unit

Total number of grid points                  ...   263544
Total number of batches                      ...     2084
Average number of points per batch           ...      126
Average number of grid points per atom       ...     5490
UseSFitting                                  ... on
Grids setup in  41.2 sec
Initializing property integral containers    ... done (  0.0 sec)

SHARK setup successfully completed in  44.8 seconds

Maximum memory used throughout the entire STARTUP-calculation: 201.6 MB


           ************************************************************
           *        Program running with 4 parallel MPI-processes     *
           *              working on a common directory               *
           ************************************************************
-------------------------------------------------------------------------------
                                 ORCA GUESS
                   Start orbitals & Density for SCF / CASSCF
-------------------------------------------------------------------------------

------------
SCF SETTINGS
------------
Hamiltonian:
 Density Functional     Method          .... DFT(GTOs)
 Exchange Functional    Exchange        .... WB97X-D3
 Correlation Functional Correlation     .... WB97X-D3
 Gradients option       PostSCFGGA      .... off
 Hybrid DFT is turned on
   Fraction HF Exchange ScalHFX         ....  0.195728
   Scaling of DF-GGA-X  ScalDFX         ....  0.000000
   Scaling of DF-GGA-C  ScalDFC         ....  1.000000
   Scaling of DF-LDA-C  ScalLDAC        ....  1.000000
   Perturbative correction              ....  0.000000
 Long-range corrected/Screened/Range-Separated Hybrid DFT is turned on
   Amount of maximum screened exact exchange              ....  0.804272
   Range separation parameter mu (erf(mu*r12)/r12)        ....  0.250000
 RI-approximation to the Coulomb term is turned on
   Number of AuxJ basis functions       .... 1675
   RIJ-COSX (HFX calculated with COS-X)).... on


General Settings:
 Integral files         IntName         .... tddft
 Hartree-Fock type      HFTyp           .... RHF
 Total Charge           Charge          ....    0
 Multiplicity           Mult            ....    1
 Number of Electrons    NEL             ....  210
 Basis Dimension        Dim             .... 1039
 Nuclear Repulsion      ENuc            ....   3002.8451421792 Eh

Convergence Acceleration:
 AO-DIIS                CNVDIIS         .... on
   Start iteration      DIISMaxIt       ....    12
   Startup error        DIISStart       ....  0.200000
   # of expansion vecs  DIISMaxEq       ....     5
   Bias factor          DIISBfac        ....   1.050
   Max. coefficient     DIISMaxC        ....  10.000
 MO-DIIS                CNVKDIIS        .... off
 Trust-Rad. Augm. Hess. CNVTRAH         .... auto
   Auto Start mean grad. ratio tolernc. ....  1.125000
   Auto Start start iteration           ....    50
   Auto Start num. interpolation iter.  ....    10
   Max. Number of Micro iterations      ....    24
   Max. Number of Macro iterations      .... Maxiter - #DIIS iter
   Number of Davidson start vectors     ....     2
   Converg. threshold    (grad. norm)   ....   1.000e-05
   Grad. Scal. Fac. for Micro threshold ....   0.100
   Minimum threshold for Micro iter.    ....   1.000e-02
   NR start threshold (gradient norm)   ....   1.000e-04
   Initial trust radius                 ....   0.400
   Minimum AH scaling param. (alpha)    ....   1.000
   Maximum AH scaling param. (alpha)    .... 1000.000
   Quad. conv. algorithm                .... NR
   White noise on init. David. guess    .... on
   Maximum white noise                  ....   0.010
   Pseudo random numbers                .... off
   Inactive MOs                         .... canonical
   Orbital update algorithm             .... Taylor
   Preconditioner                       .... Diag
   Full preconditioner red. dimension   ....   250
 SOSCF                 CNVSOSCF           .... on
   Start iteration     SOSCFMaxIt         ....   150
   Startup grad/error  SOSCFStart         ....  0.003300
   Hessian update      SOSCFHessUp        .... L-BFGS
   Autom. constraints  SOSCFAutoConstrain .... off
 Level Shifting         CNVShift        .... on
   Level shift para.    LevelShift      ....    0.2500
   Turn off err/grad.   ShiftErr        ....    0.0010
 Zerner damping         CNVZerner       .... off
 Static damping         CNVDamp         .... on
   Fraction old density DampFac         ....    0.7000
   Max. Damping (<1)    DampMax         ....    0.9800
   Min. Damping (>=0)   DampMin         ....    0.0000
   Turn off err/grad.   DampErr         ....    0.1000

SCF Procedure:
 Maximum # iterations   MaxIter         ....   125
 SCF integral mode      SCFMode         .... Direct
   Integral package                     .... SHARK and LIBINT hybrid scheme
 Reset frequency        DirectResetFreq ....    20
 Integral Threshold     Thresh          ....  2.500e-11 Eh
 Primitive CutOff       TCut            ....  2.500e-12 Eh

Convergence Tolerance:
 Convergence Check Mode ConvCheckMode   .... Total+1el-Energy
 Convergence forced     ConvForced      .... 1
 Energy Change          TolE            ....  1.000e-08 Eh
 1-El. energy change                    ....  1.000e-05 Eh
 Orbital Gradient       TolG            ....  1.000e-05
 Orbital Rotation angle TolX            ....  1.000e-05
 DIIS Error             TolErr          ....  5.000e-07

------------------------------
INITIAL GUESS: MODEL POTENTIAL
------------------------------
Loading Hartree-Fock densities                     ... done
Calculating cut-offs                               ... done
Initializing the effective Hamiltonian             ... done
Setting up the integral package (SHARK)            ... done
Starting the Coulomb interaction                   ... done (   4.6 sec)
Making the grid                                    ... done (   1.9 sec)
Mapping shells                                     ... done
Starting the XC term evaluation                    ... done (   5.1 sec)
  promolecular density results
     # of electrons  =    209.992473701
     EX              =   -178.372332091
     EC              =     -7.137356798
     EX+EC           =   -185.509688890
Transforming the Hamiltonian                       ... done (   0.3 sec)
Diagonalizing the Hamiltonian                      ... done (   0.4 sec)
Back transforming the eigenvectors                 ... done (   0.2 sec)
Now organizing SCF variables                       ... done
                      ------------------
                      INITIAL GUESS DONE (  12.6 sec)
                      ------------------
             **** ENERGY FILE WAS UPDATED (tddft.en.tmp) ****
Finished Guess after  13.6 sec
Maximum memory used throughout the entire GUESS-calculation: 121.3 MB


           ************************************************************
           *        Program running with 4 parallel MPI-processes     *
           *              working on a common directory               *
           ************************************************************

-------------------------------------------------------------------------------------------
                                      ORCA LEAN-SCF
                              memory conserving SCF solver
-------------------------------------------------------------------------------------------

--------------------
CPCM SOLVATION MODEL
--------------------
CPCM parameters:
  Epsilon                                         ...       8.9990
  Refrac                                          ...       1.4242
  Rsolv                                           ...       1.3000
  Surface type                                    ... GAUSSIAN VDW
  Discretization scheme                           ... Constant charge density
    Threshold for H atoms                         ...       5.0000 (charges/Ang^2)
    Threshold for non-H atoms                     ...       5.0000 (charges/Ang^2)
  Epsilon function type                           ...         CPCM
Solvent:                                          ... DICHLOROMETHANE
Radii:
  Scheme                                          ... Element-dependent radii
  Radius for N  used is    3.5149 Bohr (=   1.8600 Ang.)
  Radius for C  used is    3.8550 Bohr (=   2.0400 Ang.)
  Radius for H  used is    2.4944 Bohr (=   1.3200 Ang.)
  Radius for Mg used is    3.9231 Bohr (=   2.0760 Ang.)
Calculating surface                               ...        done! (  0.0s)
Cavity surface points                             ...         4266
Cavity Volume                                     ...    3053.5298
Cavity Surface-area                               ...    1451.2358
Calculating surface distance matrix               ...        done! (  1.1s)
Performing Cholesky decomposition & store         ...        done! (  5.3s)
Overall time for CPCM initialization              ...                 6.5s

----------------------------------------D-I-I-S--------------------------------------------
Iteration    Energy (Eh)           Delta-E    RMSDP     MaxDP     DIISErr   Damp  Time(sec)
-------------------------------------------------------------------------------------------
               ***  Starting incremental Fock matrix formation  ***
    1    -1415.4656873788767371     0.00e+00  1.50e-03  3.61e-02  2.19e-01  0.700 360.4
    2    -1415.7201582783886806    -2.54e-01  1.21e-03  3.02e-02  1.20e-01  0.700 144.7
                               ***Turning on AO-DIIS***
    3    -1415.8543792931791359    -1.34e-01  7.61e-04  2.36e-02  5.50e-02  0.700 167.8
    4    -1415.9354794404212043    -8.11e-02  1.69e-03  5.04e-02  3.82e-02  0.000 131.5
    5    -1416.1101939747263714    -1.75e-01  2.06e-04  7.76e-03  5.16e-03  0.000 153.3
                              *** Initializing SOSCF ***
---------------------------------------S-O-S-C-F--------------------------------------
Iteration    Energy (Eh)           Delta-E    RMSDP     MaxDP     MaxGrad    Time(sec)
--------------------------------------------------------------------------------------
    6    -1416.1108332864464501    -6.39e-04  9.98e-05  4.73e-03  2.47e-03   136.4
               *** Restarting incremental Fock matrix formation ***
    7    -1416.1110278736964574    -1.95e-04  8.95e-05  2.96e-03  2.43e-03   327.8
    8    -1416.1112054618320144    -1.78e-04  1.59e-04  6.16e-03  1.48e-03   203.7
    9    -1416.1113401581537801    -1.35e-04  4.53e-05  1.51e-03  6.58e-04   215.2
   10    -1416.1113580907617688    -1.79e-05  2.02e-05  7.81e-04  3.37e-04   186.6
   11    -1416.1113652927447220    -7.20e-06  9.72e-06  3.02e-04  8.61e-05   160.6
   12    -1416.1113661697604584    -8.77e-07  5.45e-06  1.27e-04  5.44e-05   155.3
   13    -1416.1113664543267987    -2.85e-07  3.78e-06  1.13e-04  9.37e-06   154.9
   14    -1416.1113664440968023     1.02e-08  3.76e-06  1.22e-04  5.95e-06   125.9
   15    -1416.1113664289928238     1.51e-08  5.14e-06  2.02e-04  2.82e-06   107.8
   16    -1416.1113664340323339    -5.04e-09  4.50e-06  2.02e-04  8.20e-07   116.1
                 **** Energy Check signals convergence ****

               *****************************************************
               *                     SUCCESS                       *
               *           SCF CONVERGED AFTER  16 CYCLES          *
               *****************************************************

Recomputing exchange energy using gridx3       ... done (  472.643 sec)
Old exchange energy                            :    -58.059757818 Eh
New exchange energy                            :    -58.059761759 Eh
Exchange energy change after final integration :     -0.000003942 Eh
Total energy after final integration           :  -1416.111370367 Eh
             **** ENERGY FILE WAS UPDATED (tddft.en.tmp) ****

----------------
TOTAL SCF ENERGY
----------------

Total Energy       :      -1416.11137036678974 Eh          -38534.34944 eV

Components:
Nuclear Repulsion  :       3002.84514217915557 Eh           81711.57045 eV
Electronic Energy  :      -4418.92845809577011 Eh         -120245.15649 eV
One Electron Energy:      -7907.58267905166304 Eh         -215176.26405 eV
Two Electron Energy:       3488.65422095589292 Eh           94931.10756 eV
CPCM Dielectric    :         -0.02805050838766 Eh              -0.76329 eV

Virial components:
Potential Energy   :      -2826.02060257280482 Eh          -76899.93011 eV
Kinetic Energy     :       1409.90923220601485 Eh           38365.58068 eV
Virial Ratio       :          2.00439896272689

DFT components:
N(Alpha)           :      105.000000490718 electrons
N(Beta)            :      105.000000490718 electrons
N(Total)           :      210.000000981435 electrons
E(XC)              :     -131.648347643137 Eh       

CPCM Solvation Model Properties:
Surface-charge          :         -0.03724996786653
Corrected charge        :         -0.00000000000000
Outlying charge corr.   :          0.00006216872258 Eh               0.00169 eV
Free-energy (cav+disp)  :  This term is not implemented in the current solvation scheme

---------------
SCF CONVERGENCE
---------------

  Last Energy change         ...    5.0395e-09  Tolerance :   1.0000e-08
  Last MAX-Density change    ...    2.0247e-04  Tolerance :   1.0000e-07
  Last RMS-Density change    ...    4.4956e-06  Tolerance :   5.0000e-09
  Last DIIS Error            ...    2.4708e-03  Tolerance :   5.0000e-07
  Last Orbital Gradient      ...    8.1981e-07  Tolerance :   1.0000e-05
  Last Orbital Rotation      ...    5.2347e-06  Tolerance :   1.0000e-05


----------------
ORBITAL ENERGIES
----------------

  NO   OCC          E(Eh)            E(eV) 
   0   2.0000     -46.824213     -1274.1516 
   1   2.0000     -14.488258      -394.2455 
   2   2.0000     -14.429495      -392.6465 
   3   2.0000     -14.415886      -392.2762 
   4   2.0000     -14.401767      -391.8920 
   5   2.0000     -14.398877      -391.8134 
   6   2.0000     -14.398725      -391.8092 
   7   2.0000     -10.345911      -281.5265 
   8   2.0000     -10.320751      -280.8419 
   9   2.0000     -10.320652      -280.8392 
  10   2.0000     -10.313738      -280.6511 
  11   2.0000     -10.313128      -280.6345 
  12   2.0000     -10.313109      -280.6340 
  13   2.0000     -10.301890      -280.3287 
  14   2.0000     -10.301875      -280.3283 
  15   2.0000     -10.300972      -280.3037 
  16   2.0000     -10.298839      -280.2456 
  17   2.0000     -10.298670      -280.2411 
  18   2.0000     -10.288862      -279.9742 
  19   2.0000     -10.288119      -279.9540 
  20   2.0000     -10.278250      -279.6854 
  21   2.0000     -10.277893      -279.6757 
  22   2.0000     -10.277455      -279.6638 
  23   2.0000     -10.277263      -279.6585 
  24   2.0000     -10.271274      -279.4956 
  25   2.0000     -10.271028      -279.4889 
  26   2.0000     -10.267866      -279.4028 
  27   2.0000     -10.267134      -279.3829 
  28   2.0000     -10.262898      -279.2676 
  29   2.0000     -10.262640      -279.2606 
  30   2.0000      -3.133967       -85.2796 
  31   2.0000      -1.869978       -50.8847 
  32   2.0000      -1.867743       -50.8239 
  33   2.0000      -1.867498       -50.8172 
  34   2.0000      -1.152329       -31.3565 
  35   2.0000      -1.076393       -29.2901 
  36   2.0000      -1.067550       -29.0495 
  37   2.0000      -1.067350       -29.0441 
  38   2.0000      -1.057629       -28.7795 
  39   2.0000      -1.004095       -27.3228 
  40   2.0000      -0.927142       -25.2288 
  41   2.0000      -0.901275       -24.5250 
  42   2.0000      -0.898409       -24.4470 
  43   2.0000      -0.883265       -24.0349 
  44   2.0000      -0.876620       -23.8541 
  45   2.0000      -0.875602       -23.8263 
  46   2.0000      -0.873684       -23.7741 
  47   2.0000      -0.868482       -23.6326 
  48   2.0000      -0.845671       -23.0119 
  49   2.0000      -0.826368       -22.4866 
  50   2.0000      -0.764087       -20.7919 
  51   2.0000      -0.759196       -20.6588 
  52   2.0000      -0.735662       -20.0184 
  53   2.0000      -0.715323       -19.4649 
  54   2.0000      -0.711680       -19.3658 
  55   2.0000      -0.682916       -18.5831 
  56   2.0000      -0.681208       -18.5366 
  57   2.0000      -0.674890       -18.3647 
  58   2.0000      -0.671857       -18.2822 
  59   2.0000      -0.669299       -18.2125 
  60   2.0000      -0.652244       -17.7485 
  61   2.0000      -0.635708       -17.2985 
  62   2.0000      -0.621465       -16.9109 
  63   2.0000      -0.613160       -16.6849 
  64   2.0000      -0.600386       -16.3373 
  65   2.0000      -0.596345       -16.2274 
  66   2.0000      -0.587282       -15.9807 
  67   2.0000      -0.575613       -15.6632 
  68   2.0000      -0.557874       -15.1805 
  69   2.0000      -0.555399       -15.1132 
  70   2.0000      -0.544912       -14.8278 
  71   2.0000      -0.535497       -14.5716 
  72   2.0000      -0.529298       -14.4029 
  73   2.0000      -0.527183       -14.3454 
  74   2.0000      -0.524245       -14.2654 
  75   2.0000      -0.514024       -13.9873 
  76   2.0000      -0.512294       -13.9402 
  77   2.0000      -0.509332       -13.8596 
  78   2.0000      -0.500477       -13.6187 
  79   2.0000      -0.499523       -13.5927 
  80   2.0000      -0.498912       -13.5761 
  81   2.0000      -0.477232       -12.9861 
  82   2.0000      -0.474794       -12.9198 
  83   2.0000      -0.470301       -12.7976 
  84   2.0000      -0.464878       -12.6500 
  85   2.0000      -0.463108       -12.6018 
  86   2.0000      -0.458456       -12.4752 
  87   2.0000      -0.456622       -12.4253 
  88   2.0000      -0.455011       -12.3815 
  89   2.0000      -0.448395       -12.2014 
  90   2.0000      -0.445173       -12.1138 
  91   2.0000      -0.416056       -11.3215 
  92   2.0000      -0.411211       -11.1896 
  93   2.0000      -0.404500       -11.0070 
  94   2.0000      -0.398603       -10.8466 
  95   2.0000      -0.390133       -10.6161 
  96   2.0000      -0.366196        -9.9647 
  97   2.0000      -0.363980        -9.9044 
  98   2.0000      -0.355075        -9.6621 
  99   2.0000      -0.341934        -9.3045 
 100   2.0000      -0.336811        -9.1651 
 101   2.0000      -0.332368        -9.0442 
 102   2.0000      -0.329605        -8.9690 
 103   2.0000      -0.256628        -6.9832 
 104   2.0000      -0.240308        -6.5391 
 105   0.0000      -0.035017        -0.9529 
 106   0.0000      -0.007893        -0.2148 
 107   0.0000       0.077118         2.0985 
 108   0.0000       0.082142         2.2352 
 109   0.0000       0.086308         2.3486 
 110   0.0000       0.110565         3.0086 
 111   0.0000       0.116227         3.1627 
 112   0.0000       0.125080         3.4036 
 113   0.0000       0.128078         3.4852 
 114   0.0000       0.134585         3.6623 
 115   0.0000       0.135585         3.6895 
*Only the first 10 virtual orbitals were printed.

                    ********************************
                    * MULLIKEN POPULATION ANALYSIS *
                    ********************************

-----------------------
MULLIKEN ATOMIC CHARGES
-----------------------
   0 N :   -0.377869
   1 N :   -0.415062
   2 N :   -0.400979
   3 N :   -0.367595
   4 C :   -0.158841
   5 C :   -0.160147
   6 C :    0.202268
   7 C :    0.201196
   8 C :   -0.456524
   9 C :   -0.458516
  10 C :    0.296422
  11 C :    0.296969
  12 C :    0.226942
  13 C :    0.230640
  14 C :   -0.247660
  15 C :   -0.246895
  16 C :   -0.223725
  17 C :   -0.228141
  18 C :   -0.327428
  19 C :   -0.323916
  20 C :    0.246941
  21 C :    0.244144
  22 C :   -0.255654
  23 C :   -0.256085
  24 H :    0.127029
  25 H :    0.135439
  26 H :    0.126286
  27 H :    0.136769
  28 H :    0.150361
  29 H :    0.150165
  30 H :    0.155778
  31 H :    0.156031
  32 H :    0.158849
  33 H :    0.159158
  34 H :    0.162572
  35 H :    0.162656
  36 H :    0.153063
  37 H :    0.153006
  38 Mg:    0.695476
  39 N :   -0.322890
  40 C :    0.061506
  41 N :   -0.232492
  42 C :   -0.114962
  43 C :   -0.126850
  44 H :    0.218958
  45 H :    0.199563
  46 H :    0.192069
  47 H :    0.301975
Sum of atomic charges:   -0.0000000

--------------------------------
MULLIKEN REDUCED ORBITAL CHARGES
--------------------------------
  0 N s       :     3.651602  s :     3.651602
      pz      :     1.296492  p :     3.660821
      px      :     1.217534
      py      :     1.146795
      dz2     :     0.004665  d :     0.061838
      dxz     :     0.009097
      dyz     :     0.010485
      dx2y2   :     0.020501
      dxy     :     0.017090
      f0      :     0.000675  f :     0.003608
      f+1     :     0.000316
      f-1     :     0.000349
      f+2     :     0.000454
      f-2     :     0.000128
      f+3     :     0.000988
      f-3     :     0.000697

  1 N s       :     3.660776  s :     3.660776
      pz      :     1.365301  p :     3.689907
      px      :     1.132211
      py      :     1.192395
      dz2     :     0.004796  d :     0.060732
      dxz     :     0.010336
      dyz     :     0.009407
      dx2y2   :     0.019574
      dxy     :     0.016619
      f0      :     0.000681  f :     0.003648
      f+1     :     0.000384
      f-1     :     0.000346
      f+2     :     0.000583
      f-2     :     0.000107
      f+3     :     0.000677
      f-3     :     0.000870

  2 N s       :     3.653663  s :     3.653663
      pz      :     1.361545  p :     3.683095
      px      :     1.127796
      py      :     1.193755
      dz2     :     0.004697  d :     0.060570
      dxz     :     0.011026
      dyz     :     0.008625
      dx2y2   :     0.019187
      dxy     :     0.017035
      f0      :     0.000680  f :     0.003651
      f+1     :     0.000372
      f-1     :     0.000363
      f+2     :     0.000563
      f-2     :     0.000127
      f+3     :     0.000628
      f-3     :     0.000919

  3 N s       :     3.651052  s :     3.651052
      pz      :     1.320023  p :     3.650097
      px      :     1.194243
      py      :     1.135831
      dz2     :     0.004676  d :     0.062744
      dxz     :     0.009778
      dyz     :     0.011966
      dx2y2   :     0.019473
      dxy     :     0.016850
      f0      :     0.000672  f :     0.003702
      f+1     :     0.000343
      f-1     :     0.000367
      f+2     :     0.000661
      f-2     :     0.000116
      f+3     :     0.000893
      f-3     :     0.000650

  4 C s       :     3.142811  s :     3.142811
      pz      :     1.061483  p :     2.932288
      px      :     0.880751
      py      :     0.990054
      dz2     :     0.005136  d :     0.078274
      dxz     :     0.015783
      dyz     :     0.015650
      dx2y2   :     0.024307
      dxy     :     0.017398
      f0      :     0.000649  f :     0.005468
      f+1     :     0.000171
      f-1     :     0.000974
      f+2     :     0.000302
      f-2     :     0.000747
      f+3     :     0.001292
      f-3     :     0.001333

  5 C s       :     3.145376  s :     3.145376
      pz      :     1.060019  p :     2.930902
      px      :     0.981828
      py      :     0.889056
      dz2     :     0.004589  d :     0.078398
      dxz     :     0.015902
      dyz     :     0.016277
      dx2y2   :     0.023824
      dxy     :     0.017807
      f0      :     0.000572  f :     0.005471
      f+1     :     0.001094
      f-1     :     0.000136
      f+2     :     0.000231
      f-2     :     0.000809
      f+3     :     0.001043
      f-3     :     0.001585

  6 C s       :     3.133741  s :     3.133741
      pz      :     0.848490  p :     2.488719
      px      :     0.897860
      py      :     0.742370
      dz2     :     0.001945  d :     0.161170
      dxz     :     0.027702
      dyz     :     0.040415
      dx2y2   :     0.042716
      dxy     :     0.048392
      f0      :     0.002047  f :     0.014101
      f+1     :     0.000803
      f-1     :     0.001044
      f+2     :     0.001773
      f-2     :     0.001193
      f+3     :     0.005228
      f-3     :     0.002012

  7 C s       :     3.133814  s :     3.133814
      pz      :     0.847087  p :     2.489404
      px      :     0.770994
      py      :     0.871323
      dz2     :     0.001314  d :     0.161473
      dxz     :     0.034664
      dyz     :     0.033849
      dx2y2   :     0.043307
      dxy     :     0.048338
      f0      :     0.002070  f :     0.014113
      f+1     :     0.001034
      f-1     :     0.000775
      f+2     :     0.001516
      f-2     :     0.001458
      f+3     :     0.003578
      f-3     :     0.003683

  8 C s       :     3.331998  s :     3.331998
      pz      :     1.135363  p :     3.050011
      px      :     0.911232
      py      :     1.003416
      dz2     :     0.002876  d :     0.067211
      dxz     :     0.021229
      dyz     :     0.003321
      dx2y2   :     0.030528
      dxy     :     0.009258
      f0      :     0.001519  f :     0.007304
      f+1     :     0.000741
      f-1     :     0.000677
      f+2     :     0.000425
      f-2     :     0.000731
      f+3     :     0.002096
      f-3     :     0.001115

  9 C s       :     3.335376  s :     3.335376
      pz      :     1.136493  p :     3.048875
      px      :     0.993474
      py      :     0.918908
      dz2     :     0.002775  d :     0.066962
      dxz     :     0.003292
      dyz     :     0.021243
      dx2y2   :     0.030854
      dxy     :     0.008797
      f0      :     0.001531  f :     0.007303
      f+1     :     0.000685
      f-1     :     0.000725
      f+2     :     0.000441
      f-2     :     0.000704
      f+3     :     0.001220
      f-3     :     0.001997

 10 C s       :     3.120248  s :     3.120248
      pz      :     0.868754  p :     2.407620
      px      :     0.785905
      py      :     0.752961
      dz2     :     0.002577  d :     0.161098
      dxz     :     0.034995
      dyz     :     0.036124
      dx2y2   :     0.041120
      dxy     :     0.046282
      f0      :     0.002236  f :     0.014612
      f+1     :     0.000866
      f-1     :     0.001030
      f+2     :     0.001889
      f-2     :     0.001223
      f+3     :     0.004067
      f-3     :     0.003300

 11 C s       :     3.118768  s :     3.118768
      pz      :     0.865042  p :     2.407889
      px      :     0.739496
      py      :     0.803350
      dz2     :     0.002559  d :     0.161733
      dxz     :     0.039542
      dyz     :     0.032030
      dx2y2   :     0.041033
      dxy     :     0.046569
      f0      :     0.002241  f :     0.014640
      f+1     :     0.001075
      f-1     :     0.000825
      f+2     :     0.002367
      f-2     :     0.000754
      f+3     :     0.002078
      f-3     :     0.005301

 12 C s       :     3.114530  s :     3.114530
      pz      :     0.964571  p :     2.491734
      px      :     0.726023
      py      :     0.801140
      dz2     :     0.003348  d :     0.152516
      dxz     :     0.037414
      dyz     :     0.026517
      dx2y2   :     0.040561
      dxy     :     0.044677
      f0      :     0.002231  f :     0.014277
      f+1     :     0.001075
      f-1     :     0.000844
      f+2     :     0.002274
      f-2     :     0.000549
      f+3     :     0.002065
      f-3     :     0.005239

 13 C s       :     3.112336  s :     3.112336
      pz      :     0.959298  p :     2.489673
      px      :     0.785708
      py      :     0.744666
      dz2     :     0.003405  d :     0.153050
      dxz     :     0.028729
      dyz     :     0.035534
      dx2y2   :     0.040062
      dxy     :     0.045320
      f0      :     0.002224  f :     0.014302
      f+1     :     0.000882
      f-1     :     0.001053
      f+2     :     0.001697
      f-2     :     0.001135
      f+3     :     0.004054
      f-3     :     0.003257

 14 C s       :     3.268630  s :     3.268630
      pz      :     1.028470  p :     2.890425
      px      :     0.917460
      py      :     0.944495
      dz2     :     0.004877  d :     0.080916
      dxz     :     0.019292
      dyz     :     0.007393
      dx2y2   :     0.029177
      dxy     :     0.020177
      f0      :     0.001535  f :     0.007690
      f+1     :     0.000516
      f-1     :     0.000841
      f+2     :     0.000063
      f-2     :     0.001212
      f+3     :     0.002267
      f-3     :     0.001257

 15 C s       :     3.269285  s :     3.269285
      pz      :     1.027263  p :     2.888933
      px      :     0.954925
      py      :     0.906745
      dz2     :     0.004902  d :     0.080990
      dxz     :     0.009130
      dyz     :     0.017559
      dx2y2   :     0.030927
      dxy     :     0.018472
      f0      :     0.001536  f :     0.007687
      f+1     :     0.000801
      f-1     :     0.000554
      f+2     :     0.000394
      f-2     :     0.000882
      f+3     :     0.001950
      f-3     :     0.001571

 16 C s       :     3.276588  s :     3.276588
      pz      :     0.972086  p :     2.853543
      px      :     0.964620
      py      :     0.916836
      dz2     :     0.004694  d :     0.085806
      dxz     :     0.010014
      dyz     :     0.022614
      dx2y2   :     0.030091
      dxy     :     0.018394
      f0      :     0.001516  f :     0.007788
      f+1     :     0.000787
      f-1     :     0.000528
      f+2     :     0.000540
      f-2     :     0.000909
      f+3     :     0.001961
      f-3     :     0.001547

 17 C s       :     3.278952  s :     3.278952
      pz      :     0.971368  p :     2.855532
      px      :     0.927437
      py      :     0.956727
      dz2     :     0.004725  d :     0.085870
      dxz     :     0.025161
      dyz     :     0.007472
      dx2y2   :     0.028558
      dxy     :     0.019954
      f0      :     0.001517  f :     0.007787
      f+1     :     0.000494
      f-1     :     0.000822
      f+2     :     0.000097
      f-2     :     0.001353
      f+3     :     0.002251
      f-3     :     0.001255

 18 C s       :     3.324780  s :     3.324780
      pz      :     0.963515  p :     2.913618
      px      :     1.018124
      py      :     0.931979
      dz2     :     0.002428  d :     0.081797
      dxz     :     0.003217
      dyz     :     0.032697
      dx2y2   :     0.033547
      dxy     :     0.009908
      f0      :     0.001446  f :     0.007233
      f+1     :     0.000624
      f-1     :     0.000634
      f+2     :     0.000449
      f-2     :     0.000833
      f+3     :     0.001167
      f-3     :     0.002081

 19 C s       :     3.319904  s :     3.319904
      pz      :     0.966300  p :     2.915244
      px      :     0.931485
      py      :     1.017460
      dz2     :     0.002442  d :     0.081538
      dxz     :     0.032319
      dyz     :     0.003387
      dx2y2   :     0.032937
      dxy     :     0.010453
      f0      :     0.001446  f :     0.007229
      f+1     :     0.000630
      f-1     :     0.000630
      f+2     :     0.000461
      f-2     :     0.000816
      f+3     :     0.002075
      f-3     :     0.001171

 20 C s       :     3.104700  s :     3.104700
      pz      :     0.962160  p :     2.482134
      px      :     0.748978
      py      :     0.770996
      dz2     :     0.003196  d :     0.151777
      dxz     :     0.034941
      dyz     :     0.027530
      dx2y2   :     0.040630
      dxy     :     0.045481
      f0      :     0.002248  f :     0.014449
      f+1     :     0.001052
      f-1     :     0.000905
      f+2     :     0.001685
      f-2     :     0.001181
      f+3     :     0.003300
      f-3     :     0.004078

 21 C s       :     3.106316  s :     3.106316
      pz      :     0.958866  p :     2.483046
      px      :     0.792446
      py      :     0.731735
      dz2     :     0.003119  d :     0.152035
      dxz     :     0.027061
      dyz     :     0.035539
      dx2y2   :     0.040007
      dxy     :     0.046309
      f0      :     0.002246  f :     0.014458
      f+1     :     0.000857
      f-1     :     0.001104
      f+2     :     0.002269
      f-2     :     0.000605
      f+3     :     0.005314
      f-3     :     0.002065

 22 C s       :     3.275432  s :     3.275432
      pz      :     1.020179  p :     2.888685
      px      :     0.945987
      py      :     0.922519
      dz2     :     0.004869  d :     0.083693
      dxz     :     0.007051
      dyz     :     0.023709
      dx2y2   :     0.028361
      dxy     :     0.019702
      f0      :     0.001541  f :     0.007844
      f+1     :     0.000848
      f-1     :     0.000511
      f+2     :     0.000064
      f-2     :     0.001403
      f+3     :     0.001236
      f-3     :     0.002241

 23 C s       :     3.275964  s :     3.275964
      pz      :     1.021014  p :     2.888659
      px      :     0.913304
      py      :     0.954341
      dz2     :     0.004839  d :     0.083620
      dxz     :     0.021517
      dyz     :     0.009172
      dx2y2   :     0.029905
      dxy     :     0.018187
      f0      :     0.001544  f :     0.007843
      f+1     :     0.000543
      f-1     :     0.000813
      f+2     :     0.000479
      f-2     :     0.000988
      f+3     :     0.001561
      f-3     :     0.001914

 24 H s       :     0.850977  s :     0.850977
      pz      :     0.011195  p :     0.021994
      px      :     0.004224
      py      :     0.006575

 25 H s       :     0.842759  s :     0.842759
      pz      :     0.008332  p :     0.021802
      px      :     0.004347
      py      :     0.009123

 26 H s       :     0.851737  s :     0.851737
      pz      :     0.010574  p :     0.021977
      px      :     0.007303
      py      :     0.004100

 27 H s       :     0.841426  s :     0.841426
      pz      :     0.008967  p :     0.021806
      px      :     0.008694
      py      :     0.004145

 28 H s       :     0.826659  s :     0.826659
      pz      :     0.005761  p :     0.022980
      px      :     0.003486
      py      :     0.013733

 29 H s       :     0.826852  s :     0.826852
      pz      :     0.005760  p :     0.022983
      px      :     0.013686
      py      :     0.003537

 30 H s       :     0.822139  s :     0.822139
      pz      :     0.004775  p :     0.022083
      px      :     0.003494
      py      :     0.013813

 31 H s       :     0.821900  s :     0.821900
      pz      :     0.004771  p :     0.022069
      px      :     0.013179
      py      :     0.004119

 32 H s       :     0.819277  s :     0.819277
      pz      :     0.004430  p :     0.021874
      px      :     0.013233
      py      :     0.004210

 33 H s       :     0.818976  s :     0.818976
      pz      :     0.004429  p :     0.021866
      px      :     0.003556
      py      :     0.013881

 34 H s       :     0.815120  s :     0.815120
      pz      :     0.004658  p :     0.022308
      px      :     0.014035
      py      :     0.003615

 35 H s       :     0.815025  s :     0.815025
      pz      :     0.004679  p :     0.022319
      px      :     0.003593
      py      :     0.014047

 36 H s       :     0.824896  s :     0.824896
      pz      :     0.004739  p :     0.022041
      px      :     0.013766
      py      :     0.003536

 37 H s       :     0.824950  s :     0.824950
      pz      :     0.004753  p :     0.022044
      px      :     0.004162
      py      :     0.013130

 38 Mgs       :     4.473559  s :     4.473559
      pz      :     2.186518  p :     6.535130
      px      :     2.174201
      py      :     2.174411
      dz2     :     0.039392  d :     0.295834
      dxz     :     0.035391
      dyz     :     0.034708
      dx2y2   :     0.029203
      dxy     :     0.157141

 39 N s       :     3.654478  s :     3.654478
      pz      :     1.313150  p :     3.600734
      px      :     1.167259
      py      :     1.120326
      dz2     :     0.012489  d :     0.063706
      dxz     :     0.012466
      dyz     :     0.014618
      dx2y2   :     0.016334
      dxy     :     0.007799
      f0      :     0.000289  f :     0.003972
      f+1     :     0.000467
      f-1     :     0.000628
      f+2     :     0.000868
      f-2     :     0.000603
      f+3     :     0.000487
      f-3     :     0.000631

 40 C s       :     3.143350  s :     3.143350
      pz      :     0.756193  p :     2.644720
      px      :     0.943772
      py      :     0.944755
      dz2     :     0.041023  d :     0.134999
      dxz     :     0.034585
      dyz     :     0.032705
      dx2y2   :     0.015844
      dxy     :     0.010843
      f0      :     0.002083  f :     0.015425
      f+1     :     0.003105
      f-1     :     0.003555
      f+2     :     0.001775
      f-2     :     0.001645
      f+3     :     0.001519
      f-3     :     0.001743

 41 N s       :     3.459266  s :     3.459266
      pz      :     1.108629  p :     3.698873
      px      :     1.332419
      py      :     1.257826
      dz2     :     0.013339  d :     0.069466
      dxz     :     0.015363
      dyz     :     0.018499
      dx2y2   :     0.014355
      dxy     :     0.007910
      f0      :     0.000860  f :     0.004886
      f+1     :     0.000874
      f-1     :     0.000885
      f+2     :     0.000059
      f-2     :     0.000750
      f+3     :     0.000663
      f-3     :     0.000795

 42 C s       :     3.205503  s :     3.205503
      pz      :     1.002287  p :     2.804218
      px      :     0.931373
      py      :     0.870558
      dz2     :     0.021696  d :     0.094094
      dxz     :     0.017112
      dyz     :     0.019344
      dx2y2   :     0.025322
      dxy     :     0.010619
      f0      :     0.002059  f :     0.011147
      f+1     :     0.001803
      f-1     :     0.001738
      f+2     :     0.000270
      f-2     :     0.001421
      f+3     :     0.001592
      f-3     :     0.002264

 43 C s       :     3.173490  s :     3.173490
      pz      :     0.872206  p :     2.833798
      px      :     0.990442
      py      :     0.971150
      dz2     :     0.030094  d :     0.108032
      dxz     :     0.026268
      dyz     :     0.026376
      dx2y2   :     0.012661
      dxy     :     0.012633
      f0      :     0.001391  f :     0.011531
      f+1     :     0.001843
      f-1     :     0.002092
      f+2     :     0.001717
      f-2     :     0.001859
      f+3     :     0.001328
      f-3     :     0.001300

 44 H s       :     0.759712  s :     0.759712
      pz      :     0.004019  p :     0.021330
      px      :     0.007789
      py      :     0.009521

 45 H s       :     0.778950  s :     0.778950
      pz      :     0.011431  p :     0.021487
      px      :     0.005010
      py      :     0.005046

 46 H s       :     0.785995  s :     0.785995
      pz      :     0.004374  p :     0.021936
      px      :     0.007890
      py      :     0.009672

 47 H s       :     0.662210  s :     0.662210
      pz      :     0.014190  p :     0.035815
      px      :     0.010603
      py      :     0.011021



                     *******************************
[...]
  0-1A  -> 16-1A    5.537177   44660.4   223.9   0.107989700   0.03296   0.11088  -0.14374   0.00246
  0-1A  -> 17-1A    5.585668   45051.5   222.0   0.008697417   0.00268   0.03905  -0.02236  -0.02556
  0-1A  -> 18-1A    5.731540   46228.0   216.3   0.004380927   0.00138  -0.00693  -0.00715   0.03585
  0-1A  -> 19-1A    5.747844   46359.5   215.7   0.001779794   0.00056  -0.01631  -0.01227  -0.01213
  0-1A  -> 20-1A    5.859031   47256.3   211.6   0.084391418   0.02726   0.10265  -0.12928   0.00229
  0-1A  -> 21-1A    5.891341   47516.9   210.5   0.014653875   0.00476  -0.02596   0.06264   0.01270
  0-1A  -> 22-1A    5.969783   48149.6   207.7   0.060721559   0.01998  -0.08900   0.10978   0.00314
  0-1A  -> 23-1A    6.081056   49047.0   203.9   0.000388850   0.00013   0.00890  -0.00670  -0.00252
  0-1A  -> 24-1A    6.099049   49192.2   203.3   0.010850295   0.00365  -0.02850   0.05239   0.00954
  0-1A  -> 25-1A    6.119908   49360.4   202.6   0.005220520   0.00176   0.03635  -0.02007   0.00611
  0-1A  -> 26-1A    6.172170   49781.9   200.9   0.001348954   0.00046   0.01669  -0.00061  -0.01342
  0-1A  -> 27-1A    6.251680   50423.2   198.3   0.000636827   0.00022   0.00073   0.01476   0.00099
  0-1A  -> 28-1A    6.300596   50817.7   196.8   0.001927804   0.00067  -0.00670   0.00216  -0.02490
  0-1A  -> 29-1A    6.356229   51266.4   195.1   0.017012982   0.00596  -0.06417  -0.03542   0.02425
  0-1A  -> 30-1A    6.470659   52189.4   191.6   0.032578962   0.01162  -0.05656   0.09177   0.00020

------------------------------------------------------------------------------------------
                     CD SPECTRUM VIA TRANSITION ELECTRIC DIPOLE MOMENTS    
------------------------------------------------------------------------------------------
     Transition      Energy     Energy  Wavelength    R        MX        MY        MZ   
                      (eV)      (cm-1)    (nm)   (1e40*cgs)   (au)      (au)      (au)  
------------------------------------------------------------------------------------------
  0-1A  ->  1-1A    2.096293   16907.7   591.4    2.21462  -0.06063  -0.06426   1.06346
  0-1A  ->  2-1A    2.572566   20749.1   481.9   -0.71321  -0.02230   0.03134  -0.00430
  0-1A  ->  3-1A    3.361728   27114.2   368.8  -20.09356   0.19044  -0.25877   0.00608
  0-1A  ->  4-1A    3.610629   29121.7   343.4    4.62164   0.29059   0.23000   0.09119
  0-1A  ->  5-1A    4.176725   33687.6   296.8   -3.61200   0.04503   0.00979   0.77488
  0-1A  ->  6-1A    4.274447   34475.7   290.1   -1.36420  -0.06677   0.09415   0.02063
  0-1A  ->  7-1A    4.717981   38053.1   262.8   -5.27727  -0.05643   0.09439  -0.02804
  0-1A  ->  8-1A    4.830554   38961.0   256.7    6.09242   0.17219  -0.22536  -0.03259
  0-1A  ->  9-1A    4.942801   39866.4   250.8    3.97501   0.11906   0.10535  -0.45283
  0-1A  -> 10-1A    5.217367   42080.9   237.6   13.52468  -0.06326  -0.04096  -0.72465
  0-1A  -> 11-1A    5.249268   42338.2   236.2    4.41362   0.06143  -0.00296   0.04798
  0-1A  -> 12-1A    5.265073   42465.7   235.5   -4.65485   0.15604   0.13580   0.19153
  0-1A  -> 13-1A    5.355282   43193.3   231.5   -2.05132  -0.04265  -0.02026  -0.08036
  0-1A  -> 14-1A    5.388011   43457.2   230.1   -1.65098   0.02220   0.02475  -0.26091
  0-1A  -> 15-1A    5.498049   44344.8   225.5   -0.66467   0.05012  -0.07072   0.00212
  0-1A  -> 16-1A    5.537177   44660.4   223.9    2.13657  -0.12840  -0.11358  -0.48200
  0-1A  -> 17-1A    5.585668   45051.5   222.0   -2.06607  -0.07271   0.02992  -0.10514
  0-1A  -> 18-1A    5.731540   46228.0   216.3   -0.99370  -0.01608   0.03356  -0.00938
  0-1A  -> 19-1A    5.747844   46359.5   215.7    0.30723  -0.01272  -0.00166   0.00734
  0-1A  -> 20-1A    5.859031   47256.3   211.6   -2.99076  -0.01868   0.00206   0.33628
  0-1A  -> 21-1A    5.891341   47516.9   210.5    9.08351   0.05076   0.10459  -0.08243
  0-1A  -> 22-1A    5.969783   48149.6   207.7    0.79236   0.12166   0.10756  -0.19891
  0-1A  -> 23-1A    6.081056   49047.0   203.9   -0.94036  -0.03849  -0.01453   0.07784
  0-1A  -> 24-1A    6.099049   49192.2   203.3    3.76774   0.03703   0.02986   0.13313
  0-1A  -> 25-1A    6.119908   49360.4   202.6   -0.59770  -0.02254  -0.04387  -0.05078
  0-1A  -> 26-1A    6.172170   49781.9   200.9   -2.81481  -0.10909   0.02815  -0.03578
  0-1A  -> 27-1A    6.251680   50423.2   198.3    0.86721   0.07427   0.02409   0.01246
  0-1A  -> 28-1A    6.300596   50817.7   196.8    3.05737  -0.12941   0.18215  -0.01121
  0-1A  -> 29-1A    6.356229   51266.4   195.1   -4.54641   0.04661   0.00421   0.03346
  0-1A  -> 30-1A    6.470659   52189.4   191.6   -2.33720   0.10302   0.05101   0.31333

------------------------------------------------------------------------------------------
                     CD SPECTRUM VIA TRANSITION VELOCITY DIPOLE MOMENTS    
------------------------------------------------------------------------------------------
     Transition      Energy     Energy  Wavelength    R        MX        MY        MZ   
                      (eV)      (cm-1)    (nm)   (1e40*cgs)   (au)      (au)      (au)  
------------------------------------------------------------------------------------------
  0-1A  ->  1-1A    2.096293   16907.7   591.4    2.57664  -0.06063  -0.06426   1.06346
  0-1A  ->  2-1A    2.572566   20749.1   481.9   -0.70579  -0.02230   0.03134  -0.00430
  0-1A  ->  3-1A    3.361728   27114.2   368.8  -19.99882   0.19044  -0.25877   0.00608
  0-1A  ->  4-1A    3.610629   29121.7   343.4    4.59414   0.29059   0.23000   0.09119
  0-1A  ->  5-1A    4.176725   33687.6   296.8   -3.67373   0.04503   0.00979   0.77488
  0-1A  ->  6-1A    4.274447   34475.7   290.1   -1.34339  -0.06677   0.09415   0.02063
  0-1A  ->  7-1A    4.717981   38053.1   262.8   -5.30339  -0.05643   0.09439  -0.02804
  0-1A  ->  8-1A    4.830554   38961.0   256.7    6.08848   0.17219  -0.22536  -0.03259
  0-1A  ->  9-1A    4.942801   39866.4   250.8    3.98964   0.11906   0.10535  -0.45283
  0-1A  -> 10-1A    5.217367   42080.9   237.6   13.79169  -0.06326  -0.04096  -0.72465
  0-1A  -> 11-1A    5.249268   42338.2   236.2    4.61616   0.06143  -0.00296   0.04798
  0-1A  -> 12-1A    5.265073   42465.7   235.5   -4.87934   0.15604   0.13580   0.19153
  0-1A  -> 13-1A    5.355282   43193.3   231.5   -2.08348  -0.04265  -0.02026  -0.08036
  0-1A  -> 14-1A    5.388011   43457.2   230.1   -1.68443   0.02220   0.02475  -0.26091
  0-1A  -> 15-1A    5.498049   44344.8   225.5   -0.65372   0.05012  -0.07072   0.00212
  0-1A  -> 16-1A    5.537177   44660.4   223.9    2.08952  -0.12840  -0.11358  -0.48200
  0-1A  -> 17-1A    5.585668   45051.5   222.0   -1.88442  -0.07271   0.02992  -0.10514
  0-1A  -> 18-1A    5.731540   46228.0   216.3   -1.04064  -0.01608   0.03356  -0.00938
  0-1A  -> 19-1A    5.747844   46359.5   215.7    0.30987  -0.01272  -0.00166   0.00734
  0-1A  -> 20-1A    5.859031   47256.3   211.6   -3.09498  -0.01868   0.00206   0.33628
  0-1A  -> 21-1A    5.891341   47516.9   210.5    9.11636   0.05076   0.10459  -0.08243
  0-1A  -> 22-1A    5.969783   48149.6   207.7    0.76672   0.12166   0.10756  -0.19891
  0-1A  -> 23-1A    6.081056   49047.0   203.9   -0.93031  -0.03849  -0.01453   0.07784
  0-1A  -> 24-1A    6.099049   49192.2   203.3    3.74301   0.03703   0.02986   0.13313
  0-1A  -> 25-1A    6.119908   49360.4   202.6   -0.52216  -0.02254  -0.04387  -0.05078
  0-1A  -> 26-1A    6.172170   49781.9   200.9   -2.82271  -0.10909   0.02815  -0.03578
  0-1A  -> 27-1A    6.251680   50423.2   198.3    0.86648   0.07427   0.02409   0.01246
  0-1A  -> 28-1A    6.300596   50817.7   196.8    3.13454  -0.12941   0.18215  -0.01121
  0-1A  -> 29-1A    6.356229   51266.4   195.1   -4.70086   0.04661   0.00421   0.03346
  0-1A  -> 30-1A    6.470659   52189.4   191.6   -2.14506   0.10302   0.05101   0.31333

Total run time:     7619.493 sec

           *** ORCA-CIS/TD-DFT FINISHED WITHOUT ERROR ***
-----------------------
CIS/TD-DFT TOTAL ENERGY
-----------------------

    E(SCF)  =  -1416.111370367 Eh
    DE(CIS) =      0.077037354 Eh (Root  1)
    ----------------------------- ---------
    E(tot)  =  -1416.034333013 Eh


Maximum memory used throughout the entire CIS-calculation: 2665.4 MB
=> NOW LEAVING ORCA_CIS


-------------------------------------------------------------------------------
                          DFT DISPERSION CORRECTION                            
                                                                               
                              DFTD3 V3.1  Rev 1                                
                              USING zero damping                               
-------------------------------------------------------------------------------
The omegaB97X-D3 functional is recognized. Fit by Chai et al.
Active option DFTDOPT                   ...         3   

molecular C6(AA) [au] = 31650.307943 


            DFT-D V3
 parameters
 s6 scaling factor         :     1.0000 
 rs6 scaling factor        :     1.2810 
 s8 scaling factor         :     1.0000 
 rs8 scaling factor        :     1.0940 
 Damping factor alpha6     :    14.0000 
 Damping factor alpha8     :    16.0000 
 ad hoc parameters k1-k3   :    16.0000     1.3333    -4.0000 

 Edisp/kcal,au: -17.710783650242  -0.028223927276 
 E6   /kcal   :  -8.341038279 
 E8   /kcal   :  -9.369745371 
 % E8         :  52.904182878 

-------------------------   ----------------
Dispersion correction           -0.028223927
-------------------------   ----------------


-------------------------   --------------------
FINAL SINGLE POINT ENERGY     -1416.062556939915
-------------------------   --------------------



           ************************************************************
           *        Program running with 4 parallel MPI-processes     *
           *              working on a common directory               *
           ************************************************************

------------------------------------------------------------------------------
                              ORCA PROPERTY CALCULATIONS
------------------------------------------------------------------------------

GBWName                                 ... tddft.gbw
Number of atoms                         ...     48
Number of basis functions               ...   1039
Max core memory                         ...   3000 MB

Electric properties:
Dipole moment                           ... YES
Quadrupole moment                       ...  NO
Static polarizability (Dipole/Dipole)   ...  NO
Static polarizability (Dipole/Quad.)    ...  NO
Static polarizability (Quad./Quad.)     ...  NO
Static polarizability (Velocity)        ...  NO
Static hyperpolarizability              ...  NO

Atomic electric properties:
Dipole moment                           ...  NO
Quadrupole moment                       ...  NO
Static polarizability                   ...  NO

Choice of electric origin               ... Center of mass
Position of electric origin             ...     0.103281     0.078834     1.097617

General magnetic properties:
Magnetizability                         ...  NO

EPR properties:
g-Tensor (aka g-matrix)                 ...  NO
Zero-Field splitting spin-orbit         ...  NO
Zero-field splitting spin-spin          ...  NO
Hyperfine couplings                     ...  NO (   0 nuclei)
Quadrupole couplings                    ...  NO (   0 nuclei)
Contact density                         ...  NO (   0 nuclei)

NMR properties:
Chemical shifts                         ...  NO (   0 nuclei)
Spin-rotation constants                 ...  NO (   0 nuclei)
Spin-spin couplings                     ...  NO (   0 nuclei,    0 pairs)

Choice of magnetic origin               ... GIAO
Position of magnetic origin             ...     0.000000     0.000000     0.000000

Properties with geometric perturbations:
SCF Hessian                             ...  NO
IR spectrum                             ...  NO
VCD spectrum                            ...  NO
X-ray spectroscopy properties:
SCF XES/XAS/RIXS spectra                ...  NO

SCF SOC stabilization energy            ...  NO
Diagonal Born-Oppenheimer correction    ...  NO

-------------
DIPOLE MOMENT
-------------

Method             : SCF
Type of density    : Electron Density
Multiplicity       :   1
Irrep              :   0
Energy             : -1416.1113703667897425 Eh
Basis              : AO
                                X                 Y                 Z
Electronic contribution:     -5.746730134      -3.819673224      -1.292704992
Nuclear contribution   :      6.342772600       5.187774044       4.341567363
                        -----------------------------------------
Total Dipole Moment    :      0.596042466       1.368100820       3.048862371
                        -----------------------------------------
Magnitude (a.u.)       :      3.394484973
Magnitude (Debye)      :      8.628095115



--------------------
Rotational spectrum 
--------------------
 
Rotational constants in cm-1:             0.006132             0.006084             0.004304 
Rotational constants in MHz :           183.841401           182.386496           129.043387 

Dipole components along the rotational axes: 
x,y,z [a.u.] :     1.229154     0.870223     3.042108 
x,y,z [Debye]:     3.124261     2.211931     7.732424 

 

Dipole moment calculation done in   0.0 sec 

Maximum memory used throughout the entire PROP-calculation: 125.1 MB

--------------------------------
SUGGESTED CITATIONS FOR THIS RUN
--------------------------------

Below you find a list of papers that are relevant to this ORCA run
We neither can nor want to force you to cite these papers, but we appreciate if you do
You receive ORCA, which is the product of decades of hard work by many enthusiastic individuals, for free
The only thing we kindly ask in return is that you cite our papers,
We deeply appreciate it, if you show your appreciation for ORCA by not just citing the generic ORCA reference.

Please note that relegating all ORCA citations to the supporting information does *not* help us.
SI sections are not indexed - citations you put there will not count into any citation statistics
But we need these citations in order to attract the funding resources that allow us to do what we are doing

Therefore, if you are a happy ORCA user, please consider citing a few of the papers listed below in the main body of your paper

In addition to the list printed below, the program has created the file tddft.bibtex that contains the list in bibtex format
You can import this file easily into all common literature databanks and citation aid programs

It goes without saying that in many instances, there are alternative algorithms to achieve similar
results as the ones you have gotten from ORCA. It is, of course, also the case that in some instances
ORCA just re-implements algorithms worked out by others. We are fully aware of that and we are also
fully appreciative of our colleagues work. Hence this citation list should not be read as indicating
that the listed papers, which are focused on our own work, are the only ones worth citing. It simply
meant to make it easier for users to cite ORCA specific papers. It is not a substitute for doing your
own literature research and citing the relevant literature in a scientifically appropriate manner.

List of essential papers. We consider these as the minimum necessary citations

  1. Neese, F.
     Software update: the ORCA program system, version 6.0
     WIRES Comput. Molec. Sci. 2025 15(1), e70019
     doi.org/10.1002/wcms.70019

List of papers to cite with high priority. The work reported in these papers was absolutely
necessary for this run to complete.
Our perspective: the developers of density functionals and basis sets usually get cited in chemistry papers
Good! But without the algorithms to do something with them, the functionals or basis sets would not do anything.
Hence, in our opinion, the algorithm design and method developments papers are equally worthy of getting cited

  1. Neese, F.; Olbrich, G.
     Efficient use of the resolution of the identity approximation in time-dependent density functional calculations with hybrid density functionals
     Chem. Phys. Lett. 2002 362 , 170-178
     doi.org/10.1016/s0009-2614(02)01053-9
  2. Neese, F.
     An improvement of the resolution of the identity approximation for the formation of the Coulomb matrix
     J. Comp. Chem. 2003 24(14), 1740-1747
     doi.org/10.1002/jcc.10318
  3. Neese, F.; Wennmohs, F.; Hansen, A.; Becker, U.
     Efficient, approximate and parallel Hartree-Fock and hybrid DFT calculations. A 'chain-of-spheres' algorithm for the Hartree-Fock exchange
     Chem. Phys. 2009 356(1-3), 98-109
     doi.org/10.1016/j.chemphys.2008.10.036
  4. Grimme, S.; Antony, J.; Ehrlich, S.; Krieg, H.
     A consistent and accurate ab initio parametrization of density functional dispersion correction (DFT-D) for the 94 elements H-Pu
     J. Chem. Phys. 2010 132 , 154104
     doi.org/10.1063/1.3382344
  5. Garcia-Rates, M.; Neese, F.
     Effect of the Solute Cavity on the Solvation Energy and its Derivatives within the Framework of the Gaussian Charge Scheme
     J. Comput. Chem. 2020 41 , 922-939
     doi.org/10.1002/jcc.26139
  6. Helmich-Paris, B.; de Souza, B.; Neese, F.; Izsák, R.
     An improved chain of spheres for exchange algorithm
     J. Chem. Phys. 2021 155(10), 104109
     doi.org/10.1063/5.0058766
  7. Neese, F.
     The SHARK Integral Generation and Digestion System
     J. Comp. Chem. 2022 44(3), 381
     doi.org/10.1002/jcc.26942

List of suggested additional citations. These are papers that are important in the 'surrounding' of 
of this run, or papers that preceded the highly important papers. If you like your results we are grateful for a citation.

  1. Izsak, R.; Neese, F.
     An overlap fitted chain of spheres exchange method
     J. Chem. Phys. 2011 135 , 144105
     doi.org/10.1063/1.3646921
  2. Izsak, R.; Hansen, A.; Neese, F.
     The resolution of identity and chain of spheres approximations for the LPNO-CCSD singles Fock term
     Molec. Phys. 2012 110 , 2413-2417
     doi.org/10.1080/00268976.2012.687466
  3. Neese, F.
     The ORCA program system
     WIRES Comput. Molec. Sci. 2012 2(1), 73-78
     doi.org/10.1002/wcms.81
  4. Izsak, R.; Neese, F.; Klopper, W.
     Robust fitting techniques in the chain of spheres approximation to the Fock exchange: The role of the complementary space
     J. Chem. Phys. 2013 139 , 
     doi.org/10.1063/1.4819264
  5. Neese, F.
     Software update: the ORCA program system, version 4.0
     WIRES Comput. Molec. Sci. 2018 8(1), 1-6
     doi.org/10.1002/wcms.1327
  6. Neese, F.; Wennmohs, F.; Becker, U.; Riplinger, C.
     The ORCA quantum chemistry program package
     J. Chem. Phys. 2020 152(22), 224108
     doi.org/10.1063/5.0004608
  7. Neese, F.
     Software update: The ORCA program system—Version 5.0
     WIRES Comput. Molec. Sci. 2022 12(1), e1606
     doi.org/10.1002/wcms.1606

List of optional additional citations

  1. Neese, F.
     Approximate second-order SCF convergence for spin unrestricted wavefunctions
     Chem. Phys. Lett. 2000 325(1-3), 93-98
     doi.org/10.1016/s0009-2614(00)00662-x

Timings for individual modules:

Sum of individual times          ...    11131.106 sec (= 185.518 min)
Startup calculation              ...       45.358 sec (=   0.756 min)   0.4 %
SCF iterations                   ...     3463.685 sec (=  57.728 min)  31.1 %
Property integrals               ...        1.538 sec (=   0.026 min)   0.0 %
Property calculations            ...        0.602 sec (=   0.010 min)   0.0 %
CIS module                       ...     7619.922 sec (= 126.999 min)  68.5 %
                             ****ORCA TERMINATED NORMALLY****
TOTAL RUN TIME: 0 days 3 hours 5 minutes 31 seconds 565 msec
