
                                 *****************
                                 * O   R   C   A *
                                 *****************

                                            #,                                       
                                            ###                                      
                                            ####                                     
                                            #####                                    
                                            ######                                   
                                           ########,                                 
                                     ,,################,,,,,                         
                               ,,#################################,,                 
                          ,,##########################################,,             
                       ,#########################################, ''#####,          
                    ,#############################################,,   '####,        
                  ,##################################################,,,,####,       
                ,###########''''           ''''###############################       
              ,#####''   ,,,,##########,,,,          '''####'''          '####       
            ,##' ,,,,###########################,,,                        '##       
           ' ,,###''''                  '''############,,,                           
         ,,##''                                '''############,,,,        ,,,,,,###''
      ,#''                                            '''#######################'''  
     '                                                          ''''####''''         
             ,#######,   #######,   ,#######,      ##                                
            ,#'     '#,  ##    ##  ,#'     '#,    #''#        ,####,    ,#,          
            ##       ##  ##   ,#'  ##            #'  '#       #'       ,# #          
            ##       ##  #######   ##           ,######,      #####,      #          
            '#,     ,#'  ##    ##  '#,     ,#' ,#      #,     #,   #      #          
             '#######'   ##     ##  '#######'  #'      '#     '####' #    #          



                #########################################################
                #                        -***-                          #
                #          Department of theory and spectroscopy        #
                #                                                       #
                #                      Frank Neese                      #
                #                                                       #
                #     Directorship, Architecture, Infrastructure        #
                #                    SHARK, DRIVERS                     #
                #        Core code/Algorithms in most modules           #
                #                                                       #
                #        Max Planck Institute fuer Kohlenforschung      #
                #                Kaiser Wilhelm Platz 1                 #
                #                 D-45470 Muelheim/Ruhr                 #
                #                      Germany                          #
                #                                                       #
                #                  All rights reserved                  #
                #                        -***-                          #
                #########################################################


                         Program Version 6.1.1  -  RELEASE   -
                                (GIT: $487d211c$)
                          ($2025-11-21 10:33:24 +0100$)


 With contributions from (in alphabetic order):
[Max-Planck-Institut fuer Kohlenforschung]                               
  Daniel Aravena         : Magnetic Suceptibility                        
  Michael Atanasov       : Ab Initio Ligand Field Theory (pilot matlab implementation)
  Alexander A. Auer      : GIAO ZORA, VPT2 properties, NMR spectrum      
  Ute Becker             : All parallelization in ORCA, NUMFREQ, NUMCALC 
  Giovanni Bistoni       : ED, misc. LED, open-shell LED, HFLD           
  Dmytro Bykov           : pre 5.0 version of the SCF Hessian            
  Marcos Casanova-Páez   : Triplet and SCS-CIS(D). UHF-(DLPNO)-IP/EA/STEOM-CCSD. UHF-CVS-IP/STEOM-CCSD   
  Vijay G. Chilkuri      : MRCI spin determinant printing, contributions to CSF-ICE 
  Pauline Colinet        : FMM embedding                                 
  Dipayan Datta          : RHF DLPNO-CCSD density                        
  Achintya Kumar Dutta   : EOM-CC, STEOM-CC                              
  Nicolas Foglia         : Exact transition moments, OPA infrastructure, MCD improvements    
  Dmitry Ganyushin       : Spin-Orbit,Spin-Spin,Magnetic field MRCI      
  Miquel Garcia-Rates    : C-PCM and meta-GGA Hessian, CCSD/C-PCM, Gaussian charge scheme 
  Tiago L. C. Gouveia    : GS-ROHF, GS-ROCIS                             
  Yang Guo               : DLPNO-NEVPT2, F12-NEVPT2, CIM, IAO-localization        
  Andreas Hansen         : Spin unrestricted coupled pair/coupled cluster methods 
  Ingolf Harden          : AUTO-CI MPn and infrastructure                
  Benjamin Helmich-Paris : MC-RPA, TRAH-(SCF,CASSCF), AVAS, COSX integrals, SCF dyn. polar., MC-PDFT, srDFT 
  Lee Huntington         : MR-EOM, pCC                                   
  Robert Izsak           : Overlap fitted RIJCOSX, COSX-SCS-MP3, EOM     
  Riya Kayal             : Wick's Theorem for AUTO-CI, AUTO-CI UHF-CCSDT 
  Emily Kempfer          : AUTO-CI RHF CISDT and CCSDT, approximate NEVPT4
  Christian Kollmar      : KDIIS, OOCD, Brueckner-CCSD(T), CCSD density, CASPT2, CASPT2-K, improved NEVPT2 
  Axel Koslowski         : Symmetry handling                             
  Simone Kossmann        : meta-GGA functionals, TD-DFT gradient, OOMP2, (MP2 Hessian; deprecated post 5.0) 
  Lucas Lang             : DCDCAS, Hyperfine gauge corrections, ICE-SOC+SSC
  Marvin Lechner         : AUTO-CI (C++ implementation), FIC-MRCC        
  Spencer Leger          : CASSCF response                               
  Dagmar Lenk            : GEPOL surface, SMD, ORCA-2-JSON               
  Dimitrios Liakos       : Extrapolation schemes; Compound Job, Property file
  Dimitrios Manganas     : Further ROCIS development; embedding schemes. LFT, Crystal Embedding 
  Dimitrios Pantazis     : SARC Basis sets                               
  Anastasios Papadopoulos: AUTO-CI, single reference methods and gradients 
  Taras Petrenko         : pre 6.0 DFT Hessian and TD-DFT gradient,  ECA, NRVS 
  Petra Pikulova         : Analytic Raman intensities                    
  Peter Pinski           : DLPNO-MP2, DLPNO-MP2 Gradient                 
  Shashank Vittal Rao    : ES-AILFT, MagRelax                            
  Christoph Reimann      : Effective Core Potentials                     
  Marius Retegan         : Local ZFS, SOC                                
  Christoph Riplinger    : Optimizer, TS searches, QM/MM, DLPNO-CCSD(T), (RO)-DLPNO pert. Triples 
  Michael Roemelt        : Original ROCIS implementation, recursive CI coupling coefficients
  Masaaki Saitow         : Open-shell DLPNO-CCSD energy and density      
  Barbara Sandhoefer     : DKH picture change effects                    
  Yorick L. A. Schmerwitz: GMF and freeze-and-release deltaSCF, NEB S-IDPP initial path                    
  Kantharuban Sivalingam : CASSCF convergence/infrastructure, NEVPT2, NEVPT3, NEVPT4(SD), FIC-MRCI and CEPA variants
  Bernardo de Souza      : ESD, SOC TD-DFT                               
  Georgi L. Stoychev     : AutoAux, RI-MP2 NMR, DLPNO-MP2 response, X2C  
  Van Anh Tran           : RI-MP2 g-tensors                              
  Willem Van den Heuvel  : Paramagnetic NMR                              
  Zikuan Wang            : NOTCH, Electric field optimization            
  Frank Wennmohs         : Technical directorship and infrastructure     
  Hang Xu                : AUTO-CI-Response properties                   
                                                                         
[FACCTs GmbH]                                                            
  Markus Bursch, Nicolas Foglia, Miquel Garcia-Rates, Ingolf Harden, Hagen Neugebauer, Anastasios Papadopoulos, 
  Christoph Riplinger, Bernardo de Souza, Georgi L. Stoychev                                                    
                                                                 
  APM, various basis sets, CI-OPT, improved COSX, DLPNO-Multilevel,           
  DOCKER, DRACO, updates on ESD, Fragmentator, GOAT, IRC, LR-CPCM, L-BFGS, MBIS, meta-GGA TD-DFT gradient, ML-optimized integration grids, 
  MM, NACMEs, nearIR, NEB, NEB-TS, NL-DFT gradient (VV10), 2- and 3-layer-ONIOM, interface openCOSMO-RS, QMMM,   
  Crystal-QMMM, RESP, rigid body optimization, SF, symmetry and pop. for TD-DFT, various functionals, SOLVATOR                                   
                                                                         
[Other institutions]                                                     
  V. Asgeirsson          : NEB                                           
  Christoph Bannwarth    : sTDA-DFT, sTD-DFT, PBEh-3c, B97-3c, D3        
  Giovanni Bistoni       : ETS/NOCV, ADLD/ADEX, COVALED                  
  Martin Brehm           : Molecular dynamics                            
  Ronald Cardenas        : ETS/NOCV                                      
  Martina Colucci        : COVALED                                       
  Sebastian Ehlert       : rSCAN, r2SCAN, r2SCAN-3c, D4, dhf basis sets  
  Marvin Friede          : D4 for Fr, Ra, Ac-Lr                          
  Lars Goerigk           : TD-DFT with DH, B97 family of functionals     
  Stefan Grimme          : VdW corrections, initial TS optimization, DFT functionals, gCP, sTDA/sTD-DF 
  Waldemar Hujo          : DFT-NL                                        
  H. Jonsson             : NEB                                           
  Holger Kruse           : gCP                                           
  Marcel Mueller         : wB97X-3c, vDZP basis set                      
  Hagen Neugebauer       : wr2SCAN, Native XTB                           
  Gianluca Regni         : ADLD/ADEX                                     
  Tobias Risthaus        : pre 6.0 range-separated hybrid DFT and stability analysis
  Lukas Wittmann         : regularized MP2, r2SCAN double-hybrids, wr2SCAN        
                                                                         
We gratefully acknowledge several colleagues who have allowed us to      
interface, adapt or use parts of their codes:                            
  Ed Valeev, F. Pavosevic, A. Kumar             : LibInt (2-el integral package), F12 methods 
  Garnet Chan, S. Sharma, J. Yang, R. Olivares  : DMRG                   
  Ulf Ekstrom                                   : XCFun DFT Library      
  Mihaly Kallay                                 : mrcc  (arbitrary order and MRCC methods)
  Frank Weinhold                                : gennbo (NPA and NBO analysis)           
  Simon Mueller                                 : openCOSMO-RS                            
  Christopher J. Cramer and Donald G. Truhlar   : smd solvation model                     
  S Lehtola, MJT Oliveira, MAL Marques          : LibXC Library                           
  Liviu Ungur et al                             : ANISO software                          


 Your calculation uses the libint2 library for the computation of 2-el integrals
 For citations please refer to: http://libint.valeyev.net

 Your ORCA version has been built with support for libXC version: 7.0.0
 For citations please refer to: https://libxc.gitlab.io

 This ORCA versions uses:
   CBLAS   interface :  Fast vector & matrix operations
   LAPACKE interface :  Fast linear algebra routines
   SCALAPACK package :  Parallel linear algebra routines
   Shared memory     :  Shared parallel matrices
   BLAS/LAPACK       :  OpenBLAS 0.3.29  USE64BITINT DYNAMIC_ARCH NO_AFFINITY Haswell SINGLE_THREADED
        Core in use  :  Haswell
   Copyright (c) 2011-2014, The OpenBLAS Project


  ***********************************
  * Starting time: Fri Jul 10 20:11:44 2026
  * Host name:     steezy
  * Process ID:    2060540
  * Working dir.:  /home/jannes/chlorophyll-ladder/009-mgchlorin-axial-ligation/mgchlorin_meoh/03_tddft_ch2cl2/m062x
  ***********************************

NOTE: MaxCore=3000 MB was set to SCF,MP2,MDCI,CIPSI,MRCI,RASCI and CIS
      => If you want to overwrite this, your respective input block should be placed after the MaxCore statement


***************************************
The coordinates will be read from file: /home/jannes/chlorophyll-ladder/009-mgchlorin-axial-ligation/mgchlorin_meoh/01_opt/mgchlorin_meoh_opt_b3lypd4_tzvp.xyz
***************************************


XCFun DFT library Copyright 2009-2010 Ulf Ekstrom and contributors.
See http://admol.org/xcfun for more information.
This is free software; see the source code for copying conditions.
There is ABSOLUTELY NO WARRANTY; not even for MERCHANTABILITY or FITNESS FOR A PARTICULAR PURPOSE.
For details see the documentation.
Scientific users of this library should cite U. Ekstrom, L. Visscher, R. Bast, A. J. Thorvaldsen and K. Ruud;
J.Chem.Theor.Comp. 2010, DOI: 10.1021/ct100117s
XCFun Version 0.99 

================================================================================

----- Orbital basis set information -----
Your calculation utilizes the basis: def2-TZVP
   F. Weigend and R. Ahlrichs, Phys. Chem. Chem. Phys. 7, 3297 (2005).

----- AuxJ basis set information -----
Your calculation utilizes the auxiliary basis: def2/J
   H-Rn: F. Weigend, Phys. Chem. Chem. Phys. 8, 1057 (2006).
   Fr-Lr: K. Eichkorn, F. Weigend, O. Treutler, R. Ahlrichs; Theor. Chem. Acc. 97, 119 (1997).

================================================================================
                                        WARNINGS
                       Please study these warnings very carefully!
================================================================================

WARNING: Functional chosen is sensitive to the integration grid.
         DEFGRID3 seems to be a minimum grid for robust results!

WARNING: CIS/ROCIS methods need fully converged wavefunctions
  ===> : Setting SCFConvForced true
         You can overwrite this default with %scf ConvForced false 


================================================================================
                                       INPUT FILE
================================================================================
NAME = tddft.inp
|  1> %pal nprocs 4 end
|  2> %maxcore 3000
|  3> ! M062X def2-TZVP def2/J RIJCOSX DefGrid3 TightSCF CPCM(CH2Cl2)
|  4> %tddft
|  5>   nroots 30
|  6>   tda false
|  7>   triplets false
|  8> end
|  9> * xyzfile 0 1 /home/jannes/chlorophyll-ladder/009-mgchlorin-axial-ligation/mgchlorin_meoh/01_opt/mgchlorin_meoh_opt_b3lypd4_tzvp.xyz
| 10> 
| 11>                          ****END OF INPUT****
================================================================================

                       ****************************
                       * Single Point Calculation *
                       ****************************

---------------------------------
CARTESIAN COORDINATES (ANGSTROEM)
---------------------------------
  N      1.605380    1.370705    0.010756
  N     -1.325018    1.652121   -0.009627
  N      1.232028   -1.551216    0.063420
  N     -1.658017   -1.241468    0.001982
  C      2.882865    3.362718   -0.137984
  C      3.835430    2.175183    0.054140
  C      1.510200    2.720017   -0.061220
  C      2.901777    0.978823    0.042453
  C      0.341822    3.448099   -0.088705
  C      3.352821   -0.321557    0.075899
  C     -0.978230    2.959614   -0.075512
  C      2.584656   -1.500759    0.068758
  C     -2.702893    1.592937   -0.052242
  C      0.873553   -2.882351    0.037106
  C     -2.163581    3.777140   -0.148174
  C      3.124652   -2.838100    0.055537
  C     -3.229396    2.929895   -0.131545
  C      2.064313   -3.691346    0.035551
  C     -3.452298    0.428751   -0.046446
  C     -0.425333   -3.359284    0.011624
  C     -2.976729   -0.890409   -0.029923
  C     -1.607442   -2.604994   -0.009622
  C     -3.791295   -2.071024   -0.058249
  C     -2.938465   -3.138893   -0.046473
  H      3.016458    3.843771   -1.109997
  H      3.003575    4.137758    0.619912
  H      4.367227    2.225015    1.007546
  H      4.591146    2.100197   -0.728603
  H      0.446613    4.524490   -0.148554
  H      4.427241   -0.457394    0.093760
  H     -2.172689    4.854147   -0.213726
  H      4.175221   -3.084234    0.052536
  H     -4.277594    3.181690   -0.181821
  H      2.080890   -4.770156    0.012833
  H     -4.528437    0.548854   -0.081176
  H     -0.542886   -4.436085   -0.004520
  H     -4.869807   -2.084315   -0.092294
  H     -3.189762   -4.188115   -0.068441
  Mg    -0.044077    0.052629    0.240906
  O     -0.192902    0.135749    2.361822
  C     -0.323025   -1.074865    3.126259
  H     -0.244714   -0.857796    4.192747
  H     -1.268096   -1.574313    2.907546
  H      0.498049   -1.719278    2.823789
  H     -0.909876    0.743809    2.578918

----------------------------
CARTESIAN COORDINATES (A.U.)
----------------------------
  NO LB      ZA    FRAG     MASS         X           Y           Z
   0 N     7.0000    0    14.007    3.033728    2.590258    0.020325
   1 N     7.0000    0    14.007   -2.503921    3.122057   -0.018193
   2 N     7.0000    0    14.007    2.328196   -2.931374    0.119847
   3 N     7.0000    0    14.007   -3.133199   -2.346034    0.003745
   4 C     6.0000    0    12.011    5.447825    6.354616   -0.260751
   5 C     6.0000    0    12.011    7.247913    4.110499    0.102309
   6 C     6.0000    0    12.011    2.853865    5.140086   -0.115689
   7 C     6.0000    0    12.011    5.483564    1.849707    0.080224
   8 C     6.0000    0    12.011    0.645951    6.515963   -0.167628
   9 C     6.0000    0    12.011    6.335913   -0.607654    0.143428
  10 C     6.0000    0    12.011   -1.848586    5.592860   -0.142696
  11 C     6.0000    0    12.011    4.884292   -2.836024    0.129935
  12 C     6.0000    0    12.011   -5.107728    3.010214   -0.098723
  13 C     6.0000    0    12.011    1.650775   -5.446854    0.070120
  14 C     6.0000    0    12.011   -4.088575    7.137760   -0.280009
  15 C     6.0000    0    12.011    5.904736   -5.363232    0.104950
  16 C     6.0000    0    12.011   -6.102674    5.536699   -0.248583
  17 C     6.0000    0    12.011    3.900987   -6.975633    0.067182
  18 C     6.0000    0    12.011   -6.523897    0.810222   -0.087769
  19 C     6.0000    0    12.011   -0.803764   -6.348127    0.021966
  20 C     6.0000    0    12.011   -5.625203   -1.682629   -0.056546
  21 C     6.0000    0    12.011   -3.037624   -4.922724   -0.018183
  22 C     6.0000    0    12.011   -7.164509   -3.913669   -0.110074
  23 C     6.0000    0    12.011   -5.552895   -5.931648   -0.087821
  24 H     1.0000    0     1.008    5.700279    7.263675   -2.097591
  25 H     1.0000    0     1.008    5.675934    7.819230    1.171464
  26 H     1.0000    0     1.008    8.252863    4.204670    1.903986
  27 H     1.0000    0     1.008    8.676008    3.968797   -1.376860
  28 H     1.0000    0     1.008    0.843976    8.550046   -0.280727
  29 H     1.0000    0     1.008    8.366272   -0.864350    0.177180
  30 H     1.0000    0     1.008   -4.105788    9.173008   -0.403884
  31 H     1.0000    0     1.008    7.890024   -5.828357    0.099278
  32 H     1.0000    0     1.008   -8.083481    6.012524   -0.343592
  33 H     1.0000    0     1.008    3.932313   -9.014289    0.024250
  34 H     1.0000    0     1.008   -8.557505    1.037183   -0.153401
  35 H     1.0000    0     1.008   -1.025906   -8.382986   -0.008542
  36 H     1.0000    0     1.008   -9.202601   -3.938785   -0.174411
  37 H     1.0000    0     1.008   -6.027776   -7.914391   -0.129334
  38 Mg   12.0000    0    24.305   -0.083293    0.099455    0.455247
  39 O     8.0000    0    15.999   -0.364532    0.256529    4.463197
  40 C     6.0000    0    12.011   -0.610428   -2.031200    5.907773
  41 H     1.0000    0     1.008   -0.462442   -1.621000    7.923144
  42 H     1.0000    0     1.008   -2.396354   -2.975021    5.494466
  43 H     1.0000    0     1.008    0.941176   -3.248965    5.336188
  44 H     1.0000    0     1.008   -1.719416    1.405595    4.873448

--------------------------------
INTERNAL COORDINATES (ANGSTROEM)
--------------------------------
 N      0   0   0     0.000000000000     0.00000000     0.00000000
 N      1   0   0     2.943949636277     0.00000000     0.00000000
 N      1   2   0     2.946148499232    88.21134590     0.00000000
 N      3   1   2     2.907246434952    91.14198993     0.80283161
 C      1   2   3     2.371118856879   117.10011830   176.79280150
 C      5   1   2     1.534448512060    71.12090132   175.91166090
 C      1   2   3     1.354577457895    80.47202694   178.01529490
 C      1   2   3     1.354704071457   168.62833797   356.20463502
 C      7   1   2     1.376940836683   125.97238426     0.68873382
 C      8   1   7     1.376788137243   125.96531761   182.00158737
 C      2   1   3     1.354304095042    80.66184868   181.85410820
 C      3   1   2     1.353578963404    80.58781068   179.96993997
 C      2   1   3     1.379804097188   171.93876484   349.09599393
 C      3   1   2     1.378810120255   171.92704911    14.75804504
 C     11   2   1     1.441764566729   109.83789674   178.79431866
 C     12   3   1     1.442307415004   109.84848565   181.71568801
 C     15  11   2     1.361639756166   106.86389882   359.68457779
 C     16  12   3     1.361155810741   106.84078305     0.29021032
 C     13   2  11     1.384546538748   125.20083731   178.07371685
 C     14   3  12     1.383914546907   125.24517801   180.62139697
 C      4   3   1     1.365013274327   171.21155813   359.88451756
 C      4   3   1     1.364512920659    81.77084562   178.28357442
 C     21   4  22     1.434633254704   109.71506610     0.19759479
 C     23  21   4     1.366674991535   106.77022387   359.83928216
 H      5   1   2     1.092735193853   119.43986673   281.19030166
 H      5   1   2     1.090717440220   127.80711929    70.72221376
 H      6   5   1     1.092828651342   112.08812518   245.22332488
 H      6   5   1     1.090602632117   113.17325790   124.11915742
 H      9   7   1     1.083133991818   116.39044727   180.03511455
 H     10   8   1     1.083120057504   116.34838826   179.71851417
 H     15  11   2     1.079038418866   125.16727673   180.30258196
 H     16  12   3     1.079021084593   125.17373331   179.74534147
 H     17  15  11     1.079188175336   127.91707386   180.70049503
 H     18  16  12     1.079176897696   127.95076069   179.42051705
 H     19  13   2     1.083377417178   116.37838934   179.83430117
 H     20  14   3     1.083318803477   116.40232892   180.16396833
 H     23  21   4     1.079130505309   125.32542253   180.39681959
 H     24  23  21     1.079119974083   127.89548087   180.53227828
 Mg     3   1   2     2.057247178449    46.12819060   351.70352866
 O     39   3   1     2.127755084101    99.19747955   262.02642680
 C     40  39   3     1.437665363230   120.22834514   318.11017527
 H     41  40  39     1.091168725854   110.22358523   172.04514000
 H     41  40  39     1.091074948927   110.93297683   294.68124893
 H     41  40  39     1.086700590974   106.43713720    53.24365280
 H     40  39   3     0.964840899917   107.51039472   191.16449212

---------------------------
INTERNAL COORDINATES (A.U.)
---------------------------
 N      0   0   0     0.000000000000     0.00000000     0.00000000
 N      1   0   0     5.563258564621     0.00000000     0.00000000
 N      1   2   0     5.567413813412    88.21134590     0.00000000
 N      3   1   2     5.493899565879    91.14198993     0.80283161
 C      1   2   3     4.480765270477   117.10011830   176.79280150
 C      5   1   2     2.899687454396    71.12090132   175.91166090
 C      1   2   3     2.559780422605    80.47202694   178.01529490
 C      1   2   3     2.560019687561   168.62833797   356.20463502
 C      7   1   2     2.602041083943   125.97238426     0.68873382
 C      8   1   7     2.601752523821   125.96531761   182.00158737
 C      2   1   3     2.559263841677    80.66184868   181.85410820
 C      3   1   2     2.557893541471    80.58781068   179.96993997
 C      2   1   3     2.607451862147   171.93876484   349.09599393
 C      3   1   2     2.605573517961   171.92704911    14.75804504
 C     11   2   1     2.724540180709   109.83789674   178.79431866
 C     12   3   1     2.725566015281   109.84848565   181.71568801
 C     15  11   2     2.573126232212   106.86389882   359.68457779
 C     16  12   3     2.572211707897   106.84078305     0.29021032
 C     13   2  11     2.616413777902   125.20083731   178.07371685
 C     14   3  12     2.615219486404   125.24517801   180.62139697
 C      4   3   1     2.579501257645   171.21155813   359.88451756
 C      4   3   1     2.578555726242    81.77084562   178.28357442
 C     21   4  22     2.711063954007   109.71506610     0.19759479
 C     23  21   4     2.582641448080   106.77022387   359.83928216
 H      5   1   2     2.064970253280   119.43986673   281.19030166
 H      5   1   2     2.061157251507   127.80711929    70.72221376
 H      6   5   1     2.065146862339   112.08812518   245.22332488
 H      6   5   1     2.060940295635   113.17325790   124.11915742
 H      9   7   1     2.046826610876   116.39044727   180.03511455
 H     10   8   1     2.046800278840   116.34838826   179.71851417
 H     15  11   2     2.039087099636   125.16727673   180.30258196
 H     16  12   3     2.039054342607   125.17373331   179.74534147
 H     17  15  11     2.039370098351   127.91707386   180.70049503
 H     18  16  12     2.039348786700   127.95076069   179.42051705
 H     19  13   2     2.047286618141   116.37838934   179.83430117
 H     20  14   3     2.047175854298   116.40232892   180.16396833
 H     23  21   4     2.039261117793   125.32542253   180.39681959
 H     24  23  21     2.039241216662   127.89548087   180.53227828
 Mg     3   1   2     3.887633757051    46.12819060   351.70352866
 O     39   3   1     4.020874389010    99.19747955   262.02642680
 C     40  39   3     2.716793808729   120.22834514   318.11017527
 H     41  40  39     2.062010057764   110.22358523   172.04514000
 H     41  40  39     2.061832845054   110.93297683   294.68124893
 H     41  40  39     2.053566506511   106.43713720    53.24365280
 H     40  39   3     1.823285063650   107.51039472   191.16449212

---------------------
BASIS SET INFORMATION
---------------------
There are 5 groups of distinct atoms

 Group   1 Type N   : 11s6p2d1f contracted to 5s3p2d1f pattern {62111/411/11/1}
 Group   2 Type C   : 11s6p2d1f contracted to 5s3p2d1f pattern {62111/411/11/1}
 Group   3 Type H   : 5s1p contracted to 3s1p pattern {311/1}
 Group   4 Type Mg  : 14s8p3d contracted to 5s4p3d pattern {73211/5111/111}
 Group   5 Type O   : 11s6p2d1f contracted to 5s3p2d1f pattern {62111/411/11/1}

Atom   0N    basis set group =>   1
Atom   1N    basis set group =>   1
Atom   2N    basis set group =>   1
Atom   3N    basis set group =>   1
Atom   4C    basis set group =>   2
Atom   5C    basis set group =>   2
Atom   6C    basis set group =>   2
Atom   7C    basis set group =>   2
Atom   8C    basis set group =>   2
Atom   9C    basis set group =>   2
Atom  10C    basis set group =>   2
Atom  11C    basis set group =>   2
Atom  12C    basis set group =>   2
Atom  13C    basis set group =>   2
Atom  14C    basis set group =>   2
Atom  15C    basis set group =>   2
Atom  16C    basis set group =>   2
Atom  17C    basis set group =>   2
Atom  18C    basis set group =>   2
Atom  19C    basis set group =>   2
Atom  20C    basis set group =>   2
Atom  21C    basis set group =>   2
Atom  22C    basis set group =>   2
Atom  23C    basis set group =>   2
Atom  24H    basis set group =>   3
Atom  25H    basis set group =>   3
Atom  26H    basis set group =>   3
Atom  27H    basis set group =>   3
Atom  28H    basis set group =>   3
Atom  29H    basis set group =>   3
Atom  30H    basis set group =>   3
Atom  31H    basis set group =>   3
Atom  32H    basis set group =>   3
Atom  33H    basis set group =>   3
Atom  34H    basis set group =>   3
Atom  35H    basis set group =>   3
Atom  36H    basis set group =>   3
Atom  37H    basis set group =>   3
Atom  38Mg   basis set group =>   4
Atom  39O    basis set group =>   5
Atom  40C    basis set group =>   2
Atom  41H    basis set group =>   3
Atom  42H    basis set group =>   3
Atom  43H    basis set group =>   3
Atom  44H    basis set group =>   3
---------------------------------
AUXILIARY/J BASIS SET INFORMATION
---------------------------------
There are 5 groups of distinct atoms

 Group   1 Type N   : 12s5p4d2f1g contracted to 6s4p3d1f1g pattern {711111/2111/211/2/1}
 Group   2 Type C   : 12s5p4d2f1g contracted to 6s4p3d1f1g pattern {711111/2111/211/2/1}
 Group   3 Type H   : 5s2p1d contracted to 3s1p1d pattern {311/2/1}
 Group   4 Type Mg  : 14s5p5d2f1g contracted to 8s4p4d1f1g pattern {71111111/2111/2111/2/1}
 Group   5 Type O   : 12s5p4d2f1g contracted to 6s4p3d1f1g pattern {711111/2111/211/2/1}

Atom   0N    basis set group =>   1
Atom   1N    basis set group =>   1
Atom   2N    basis set group =>   1
Atom   3N    basis set group =>   1
Atom   4C    basis set group =>   2
Atom   5C    basis set group =>   2
Atom   6C    basis set group =>   2
Atom   7C    basis set group =>   2
Atom   8C    basis set group =>   2
Atom   9C    basis set group =>   2
Atom  10C    basis set group =>   2
Atom  11C    basis set group =>   2
Atom  12C    basis set group =>   2
Atom  13C    basis set group =>   2
Atom  14C    basis set group =>   2
Atom  15C    basis set group =>   2
Atom  16C    basis set group =>   2
Atom  17C    basis set group =>   2
Atom  18C    basis set group =>   2
Atom  19C    basis set group =>   2
Atom  20C    basis set group =>   2
Atom  21C    basis set group =>   2
Atom  22C    basis set group =>   2
Atom  23C    basis set group =>   2
Atom  24H    basis set group =>   3
Atom  25H    basis set group =>   3
Atom  26H    basis set group =>   3
Atom  27H    basis set group =>   3
Atom  28H    basis set group =>   3
Atom  29H    basis set group =>   3
Atom  30H    basis set group =>   3
Atom  31H    basis set group =>   3
Atom  32H    basis set group =>   3
Atom  33H    basis set group =>   3
Atom  34H    basis set group =>   3
Atom  35H    basis set group =>   3
Atom  36H    basis set group =>   3
Atom  37H    basis set group =>   3
Atom  38Mg   basis set group =>   4
Atom  39O    basis set group =>   5
Atom  40C    basis set group =>   2
Atom  41H    basis set group =>   3
Atom  42H    basis set group =>   3
Atom  43H    basis set group =>   3
Atom  44H    basis set group =>   3


           ************************************************************
           *        Program running with 4 parallel MPI-processes     *
           *              working on a common directory               *
           ************************************************************
------------------------------------------------------------------------------
                             ORCA STARTUP CALCULATIONS
                           -- RI-GTO INTEGRALS CHOSEN --
------------------------------------------------------------------------------
------------------------------------------------------------------------------
                   ___                                                        
                  /   \      - P O W E R E D   B Y -                         
                 /     \                                                     
                 |  |  |   _    _      __       _____    __    __             
                 |  |  |  | |  | |    /  \     |  _  \  |  |  /  |          
                  \  \/   | |  | |   /    \    | | | |  |  | /  /          
                 / \  \   | |__| |  /  /\  \   | |_| |  |  |/  /          
                |  |  |   |  __  | /  /__\  \  |    /   |      \           
                |  |  |   | |  | | |   __   |  |    \   |  |\   \          
                \     /   | |  | | |  |  |  |  | |\  \  |  | \   \       
                 \___/    |_|  |_| |__|  |__|  |_| \__\ |__|  \__/        
                                                                              
                      - O R C A' S   B I G   F R I E N D -                    
                                      &                                       
                       - I N T E G R A L  F E E D E R -                       
                                                                              
 v1 FN, 2020, v2 2021, v3 2022-2024                                           
------------------------------------------------------------------------------


----------------------
SHARK INTEGRAL PACKAGE
----------------------

Number of atoms                             ...     45
Number of basis functions                   ...    946
Number of shells                            ...    370
Maximum angular momentum                    ...      3
Integral batch strategy                     ... SHARK/LIBINT Hybrid
RI-J (if used) integral strategy            ... SPLIT-RIJ (Revised 2003 algorithm where possible)
Printlevel                                  ...      1
Contraction scheme used                     ... SEGMENTED contraction
Prescreening option                         ... SCHWARTZ
   Thresh                                   ... 2.500e-11
   Tcut                                     ... 2.500e-12
   Tpresel                                  ... 2.500e-12 
Coulomb Range Separation                    ... NOT USED
Exchange Range Separation                   ... NOT USED
Multipole approximations                    ... NOT USED
Finite Nucleus Model                        ... NOT USED
CABS basis                                  ... NOT available
Auxiliary Coulomb fitting basis             ... AVAILABLE
   # of basis functions in Aux-J            ...   1528
   # of shells in Aux-J                     ...    498
   Maximum angular momentum in Aux-J        ...      4
Auxiliary J/K fitting basis                 ... NOT available
Auxiliary Correlation fitting basis         ... NOT available
Auxiliary 'external' fitting basis          ... NOT available

Checking pre-screening integrals            ... done (  0.0 sec) Dimension = 370
   => SHARK Basis and OBASIS are compatible. Storing Pre-screening
Shell pair information
Shell pair cut-off parameter TPreSel        ...   2.5e-12
Total number of shell pairs                 ...     68635
Shell pairs after pre-screening             ...     48682
Total number of primitive shell pairs       ...    214192
Primitive shell pairs kept                  ...     98342
          la=0 lb=0:  12091 shell pairs
          la=1 lb=0:  14017 shell pairs
          la=1 lb=1:   4036 shell pairs
          la=2 lb=0:   7126 shell pairs
          la=2 lb=1:   4229 shell pairs
          la=2 lb=2:   1138 shell pairs
          la=3 lb=0:   3039 shell pairs
          la=3 lb=1:   1867 shell pairs
          la=3 lb=2:    933 shell pairs
          la=3 lb=3:    206 shell pairs

Checking whether 4 symmetric matrices of dimension 946 fit in memory
:Max Core in MB      =   3000.00
 MB in use           =     62.14
 MB left             =   2937.86
 MB needed           =     13.67
 Data fit in memory  = YES
Calculating RI/J V-Matrix + Cholesky decomp.... done (  0.3 sec)
Calculating Nuclear repulsion               ... done (  0.0 sec) ENN=   2586.255132687129 Eh

Diagonalization of the overlap matrix:
Smallest eigenvalue                        ... 1.011e-05
Time for diagonalization                   ...    0.353 sec
Threshold for overlap eigenvalues          ... 1.000e-07
Number of eigenvalues below threshold      ... 0
Time for construction of square roots      ...    0.179 sec
Total time needed                          ...    0.544 sec

-------------------
DFT GRID GENERATION
-------------------

General Integration Accuracy     IntAcc      ... 4.959
Radial Grid Type                 RadialGrid  ... OptM3 with GC (2021)
Angular Grid (max. ang.)         AngularGrid ... 6 (Lebedev-590)
Angular grid pruning method      GridPruning ... 4 (adaptive)
Weight generation scheme         WeightScheme... mBecke (2022)
Basis function cutoff            BFCut       ... 1.0000e-11
Integration weight cutoff        WCut        ... 1.0000e-14
Partially contracted basis set               ... off
Rotationally invariant grid construction     ... off
Angular grids for H and He will be reduced by one unit

Total number of grid points                  ...   533935
Total number of batches                      ...     8367
Average number of points per batch           ...       63
Average number of grid points per atom       ...    11865

--------------------
COSX GRID GENERATION
--------------------

GRIDX 1
-------
General Integration Accuracy     IntAcc      ... 4.020
Radial Grid Type                 RadialGrid  ... OptM3 with GC (2021)
Angular Grid (max. ang.)         AngularGrid ... 2 (Lebedev-110)
Angular grid pruning method      GridPruning ... 4 (adaptive)
Weight generation scheme         WeightScheme... mBecke (2022)
Basis function cutoff            BFCut       ... 1.0000e-11
Integration weight cutoff        WCut        ... 1.0000e-14
Partially contracted basis set               ... on
Rotationally invariant grid construction     ... off
Angular grids for H and He will be reduced by one unit

Total number of grid points                  ...    60163
Total number of batches                      ...      491
Average number of points per batch           ...      122
Average number of grid points per atom       ...     1337
UseSFitting                                  ... on

GRIDX 2
-------
General Integration Accuracy     IntAcc      ... 4.338
Radial Grid Type                 RadialGrid  ... OptM3 with GC (2021)
Angular Grid (max. ang.)         AngularGrid ... 3 (Lebedev-194)
Angular grid pruning method      GridPruning ... 4 (adaptive)
Weight generation scheme         WeightScheme... mBecke (2022)
Basis function cutoff            BFCut       ... 1.0000e-11
Integration weight cutoff        WCut        ... 1.0000e-14
Partially contracted basis set               ... on
Rotationally invariant grid construction     ... off
Angular grids for H and He will be reduced by one unit

Total number of grid points                  ...   131937
Total number of batches                      ...     1050
Average number of points per batch           ...      125
Average number of grid points per atom       ...     2932
UseSFitting                                  ... on

GRIDX 3
-------
General Integration Accuracy     IntAcc      ... 4.871
Radial Grid Type                 RadialGrid  ... OptM3 with GC (2021)
Angular Grid (max. ang.)         AngularGrid ... 4 (Lebedev-302)
Angular grid pruning method      GridPruning ... 4 (adaptive)
Weight generation scheme         WeightScheme... mBecke (2022)
Basis function cutoff            BFCut       ... 1.0000e-11
Integration weight cutoff        WCut        ... 1.0000e-14
Partially contracted basis set               ... on
Rotationally invariant grid construction     ... off
Angular grids for H and He will be reduced by one unit

Total number of grid points                  ...   244368
Total number of batches                      ...     1933
Average number of points per batch           ...      126
Average number of grid points per atom       ...     5430
UseSFitting                                  ... on
Grids setup in  34.5 sec
Initializing property integral containers    ... done (  0.0 sec)

SHARK setup successfully completed in  38.5 seconds

Maximum memory used throughout the entire STARTUP-calculation: 180.2 MB


           ************************************************************
           *        Program running with 4 parallel MPI-processes     *
           *              working on a common directory               *
           ************************************************************
-------------------------------------------------------------------------------
                                 ORCA GUESS
                   Start orbitals & Density for SCF / CASSCF
-------------------------------------------------------------------------------

------------
SCF SETTINGS
------------
Hamiltonian:
 Density Functional     Method          .... DFT(GTOs)
 Exchange Functional    Exchange        .... M062X
 Correlation Functional Correlation     .... M062X
 Gradients option       PostSCFGGA      .... off
 Hybrid DFT is turned on
   Fraction HF Exchange ScalHFX         ....  0.540000
   Scaling of DF-GGA-X  ScalDFX         ....  0.460000
   Scaling of DF-GGA-C  ScalDFC         ....  1.000000
   Scaling of DF-LDA-C  ScalLDAC        ....  1.000000
   Perturbative correction              ....  0.000000
 RI-approximation to the Coulomb term is turned on
   Number of AuxJ basis functions       .... 1528
   RIJ-COSX (HFX calculated with COS-X)).... on


General Settings:
 Integral files         IntName         .... tddft
 Hartree-Fock type      HFTyp           .... RHF
 Total Charge           Charge          ....    0
 Multiplicity           Mult            ....    1
 Number of Electrons    NEL             ....  192
 Basis Dimension        Dim             ....  946
 Nuclear Repulsion      ENuc            ....   2586.2551326871 Eh

Convergence Acceleration:
 AO-DIIS                CNVDIIS         .... on
   Start iteration      DIISMaxIt       ....    12
   Startup error        DIISStart       ....  0.200000
   # of expansion vecs  DIISMaxEq       ....     5
   Bias factor          DIISBfac        ....   1.050
   Max. coefficient     DIISMaxC        ....  10.000
 MO-DIIS                CNVKDIIS        .... off
 Trust-Rad. Augm. Hess. CNVTRAH         .... auto
   Auto Start mean grad. ratio tolernc. ....  1.125000
   Auto Start start iteration           ....    50
   Auto Start num. interpolation iter.  ....    10
   Max. Number of Micro iterations      ....    24
   Max. Number of Macro iterations      .... Maxiter - #DIIS iter
   Number of Davidson start vectors     ....     2
   Converg. threshold    (grad. norm)   ....   1.000e-05
   Grad. Scal. Fac. for Micro threshold ....   0.100
   Minimum threshold for Micro iter.    ....   1.000e-02
   NR start threshold (gradient norm)   ....   1.000e-04
   Initial trust radius                 ....   0.400
   Minimum AH scaling param. (alpha)    ....   1.000
   Maximum AH scaling param. (alpha)    .... 1000.000
   Quad. conv. algorithm                .... NR
   White noise on init. David. guess    .... on
   Maximum white noise                  ....   0.010
   Pseudo random numbers                .... off
   Inactive MOs                         .... canonical
   Orbital update algorithm             .... Taylor
   Preconditioner                       .... Diag
   Full preconditioner red. dimension   ....   250
 SOSCF                 CNVSOSCF           .... on
   Start iteration     SOSCFMaxIt         ....   150
   Startup grad/error  SOSCFStart         ....  0.003300
   Hessian update      SOSCFHessUp        .... L-BFGS
   Autom. constraints  SOSCFAutoConstrain .... off
 Level Shifting         CNVShift        .... on
   Level shift para.    LevelShift      ....    0.2500
   Turn off err/grad.   ShiftErr        ....    0.0010
 Zerner damping         CNVZerner       .... off
 Static damping         CNVDamp         .... on
   Fraction old density DampFac         ....    0.7000
   Max. Damping (<1)    DampMax         ....    0.9800
   Min. Damping (>=0)   DampMin         ....    0.0000
   Turn off err/grad.   DampErr         ....    0.1000

SCF Procedure:
 Maximum # iterations   MaxIter         ....   125
 SCF integral mode      SCFMode         .... Direct
   Integral package                     .... SHARK and LIBINT hybrid scheme
 Reset frequency        DirectResetFreq ....    20
 Integral Threshold     Thresh          ....  2.500e-11 Eh
 Primitive CutOff       TCut            ....  2.500e-12 Eh

Convergence Tolerance:
 Convergence Check Mode ConvCheckMode   .... Total+1el-Energy
 Convergence forced     ConvForced      .... 1
 Energy Change          TolE            ....  1.000e-08 Eh
 1-El. energy change                    ....  1.000e-05 Eh
 Orbital Gradient       TolG            ....  1.000e-05
 Orbital Rotation angle TolX            ....  1.000e-05
 DIIS Error             TolErr          ....  5.000e-07

------------------------------
INITIAL GUESS: MODEL POTENTIAL
------------------------------
Loading Hartree-Fock densities                     ... done
Calculating cut-offs                               ... done
Initializing the effective Hamiltonian             ... done
Setting up the integral package (SHARK)            ... done
Starting the Coulomb interaction                   ... done (   2.8 sec)
Making the grid                                    ... done (   1.0 sec)
Mapping shells                                     ... done
Starting the XC term evaluation                    ... done (   1.7 sec)
  promolecular density results
     # of electrons  =    191.993554049
     EX              =   -163.178308982
     EC              =     -6.513574054
     EX+EC           =   -169.691883037
Transforming the Hamiltonian                       ... done (   0.8 sec)
Diagonalizing the Hamiltonian                      ... done (   1.0 sec)
Back transforming the eigenvectors                 ... done (   0.5 sec)
Now organizing SCF variables                       ... done
                      ------------------
                      INITIAL GUESS DONE (   8.4 sec)
                      ------------------
             **** ENERGY FILE WAS UPDATED (tddft.en.tmp) ****
Finished Guess after   9.5 sec
Maximum memory used throughout the entire GUESS-calculation: 104.2 MB


           ************************************************************
           *        Program running with 4 parallel MPI-processes     *
           *              working on a common directory               *
           ************************************************************

-------------------------------------------------------------------------------------------
                                      ORCA LEAN-SCF
                              memory conserving SCF solver
-------------------------------------------------------------------------------------------

--------------------
CPCM SOLVATION MODEL
--------------------
CPCM parameters:
  Epsilon                                         ...       8.9990
  Refrac                                          ...       1.4242
  Rsolv                                           ...       1.3000
  Surface type                                    ... GAUSSIAN VDW
  Discretization scheme                           ... Constant charge density
    Threshold for H atoms                         ...       5.0000 (charges/Ang^2)
    Threshold for non-H atoms                     ...       5.0000 (charges/Ang^2)
  Epsilon function type                           ...         CPCM
Solvent:                                          ... DICHLOROMETHANE
Radii:
  Scheme                                          ... Element-dependent radii
  Radius for N  used is    3.5149 Bohr (=   1.8600 Ang.)
  Radius for C  used is    3.8550 Bohr (=   2.0400 Ang.)
  Radius for H  used is    2.4944 Bohr (=   1.3200 Ang.)
  Radius for Mg used is    3.9231 Bohr (=   2.0760 Ang.)
  Radius for O  used is    3.4469 Bohr (=   1.8240 Ang.)
Calculating surface                               ...        done! (  0.0s)
Cavity surface points                             ...         3952
Cavity Volume                                     ...    2800.1199
Cavity Surface-area                               ...    1332.7310
Calculating surface distance matrix               ...        done! (  2.8s)
Performing Cholesky decomposition & store         ...        done! (  1.2s)
Overall time for CPCM initialization              ...                 4.0s

----------------------------------------D-I-I-S--------------------------------------------
Iteration    Energy (Eh)           Delta-E    RMSDP     MaxDP     DIISErr   Damp  Time(sec)
-------------------------------------------------------------------------------------------
               ***  Starting incremental Fock matrix formation  ***
    1    -1304.8352715748837909     0.00e+00  2.24e-03  5.39e-02  2.37e-01  0.700 227.9
    2    -1305.1118419854346939    -2.77e-01  1.82e-03  4.17e-02  1.26e-01  0.700 115.8
                               ***Turning on AO-DIIS***
    3    -1305.2492499425407004    -1.37e-01  1.22e-03  3.05e-02  5.46e-02  0.700 107.3
    4    -1305.3305933425622243    -8.13e-02  2.78e-03  7.24e-02  3.75e-02  0.000 106.2
    5    -1305.5041100712105617    -1.74e-01  2.23e-04  4.17e-03  5.23e-03  0.000 104.1
                              *** Initializing SOSCF ***
---------------------------------------S-O-S-C-F--------------------------------------
Iteration    Energy (Eh)           Delta-E    RMSDP     MaxDP     MaxGrad    Time(sec)
--------------------------------------------------------------------------------------
    6    -1305.5046130762161738    -5.03e-04  8.79e-05  1.59e-03  2.50e-03   101.2
               *** Restarting incremental Fock matrix formation ***
    7    -1305.5046900682500564    -7.70e-05  6.90e-05  1.44e-03  1.00e-03   215.3
    8    -1305.5047323250623776    -4.23e-05  6.45e-05  1.38e-03  4.10e-04   171.6
    9    -1305.5047441420388168    -1.18e-05  2.67e-05  5.89e-04  3.14e-04   165.1
   10    -1305.5047492923436039    -5.15e-06  9.01e-06  2.16e-04  1.00e-04   139.9
   11    -1305.5047497371720056    -4.45e-07  2.97e-06  7.78e-05  3.36e-05   125.9
   12    -1305.5047498938088211    -1.57e-07  1.89e-06  3.71e-05  2.21e-05   114.4
   13    -1305.5047499157949460    -2.20e-08  1.05e-06  2.33e-05  5.60e-06   111.2
   14    -1305.5047499257125310    -9.92e-09  1.05e-06  2.14e-05  4.09e-06   100.6
                 **** Energy Check signals convergence ****

               *****************************************************
               *                     SUCCESS                       *
               *           SCF CONVERGED AFTER  14 CYCLES          *
               *****************************************************

Recomputing exchange energy using gridx3       ... done (  279.884 sec)
Old exchange energy                            :    -89.797733396 Eh
New exchange energy                            :    -89.797739875 Eh
Exchange energy change after final integration :     -0.000006479 Eh
Total energy after final integration           :  -1305.504756367 Eh
             **** ENERGY FILE WAS UPDATED (tddft.en.tmp) ****

----------------
TOTAL SCF ENERGY
----------------

Total Energy       :      -1305.50475636691226 Eh          -35524.59046 eV

Components:
Nuclear Repulsion  :       2586.25513268712893 Eh           70375.57999 eV
Electronic Energy  :      -3891.74001427990515 Eh         -105899.62962 eV
One Electron Energy:      -6926.55111526411292 Eh         -188481.03804 eV
Two Electron Energy:       3034.81110098420777 Eh           82581.40842 eV
CPCM Dielectric    :         -0.01986829479777 Eh              -0.54064 eV

Virial components:
Potential Energy   :      -2604.74726997244852 Eh          -70878.77662 eV
Kinetic Energy     :       1299.24251360553649 Eh           35354.18617 eV
Virial Ratio       :          2.00481991829531

DFT components:
N(Alpha)           :       95.999986718543 electrons
N(Beta)            :       95.999986718543 electrons
N(Total)           :      191.999973437086 electrons
E(XC)              :      -83.611274257656 Eh       

CPCM Solvation Model Properties:
Surface-charge          :         -0.03826597668104
Corrected charge        :          0.00000000000000
Outlying charge corr.   :          0.00006772639650 Eh               0.00184 eV
Free-energy (cav+disp)  :  This term is not implemented in the current solvation scheme

---------------
SCF CONVERGENCE
---------------

  Last Energy change         ...    9.9176e-09  Tolerance :   1.0000e-08
  Last MAX-Density change    ...    2.1448e-05  Tolerance :   1.0000e-07
  Last RMS-Density change    ...    1.0518e-06  Tolerance :   5.0000e-09
  Last DIIS Error            ...    2.5020e-03  Tolerance :   5.0000e-07
  Last Orbital Gradient      ...    4.0914e-06  Tolerance :   1.0000e-05
  Last Orbital Rotation      ...    2.8931e-05  Tolerance :   1.0000e-05


----------------
ORBITAL ENERGIES
----------------

  NO   OCC          E(Eh)            E(eV) 
   0   2.0000     -47.496798     -1292.4536 
   1   2.0000     -19.658785      -534.9427 
   2   2.0000     -14.752704      -401.4415 
   3   2.0000     -14.733702      -400.9244 
   4   2.0000     -14.732569      -400.8936 
   5   2.0000     -14.732433      -400.8899 
   6   2.0000     -10.584268      -288.0126 
   7   2.0000     -10.584187      -288.0104 
   8   2.0000     -10.583598      -287.9943 
   9   2.0000     -10.576441      -287.7996 
  10   2.0000     -10.576272      -287.7950 
  11   2.0000     -10.567591      -287.5588 
  12   2.0000     -10.567398      -287.5535 
  13   2.0000     -10.565512      -287.5022 
  14   2.0000     -10.565351      -287.4978 
  15   2.0000     -10.550293      -287.0881 
  16   2.0000     -10.549934      -287.0783 
  17   2.0000     -10.539785      -286.8021 
  18   2.0000     -10.539745      -286.8011 
  19   2.0000     -10.539054      -286.7822 
  20   2.0000     -10.538691      -286.7724 
  21   2.0000     -10.534582      -286.6605 
  22   2.0000     -10.534545      -286.6595 
  23   2.0000     -10.532691      -286.6091 
  24   2.0000     -10.531762      -286.5838 
  25   2.0000     -10.529979      -286.5353 
  26   2.0000     -10.529949      -286.5345 
  27   2.0000      -3.250886       -88.4611 
  28   2.0000      -1.945180       -52.9310 
  29   2.0000      -1.943185       -52.8768 
  30   2.0000      -1.943135       -52.8754 
  31   2.0000      -1.170150       -31.8414 
  32   2.0000      -1.071317       -29.1520 
  33   2.0000      -1.061949       -28.8971 
  34   2.0000      -1.061282       -28.8790 
  35   2.0000      -1.051138       -28.6029 
  36   2.0000      -0.913059       -24.8456 
  37   2.0000      -0.885609       -24.0986 
  38   2.0000      -0.882563       -24.0158 
  39   2.0000      -0.866841       -23.5879 
  40   2.0000      -0.860512       -23.4157 
  41   2.0000      -0.858939       -23.3729 
  42   2.0000      -0.853000       -23.2113 
  43   2.0000      -0.826913       -22.5015 
  44   2.0000      -0.807570       -21.9751 
  45   2.0000      -0.790284       -21.5047 
  46   2.0000      -0.742213       -20.1967 
  47   2.0000      -0.736818       -20.0498 
  48   2.0000      -0.691450       -18.8153 
  49   2.0000      -0.658459       -17.9176 
  50   2.0000      -0.648734       -17.6529 
  51   2.0000      -0.646415       -17.5898 
  52   2.0000      -0.644316       -17.5327 
  53   2.0000      -0.627022       -17.0621 
  54   2.0000      -0.613130       -16.6841 
  55   2.0000      -0.606932       -16.5155 
  56   2.0000      -0.595276       -16.1983 
  57   2.0000      -0.588223       -16.0064 
  58   2.0000      -0.573960       -15.6183 
  59   2.0000      -0.568253       -15.4630 
  60   2.0000      -0.559325       -15.2200 
  61   2.0000      -0.546616       -14.8742 
  62   2.0000      -0.540112       -14.6972 
  63   2.0000      -0.524581       -14.2746 
  64   2.0000      -0.506492       -13.7824 
  65   2.0000      -0.499608       -13.5950 
  66   2.0000      -0.495023       -13.4703 
  67   2.0000      -0.488283       -13.2868 
  68   2.0000      -0.483254       -13.1500 
  69   2.0000      -0.479381       -13.0446 
  70   2.0000      -0.471290       -12.8244 
  71   2.0000      -0.468790       -12.7564 
  72   2.0000      -0.468452       -12.7472 
  73   2.0000      -0.448201       -12.1962 
  74   2.0000      -0.445280       -12.1167 
  75   2.0000      -0.443062       -12.0563 
  76   2.0000      -0.438926       -11.9438 
  77   2.0000      -0.433778       -11.8037 
  78   2.0000      -0.430635       -11.7182 
  79   2.0000      -0.427668       -11.6374 
  80   2.0000      -0.424689       -11.5564 
  81   2.0000      -0.419189       -11.4067 
  82   2.0000      -0.417286       -11.3549 
  83   2.0000      -0.413979       -11.2649 
  84   2.0000      -0.389038       -10.5863 
  85   2.0000      -0.377986       -10.2855 
  86   2.0000      -0.373746       -10.1701 
  87   2.0000      -0.368937       -10.0393 
  88   2.0000      -0.343210        -9.3392 
  89   2.0000      -0.333673        -9.0797 
  90   2.0000      -0.324327        -8.8254 
  91   2.0000      -0.312524        -8.5042 
  92   2.0000      -0.302788        -8.2393 
  93   2.0000      -0.300443        -8.1755 
  94   2.0000      -0.234230        -6.3737 
  95   2.0000      -0.219684        -5.9779 
  96   0.0000      -0.070569        -1.9203 
  97   0.0000      -0.046147        -1.2557 
  98   0.0000       0.023671         0.6441 
  99   0.0000       0.033676         0.9164 
 100   0.0000       0.059756         1.6260 
 101   0.0000       0.068311         1.8588 
 102   0.0000       0.072485         1.9724 
 103   0.0000       0.080995         2.2040 
 104   0.0000       0.088287         2.4024 
 105   0.0000       0.094865         2.5814 
 106   0.0000       0.098324         2.6755 
*Only the first 10 virtual orbitals were printed.

                    ********************************
                    * MULLIKEN POPULATION ANALYSIS *
                    ********************************

-----------------------
MULLIKEN ATOMIC CHARGES
-----------------------
   0 N :   -0.359967
   1 N :   -0.422273
   2 N :   -0.405552
   3 N :   -0.378830
   4 C :   -0.309681
   5 C :   -0.308973
   6 C :    0.184366
   7 C :    0.174678
   8 C :   -0.314533
   9 C :   -0.310378
  10 C :    0.224092
  11 C :    0.216098
  12 C :    0.176756
  13 C :    0.160454
  14 C :   -0.244214
  15 C :   -0.242374
  16 C :   -0.237415
  17 C :   -0.229720
  18 C :   -0.238191
  19 C :   -0.231079
  20 C :    0.176929
  21 C :    0.160424
  22 C :   -0.247678
  23 C :   -0.239454
  24 H :    0.168163
  25 H :    0.171535
  26 H :    0.167720
  27 H :    0.171612
  28 H :    0.176673
  29 H :    0.176122
  30 H :    0.174569
  31 H :    0.174607
  32 H :    0.176078
  33 H :    0.175844
  34 H :    0.181672
  35 H :    0.181905
  36 H :    0.172707
  37 H :    0.172248
  38 Mg:    0.657982
  39 O :   -0.494460
  40 C :   -0.267447
  41 H :    0.168993
  42 H :    0.168993
  43 H :    0.176473
  44 H :    0.394523
Sum of atomic charges:   -0.0000000

--------------------------------
MULLIKEN REDUCED ORBITAL CHARGES
--------------------------------
  0 N s       :     3.663639  s :     3.663639
      pz      :     1.289652  p :     3.640960
      px      :     1.210256
      py      :     1.141052
      dz2     :     0.003899  d :     0.051888
      dxz     :     0.009192
      dyz     :     0.010515
      dx2y2   :     0.014874
      dxy     :     0.013409
      f0      :     0.000673  f :     0.003480
      f+1     :     0.000351
      f-1     :     0.000397
      f+2     :     0.000415
      f-2     :     0.000127
      f+3     :     0.000835
      f-3     :     0.000683

  1 N s       :     3.679531  s :     3.679531
      pz      :     1.369635  p :     3.688408
      px      :     1.132629
      py      :     1.186144
      dz2     :     0.004226  d :     0.050815
      dxz     :     0.009880
      dyz     :     0.009197
      dx2y2   :     0.014593
      dxy     :     0.012919
      f0      :     0.000697  f :     0.003519
      f+1     :     0.000432
      f-1     :     0.000398
      f+2     :     0.000507
      f-2     :     0.000106
      f+3     :     0.000656
      f-3     :     0.000724

  2 N s       :     3.677365  s :     3.677365
      pz      :     1.368148  p :     3.673821
      px      :     1.121720
      py      :     1.183953
      dz2     :     0.004165  d :     0.050828
      dxz     :     0.010762
      dyz     :     0.008323
      dx2y2   :     0.014206
      dxy     :     0.013372
      f0      :     0.000714  f :     0.003537
      f+1     :     0.000425
      f-1     :     0.000404
      f+2     :     0.000502
      f-2     :     0.000109
      f+3     :     0.000616
      f-3     :     0.000767

  3 N s       :     3.674767  s :     3.674767
      pz      :     1.328939  p :     3.647706
      px      :     1.195648
      py      :     1.123119
      dz2     :     0.004195  d :     0.052791
      dxz     :     0.009518
      dyz     :     0.011272
      dx2y2   :     0.014565
      dxy     :     0.013242
      f0      :     0.000699  f :     0.003566
      f+1     :     0.000391
      f-1     :     0.000418
      f+2     :     0.000564
      f-2     :     0.000109
      f+3     :     0.000747
      f-3     :     0.000638

  4 C s       :     3.289203  s :     3.289203
      pz      :     1.094299  p :     2.941385
      px      :     0.888103
      py      :     0.958983
      dz2     :     0.005323  d :     0.074007
      dxz     :     0.015065
      dyz     :     0.015631
      dx2y2   :     0.022080
      dxy     :     0.015909
      f0      :     0.000560  f :     0.005085
      f+1     :     0.000343
      f-1     :     0.000863
      f+2     :     0.000490
      f-2     :     0.000681
      f+3     :     0.001000
      f-3     :     0.001147

  5 C s       :     3.290467  s :     3.290467
      pz      :     1.092935  p :     2.939409
      px      :     0.955667
      py      :     0.890807
      dz2     :     0.004993  d :     0.074013
      dxz     :     0.015760
      dyz     :     0.015318
      dx2y2   :     0.020346
      dxy     :     0.017596
      f0      :     0.000517  f :     0.005084
      f+1     :     0.000925
      f-1     :     0.000330
      f+2     :     0.000471
      f-2     :     0.000689
      f+3     :     0.000830
      f-3     :     0.001320

  6 C s       :     3.157635  s :     3.157635
      pz      :     0.858408  p :     2.514336
      px      :     0.902126
      py      :     0.753802
      dz2     :     0.001870  d :     0.131125
      dxz     :     0.026395
      dyz     :     0.038650
      dx2y2   :     0.032511
      dxy     :     0.031698
      f0      :     0.001751  f :     0.012539
      f+1     :     0.000897
      f-1     :     0.001193
      f+2     :     0.001533
      f-2     :     0.000992
      f+3     :     0.004582
      f-3     :     0.001591

  7 C s       :     3.157934  s :     3.157934
      pz      :     0.860413  p :     2.523500
      px      :     0.761608
      py      :     0.901480
      dz2     :     0.001598  d :     0.131342
      dxz     :     0.033721
      dyz     :     0.031668
      dx2y2   :     0.036309
      dxy     :     0.028046
      f0      :     0.001768  f :     0.012545
      f+1     :     0.001134
      f-1     :     0.000924
      f+2     :     0.001276
      f-2     :     0.001253
      f+3     :     0.003061
      f-3     :     0.003129

  8 C s       :     3.167045  s :     3.167045
      pz      :     1.111706  p :     3.089743
      px      :     0.895833
      py      :     1.082204
      dz2     :     0.003678  d :     0.051033
      dxz     :     0.021678
      dyz     :     0.003369
      dx2y2   :     0.012572
      dxy     :     0.009736
      f0      :     0.001331  f :     0.006711
      f+1     :     0.000881
      f-1     :     0.000752
      f+2     :     0.000416
      f-2     :     0.000615
      f+3     :     0.001703
      f-3     :     0.001014

  9 C s       :     3.167980  s :     3.167980
      pz      :     1.111596  p :     3.084989
      px      :     1.073716
      py      :     0.899677
      dz2     :     0.003688  d :     0.050696
      dxz     :     0.003215
      dyz     :     0.021804
      dx2y2   :     0.012327
      dxy     :     0.009661
      f0      :     0.001330  f :     0.006713
      f+1     :     0.000773
      f-1     :     0.000869
      f+2     :     0.000443
      f-2     :     0.000578
      f+3     :     0.001128
      f-3     :     0.001592

 10 C s       :     3.142679  s :     3.142679
      pz      :     0.877460  p :     2.494165
      px      :     0.856865
      py      :     0.759839
      dz2     :     0.002791  d :     0.126137
      dxz     :     0.033722
      dyz     :     0.035444
      dx2y2   :     0.029419
      dxy     :     0.024761
      f0      :     0.001885  f :     0.012927
      f+1     :     0.001035
      f-1     :     0.001188
      f+2     :     0.001626
      f-2     :     0.000985
      f+3     :     0.003483
      f-3     :     0.002726

 11 C s       :     3.148318  s :     3.148318
      pz      :     0.877595  p :     2.495697
      px      :     0.758713
      py      :     0.859390
      dz2     :     0.002487  d :     0.126930
      dxz     :     0.038986
      dyz     :     0.030976
      dx2y2   :     0.027054
      dxy     :     0.027428
      f0      :     0.001916  f :     0.012956
      f+1     :     0.001218
      f-1     :     0.000974
      f+2     :     0.002059
      f-2     :     0.000554
      f+3     :     0.001578
      f-3     :     0.004657

 12 C s       :     3.136028  s :     3.136028
      pz      :     0.955098  p :     2.560039
      px      :     0.746888
      py      :     0.858053
      dz2     :     0.002841  d :     0.114483
      dxz     :     0.036151
      dyz     :     0.026722
      dx2y2   :     0.025832
      dxy     :     0.022937
      f0      :     0.002007  f :     0.012694
      f+1     :     0.001218
      f-1     :     0.000990
      f+2     :     0.001966
      f-2     :     0.000479
      f+3     :     0.001472
      f-3     :     0.004563

 13 C s       :     3.142950  s :     3.142950
      pz      :     0.963593  p :     2.569154
      px      :     0.852291
      py      :     0.753271
      dz2     :     0.002791  d :     0.114664
      dxz     :     0.028416
      dyz     :     0.034591
      dx2y2   :     0.026976
      dxy     :     0.021890
      f0      :     0.002056  f :     0.012777
      f+1     :     0.001034
      f-1     :     0.001175
      f+2     :     0.001507
      f-2     :     0.000936
      f+3     :     0.003469
      f-3     :     0.002600

 14 C s       :     3.241753  s :     3.241753
      pz      :     1.021250  p :     2.931408
      px      :     0.894674
      py      :     1.015485
      dz2     :     0.005192  d :     0.064173
      dxz     :     0.019375
      dyz     :     0.007400
      dx2y2   :     0.017809
      dxy     :     0.014397
      f0      :     0.001296  f :     0.006880
      f+1     :     0.000580
      f-1     :     0.000976
      f+2     :     0.000075
      f-2     :     0.001036
      f+3     :     0.001826
      f-3     :     0.001092

 15 C s       :     3.240544  s :     3.240544
      pz      :     1.020471  p :     2.930987
      px      :     1.017514
      py      :     0.893002
      dz2     :     0.005193  d :     0.063967
      dxz     :     0.009062
      dyz     :     0.017604
      dx2y2   :     0.021286
      dxy     :     0.010822
      f0      :     0.001297  f :     0.006876
      f+1     :     0.000939
      f-1     :     0.000627
      f+2     :     0.000328
      f-2     :     0.000756
      f+3     :     0.001644
      f-3     :     0.001284

 16 C s       :     3.258750  s :     3.258750
      pz      :     0.979736  p :     2.904151
      px      :     1.025331
      py      :     0.899083
      dz2     :     0.005262  d :     0.067633
      dxz     :     0.009725
      dyz     :     0.021293
      dx2y2   :     0.020473
      dxy     :     0.010880
      f0      :     0.001231  f :     0.006881
      f+1     :     0.000905
      f-1     :     0.000613
      f+2     :     0.000437
      f-2     :     0.000763
      f+3     :     0.001670
      f-3     :     0.001263

 17 C s       :     3.257410  s :     3.257410
      pz      :     0.976786  p :     2.898348
      px      :     0.900015
      py      :     1.021546
      dz2     :     0.005106  d :     0.067089
      dxz     :     0.023465
      dyz     :     0.007256
      dx2y2   :     0.016958
      dxy     :     0.014304
      f0      :     0.001233  f :     0.006872
      f+1     :     0.000559
      f-1     :     0.000959
      f+2     :     0.000087
      f-2     :     0.001094
      f+3     :     0.001824
      f-3     :     0.001117

 18 C s       :     3.180467  s :     3.180467
      pz      :     0.977699  p :     2.987076
      px      :     1.082051
      py      :     0.927327
      dz2     :     0.003928  d :     0.064213
      dxz     :     0.003102
      dyz     :     0.030413
      dx2y2   :     0.015058
      dxy     :     0.011712
      f0      :     0.001095  f :     0.006434
      f+1     :     0.000672
      f-1     :     0.000817
      f+2     :     0.000405
      f-2     :     0.000628
      f+3     :     0.001134
      f-3     :     0.001683

 19 C s       :     3.181736  s :     3.181736
      pz      :     0.972854  p :     2.979396
      px      :     0.926778
      py      :     1.079763
      dz2     :     0.003897  d :     0.063485
      dxz     :     0.029955
      dyz     :     0.003028
      dx2y2   :     0.014468
      dxy     :     0.012137
      f0      :     0.001114  f :     0.006462
      f+1     :     0.000809
      f-1     :     0.000685
      f+2     :     0.000425
      f-2     :     0.000610
      f+3     :     0.001667
      f-3     :     0.001151

 20 C s       :     3.137659  s :     3.137659
      pz      :     0.955144  p :     2.556797
      px      :     0.760859
      py      :     0.840794
      dz2     :     0.002792  d :     0.115770
      dxz     :     0.034244
      dyz     :     0.027967
      dx2y2   :     0.028175
      dxy     :     0.022593
      f0      :     0.002009  f :     0.012846
      f+1     :     0.001192
      f-1     :     0.001070
      f+2     :     0.001488
      f-2     :     0.000963
      f+3     :     0.002668
      f-3     :     0.003457

 21 C s       :     3.146518  s :     3.146518
      pz      :     0.962040  p :     2.564891
      px      :     0.854120
      py      :     0.748731
      dz2     :     0.002852  d :     0.115279
      dxz     :     0.026702
      dyz     :     0.035241
      dx2y2   :     0.025239
      dxy     :     0.025246
      f0      :     0.002040  f :     0.012888
      f+1     :     0.001017
      f-1     :     0.001245
      f+2     :     0.001975
      f-2     :     0.000475
      f+3     :     0.004646
      f-3     :     0.001490

 22 C s       :     3.244229  s :     3.244229
      pz      :     1.014489  p :     2.930145
      px      :     1.018067
      py      :     0.897589
      dz2     :     0.005252  d :     0.066328
      dxz     :     0.007096
      dyz     :     0.022573
      dx2y2   :     0.017218
      dxy     :     0.014188
      f0      :     0.001285  f :     0.006976
      f+1     :     0.000988
      f-1     :     0.000580
      f+2     :     0.000070
      f-2     :     0.001141
      f+3     :     0.001084
      f-3     :     0.001828

 23 C s       :     3.243115  s :     3.243115
      pz      :     1.013305  p :     2.923375
      px      :     0.894239
      py      :     1.015830
      dz2     :     0.005271  d :     0.065995
      dxz     :     0.020208
      dyz     :     0.009098
      dx2y2   :     0.020460
      dxy     :     0.010958
      f0      :     0.001283  f :     0.006969
      f+1     :     0.000625
      f-1     :     0.000946
      f+2     :     0.000392
      f-2     :     0.000811
      f+3     :     0.001292
      f-3     :     0.001620

 24 H s       :     0.812240  s :     0.812240
      pz      :     0.010286  p :     0.019598
      px      :     0.003698
      py      :     0.005613

 25 H s       :     0.808959  s :     0.808959
      pz      :     0.007497  p :     0.019506
      px      :     0.003682
      py      :     0.008327

 26 H s       :     0.812688  s :     0.812688
      pz      :     0.010004  p :     0.019593
      px      :     0.006046
      py      :     0.003542

 27 H s       :     0.808873  s :     0.808873
      pz      :     0.007786  p :     0.019515
      px      :     0.008141
      py      :     0.003587

 28 H s       :     0.802684  s :     0.802684
      pz      :     0.004927  p :     0.020643
      px      :     0.002761
      py      :     0.012955

 29 H s       :     0.803229  s :     0.803229
      pz      :     0.004902  p :     0.020649
      px      :     0.012944
      py      :     0.002803

 30 H s       :     0.805170  s :     0.805170
      pz      :     0.004136  p :     0.020260
      px      :     0.002765
      py      :     0.013359

 31 H s       :     0.805133  s :     0.805133
      pz      :     0.004097  p :     0.020260
      px      :     0.012797
      py      :     0.003366

 32 H s       :     0.803746  s :     0.803746
      pz      :     0.003902  p :     0.020176
      px      :     0.012850
      py      :     0.003423

 33 H s       :     0.803966  s :     0.803966
      pz      :     0.003879  p :     0.020190
      px      :     0.002797
      py      :     0.013514

 34 H s       :     0.797847  s :     0.797847
      pz      :     0.004178  p :     0.020481
      px      :     0.013448
      py      :     0.002855

 35 H s       :     0.797595  s :     0.797595
      pz      :     0.004178  p :     0.020500
      px      :     0.002836
      py      :     0.013487

 36 H s       :     0.807099  s :     0.807099
      pz      :     0.004103  p :     0.020194
      px      :     0.013301
      py      :     0.002790

 37 H s       :     0.807550  s :     0.807550
      pz      :     0.004101  p :     0.020202
      px      :     0.003400
      py      :     0.012701

 38 Mgs       :     4.518095  s :     4.518095
      pz      :     2.152065  p :     6.521446
      px      :     2.188034
      py      :     2.181347
      dz2     :     0.038442  d :     0.302478
      dxz     :     0.045258
      dyz     :     0.041894
      dx2y2   :     0.039091
      dxy     :     0.137793

 39 O s       :     3.772597  s :     3.772597
      pz      :     1.674462  p :     4.695750
      px      :     1.646464
      py      :     1.374824
      dz2     :     0.004301  d :     0.024582
      dxz     :     0.002878
      dyz     :     0.005383
      dx2y2   :     0.003629
      dxy     :     0.008390
      f0      :     0.000181  f :     0.001531
      f+1     :     0.000074
      f-1     :     0.000235
      f+2     :     0.000241
      f-2     :     0.000209
      f+3     :     0.000222
      f-3     :     0.000369

 40 C s       :     3.282892  s :     3.282892
      pz      :     1.006708  p :     2.885576
      px      :     1.099077
      py      :     0.779790
      dz2     :     0.029669  d :     0.091709
      dxz     :     0.005120
      dyz     :     0.014727
      dx2y2   :     0.012230
      dxy     :     0.029963
      f0      :     0.000720  f :     0.007270
      f+1     :     0.000134
      f-1     :     0.002128
      f+2     :     0.000888
      f-2     :     0.001272
      f+3     :     0.001138
      f-3     :     0.000990

 41 H s       :     0.812713  s :     0.812713
      pz      :     0.012141  p :     0.018294
      px      :     0.003640
      py      :     0.002513

 42 H s       :     0.812740  s :     0.812740
      pz      :     0.003373  p :     0.018267
      px      :     0.010114
      py      :     0.004780

 43 H s       :     0.804516  s :     0.804516
      pz      :     0.003831  p :     0.019011
      px      :     0.008808
      py      :     0.006371

 44 H s       :     0.560091  s :     0.560091
      pz      :     0.012585  p :     0.045386
      px      :     0.017596
      py      :     0.015205



                     *******************************
                     * LOEWDIN POPULATION ANALYSIS *
                     *******************************

----------------------
LOEWDIN ATOMIC CHARGES
----------------------
   0 N :    0.198759
   1 N :    0.170098
   2 N :    0.175312
   3 N :    0.186407
   4 C :   -0.192848
   5 C :   -0.192678
   6 C :   -0.191068
   7 C :   -0.190621
   8 C :   -0.142066
   9 C :   -0.141230
  10 C :   -0.205141
  11 C :   -0.204077
  12 C :   -0.221628
  13 C :   -0.222911
  14 C :   -0.127805
  15 C :   -0.126738
  16 C :   -0.113487
  17 C :   -0.112719
  18 C :   -0.078561
  19 C :   -0.079130
  20 C :   -0.225872
  21 C :   -0.227431
  22 C :   -0.133318
  23 C :   -0.133690
  24 H :    0.153356
  25 H :    0.150397
  26 H :    0.153359
  27 H :    0.150426
  28 H :    0.164152
  29 H :    0.164294
  30 H :    0.146817
  31 H :    0.146928
  32 H :    0.148741
  33 H :    0.148845
  34 H :    0.168398
  35 H :    0.168397
  36 H :    0.146015
  37 H :    0.146044
  38 Mg:    0.065391
  39 O :    0.042337
  40 C :   -0.310247
  41 H :    0.113660
  42 H :    0.119770
  43 H :    0.129646
  44 H :    0.215716

-------------------------------
LOEWDIN REDUCED ORBITAL CHARGES
-------------------------------
  0 N s       :     2.975414  s :     2.975414
      pz      :     1.128238  p :     3.600398
      px      :     1.262049
      py      :     1.210110
      dz2     :     0.016266  d :     0.207032
      dxz     :     0.023225
      dyz     :     0.030497
      dx2y2   :     0.073135
      dxy     :     0.063908
      f0      :     0.001158  f :     0.018398
      f+1     :     0.001184
      f-1     :     0.001425
      f+2     :     0.002894
      f-2     :     0.000488
      f+3     :     0.006765
      f-3     :     0.004483

  1 N s       :     2.975543  s :     2.975543
      pz      :     1.197281  p :     3.636387
      px      :     1.187281
      py      :     1.251826
      dz2     :     0.016001  d :     0.199579
      dxz     :     0.031370
      dyz     :     0.023642
      dx2y2   :     0.068898
      dxy     :     0.059667
      f0      :     0.001115  f :     0.018393
      f+1     :     0.001357
      f-1     :     0.001235
      f+2     :     0.003467
      f-2     :     0.000347
      f+3     :     0.004614
      f-3     :     0.006257

  2 N s       :     2.972601  s :     2.972601
      pz      :     1.195548  p :     3.633663
      px      :     1.201115
      py      :     1.237000
      dz2     :     0.016082  d :     0.199978
      dxz     :     0.030534
      dyz     :     0.024226
      dx2y2   :     0.068069
      dxy     :     0.061067
      f0      :     0.001129  f :     0.018445
      f+1     :     0.001439
      f-1     :     0.001159
      f+2     :     0.003365
      f-2     :     0.000409
      f+3     :     0.004390
      f-3     :     0.006553

  3 N s       :     2.975465  s :     2.975465
      pz      :     1.170366  p :     3.615780
      px      :     1.247294
      py      :     1.198120
      dz2     :     0.015926  d :     0.203643
      dxz     :     0.025571
      dyz     :     0.033723
      dx2y2   :     0.068263
      dxy     :     0.060160
      f0      :     0.001088  f :     0.018705
      f+1     :     0.001178
      f-1     :     0.001385
      f+2     :     0.003752
      f-2     :     0.000362
      f+3     :     0.006433
      f-3     :     0.004506

  4 C s       :     2.766354  s :     2.766354
      pz      :     1.040339  p :     3.029344
      px      :     0.984101
      py      :     1.004904
[...]
  0-1A  ->  1-1A    2.235797   18032.9   554.5   0.229584584   0.02830  -0.10488   0.13142  -0.00482
  0-1A  ->  2-1A    2.582967   20833.0   480.0   0.012477555   0.00178   0.03249   0.02685  -0.00019
  0-1A  ->  3-1A    3.362693   27121.9   368.7   1.454577158   0.26963   0.40662   0.32294  -0.00132
  0-1A  ->  4-1A    3.533644   28500.8   350.9   1.133171403   0.22073   0.29118  -0.36854   0.01110
  0-1A  ->  5-1A    4.116300   33200.2   301.2   0.000538166   0.00012  -0.00941   0.00569  -0.00109
  0-1A  ->  6-1A    4.209544   33952.3   294.5   0.024217813   0.00562   0.05847   0.04692   0.00021
  0-1A  ->  7-1A    4.576526   36912.2   270.9   0.149124743   0.03762  -0.15270  -0.11941  -0.00676
  0-1A  ->  8-1A    4.757099   38368.6   260.6   0.069016299   0.01810  -0.08198   0.10662  -0.00308
  0-1A  ->  9-1A    4.783640   38582.7   259.2   0.000396256   0.00010   0.00816  -0.00607   0.00107
  0-1A  -> 10-1A    4.889460   39436.2   253.6   0.002083888   0.00056   0.01076  -0.02098  -0.00237
  0-1A  -> 11-1A    4.992912   40270.6   248.3   0.111842248   0.03078   0.10949  -0.13709   0.00084
  0-1A  -> 12-1A    5.053316   40757.7   245.4   0.000989760   0.00028  -0.00417   0.01041  -0.01224
  0-1A  -> 13-1A    5.075865   40939.6   244.3   0.014240689   0.00398  -0.04791  -0.04070   0.00579
  0-1A  -> 14-1A    5.271325   42516.1   235.2   0.011941128   0.00347  -0.04459  -0.03815   0.00514
  0-1A  -> 15-1A    5.355757   43197.1   231.5   0.027365986   0.00808  -0.08224  -0.03614  -0.00314
  0-1A  -> 16-1A    5.367658   43293.1   231.0   0.015379929   0.00455   0.01362   0.06607   0.00066
  0-1A  -> 17-1A    5.386717   43446.8   230.2   0.129061823   0.03832   0.12441  -0.15103   0.00580
  0-1A  -> 18-1A    5.478193   44184.6   226.3   0.160951343   0.04860   0.13764  -0.17207   0.00701
  0-1A  -> 19-1A    5.635906   45456.7   220.0   0.002874187   0.00089   0.01229  -0.00335  -0.02703
  0-1A  -> 20-1A    5.721333   46145.7   216.7   0.012347312   0.00389   0.03880  -0.04841  -0.00669
  0-1A  -> 21-1A    5.804936   46820.0   213.6   0.000281796   0.00009  -0.00365   0.00869  -0.00115
  0-1A  -> 22-1A    5.908459   47654.9   209.8   0.000734843   0.00024   0.00609  -0.00015  -0.01422
  0-1A  -> 23-1A    5.917507   47727.9   209.5   0.001535560   0.00050   0.01624  -0.01231   0.00924
  0-1A  -> 24-1A    5.982080   48248.7   207.3   0.025883499   0.00854  -0.05828   0.07162   0.00306
  0-1A  -> 25-1A    6.095008   49159.6   203.4   0.002039009   0.00069  -0.01347   0.02221  -0.00325
  0-1A  -> 26-1A    6.122963   49385.0   202.5   0.013259472   0.00448  -0.04856   0.04600   0.00092
  0-1A  -> 27-1A    6.196187   49975.6   200.1   0.006812168   0.00233   0.03796   0.02976   0.00041
  0-1A  -> 28-1A    6.218140   50152.7   199.4   0.000356173   0.00012   0.00074   0.01006  -0.00451
  0-1A  -> 29-1A    6.311764   50907.8   196.4   0.001257640   0.00044   0.00564   0.00360   0.01982
  0-1A  -> 30-1A    6.316094   50942.7   196.3   0.002139479   0.00074  -0.00833  -0.00241   0.02588

------------------------------------------------------------------------------------------
                     CD SPECTRUM VIA TRANSITION ELECTRIC DIPOLE MOMENTS    
------------------------------------------------------------------------------------------
     Transition      Energy     Energy  Wavelength    R        MX        MY        MZ   
                      (eV)      (cm-1)    (nm)   (1e40*cgs)   (au)      (au)      (au)  
------------------------------------------------------------------------------------------
  0-1A  ->  1-1A    2.235797   18032.9   554.5    6.61844   0.04871   0.01207  -0.99423
  0-1A  ->  2-1A    2.582967   20833.0   480.0   -0.34707   0.00887  -0.01340   0.00735
  0-1A  ->  3-1A    3.362693   27121.9   368.7  -31.13018   0.08276  -0.13031  -0.01085
  0-1A  ->  4-1A    3.533644   28500.8   350.9    4.73014  -0.11511  -0.09738  -0.09304
  0-1A  ->  5-1A    4.116300   33200.2   301.2   -1.49614  -0.01626   0.00304   0.67033
  0-1A  ->  6-1A    4.209544   33952.3   294.5   -2.46172   0.03374  -0.05986  -0.00903
  0-1A  ->  7-1A    4.576526   36912.2   270.9   -3.63940  -0.03082   0.05083  -0.00168
  0-1A  ->  8-1A    4.757099   38368.6   260.6    1.63181   0.05446   0.03454  -0.45719
  0-1A  ->  9-1A    4.783640   38582.7   259.2    0.17558   0.03491   0.02418  -0.04775
  0-1A  -> 10-1A    4.889460   39436.2   253.6   19.65148   0.20401  -0.26111  -0.06011
  0-1A  -> 11-1A    4.992912   40270.6   248.3   -3.62618  -0.03113  -0.02027  -0.82904
  0-1A  -> 12-1A    5.053316   40757.7   245.4    1.25680  -0.06288   0.03276   0.00570
  0-1A  -> 13-1A    5.075865   40939.6   244.3   -0.79962   0.00376   0.00203  -0.01211
  0-1A  -> 14-1A    5.271325   42516.1   235.2    0.21267  -0.01186   0.01212   0.00419
  0-1A  -> 15-1A    5.355757   43197.1   231.5   23.36900  -0.10488  -0.03654  -0.05873
  0-1A  -> 16-1A    5.367658   43293.1   231.0  -25.69345  -0.13852  -0.14002  -0.09005
  0-1A  -> 17-1A    5.386717   43446.8   230.2   -3.74904  -0.05061  -0.04570  -0.36719
  0-1A  -> 18-1A    5.478193   44184.6   226.3    2.60241  -0.06735  -0.05170   0.22064
  0-1A  -> 19-1A    5.635906   45456.7   220.0    1.19478   0.01414  -0.04539  -0.00961
  0-1A  -> 20-1A    5.721333   46145.7   216.7   10.55220  -0.01624  -0.03201  -0.52066
  0-1A  -> 21-1A    5.804936   46820.0   213.6    0.04677  -0.00893   0.00810   0.06437
  0-1A  -> 22-1A    5.908459   47654.9   209.8   -2.02295  -0.10948  -0.04770   0.02555
  0-1A  -> 23-1A    5.917507   47727.9   209.5   -1.36693  -0.05064  -0.05631  -0.04767
  0-1A  -> 24-1A    5.982080   48248.7   207.3   -1.74091   0.05463   0.02932   0.10964
  0-1A  -> 25-1A    6.095008   49159.6   203.4   -1.15608   0.11328   0.06397   0.13683
  0-1A  -> 26-1A    6.122963   49385.0   202.5   -0.42810  -0.07745  -0.08623   0.10401
  0-1A  -> 27-1A    6.196187   49975.6   200.1    9.64355   0.05998   0.09080  -0.01802
  0-1A  -> 28-1A    6.218140   50152.7   199.4   -0.85256  -0.06943  -0.02841   0.02771
  0-1A  -> 29-1A    6.311764   50907.8   196.4    2.52511   0.14869  -0.14125   0.05826
  0-1A  -> 30-1A    6.316094   50942.7   196.3   -1.10239  -0.09512   0.02481  -0.05305

------------------------------------------------------------------------------------------
                     CD SPECTRUM VIA TRANSITION VELOCITY DIPOLE MOMENTS    
------------------------------------------------------------------------------------------
     Transition      Energy     Energy  Wavelength    R        MX        MY        MZ   
                      (eV)      (cm-1)    (nm)   (1e40*cgs)   (au)      (au)      (au)  
------------------------------------------------------------------------------------------
  0-1A  ->  1-1A    2.235797   18032.9   554.5    7.29881   0.04871   0.01207  -0.99423
  0-1A  ->  2-1A    2.582967   20833.0   480.0   -0.36329   0.00887  -0.01340   0.00735
  0-1A  ->  3-1A    3.362693   27121.9   368.7  -32.11673   0.08276  -0.13031  -0.01085
  0-1A  ->  4-1A    3.533644   28500.8   350.9    4.86498  -0.11511  -0.09738  -0.09304
  0-1A  ->  5-1A    4.116300   33200.2   301.2   -1.75164  -0.01626   0.00304   0.67033
  0-1A  ->  6-1A    4.209544   33952.3   294.5   -2.55132   0.03374  -0.05986  -0.00903
  0-1A  ->  7-1A    4.576526   36912.2   270.9   -3.78837  -0.03082   0.05083  -0.00168
  0-1A  ->  8-1A    4.757099   38368.6   260.6    1.68890   0.05446   0.03454  -0.45719
  0-1A  ->  9-1A    4.783640   38582.7   259.2    0.23283   0.03491   0.02418  -0.04775
  0-1A  -> 10-1A    4.889460   39436.2   253.6   20.50913   0.20401  -0.26111  -0.06011
  0-1A  -> 11-1A    4.992912   40270.6   248.3   -3.41380  -0.03113  -0.02027  -0.82904
  0-1A  -> 12-1A    5.053316   40757.7   245.4    1.35491  -0.06288   0.03276   0.00570
  0-1A  -> 13-1A    5.075865   40939.6   244.3   -0.84077   0.00376   0.00203  -0.01211
  0-1A  -> 14-1A    5.271325   42516.1   235.2    0.21331  -0.01186   0.01212   0.00419
  0-1A  -> 15-1A    5.355757   43197.1   231.5   24.26512  -0.10488  -0.03654  -0.05873
  0-1A  -> 16-1A    5.367658   43293.1   231.0  -26.75928  -0.13852  -0.14002  -0.09005
  0-1A  -> 17-1A    5.386717   43446.8   230.2   -3.62704  -0.05061  -0.04570  -0.36719
  0-1A  -> 18-1A    5.478193   44184.6   226.3    2.74533  -0.06735  -0.05170   0.22064
  0-1A  -> 19-1A    5.635906   45456.7   220.0    1.33334   0.01414  -0.04539  -0.00961
  0-1A  -> 20-1A    5.721333   46145.7   216.7    9.87499  -0.01624  -0.03201  -0.52066
  0-1A  -> 21-1A    5.804936   46820.0   213.6    0.06439  -0.00893   0.00810   0.06437
  0-1A  -> 22-1A    5.908459   47654.9   209.8   -2.21997  -0.10948  -0.04770   0.02555
  0-1A  -> 23-1A    5.917507   47727.9   209.5   -1.23509  -0.05064  -0.05631  -0.04767
  0-1A  -> 24-1A    5.982080   48248.7   207.3   -1.60466   0.05463   0.02932   0.10964
  0-1A  -> 25-1A    6.095008   49159.6   203.4   -1.15673   0.11328   0.06397   0.13683
  0-1A  -> 26-1A    6.122963   49385.0   202.5   -0.23128  -0.07745  -0.08623   0.10401
  0-1A  -> 27-1A    6.196187   49975.6   200.1   10.29301   0.05998   0.09080  -0.01802
  0-1A  -> 28-1A    6.218140   50152.7   199.4   -0.95339  -0.06943  -0.02841   0.02771
  0-1A  -> 29-1A    6.311764   50907.8   196.4    3.01554   0.14869  -0.14125   0.05826
  0-1A  -> 30-1A    6.316094   50942.7   196.3   -1.30050  -0.09512   0.02481  -0.05305

Total run time:    12940.327 sec

           *** ORCA-CIS/TD-DFT FINISHED WITHOUT ERROR ***
-----------------------
CIS/TD-DFT TOTAL ENERGY
-----------------------

    E(SCF)  =  -1305.504756367 Eh
    DE(CIS) =      0.082164038 Eh (Root  1)
    ----------------------------- ---------
    E(tot)  =  -1305.422592329 Eh


Maximum memory used throughout the entire CIS-calculation: 2678.7 MB
=> NOW LEAVING ORCA_CIS

-------------------------   --------------------
FINAL SINGLE POINT ENERGY     -1305.422592328628
-------------------------   --------------------



           ************************************************************
           *        Program running with 4 parallel MPI-processes     *
           *              working on a common directory               *
           ************************************************************

------------------------------------------------------------------------------
                              ORCA PROPERTY CALCULATIONS
------------------------------------------------------------------------------

GBWName                                 ... tddft.gbw
Number of atoms                         ...     45
Number of basis functions               ...    946
Max core memory                         ...   3000 MB

Electric properties:
Dipole moment                           ... YES
Quadrupole moment                       ...  NO
Static polarizability (Dipole/Dipole)   ...  NO
Static polarizability (Dipole/Quad.)    ...  NO
Static polarizability (Quad./Quad.)     ...  NO
Static polarizability (Velocity)        ...  NO
Static hyperpolarizability              ...  NO

Atomic electric properties:
Dipole moment                           ...  NO
Quadrupole moment                       ...  NO
Static polarizability                   ...  NO

Choice of electric origin               ... Center of mass
Position of electric origin             ...    -0.077141     0.049892     0.452512

General magnetic properties:
Magnetizability                         ...  NO

EPR properties:
g-Tensor (aka g-matrix)                 ...  NO
Zero-Field splitting spin-orbit         ...  NO
Zero-field splitting spin-spin          ...  NO
Hyperfine couplings                     ...  NO (   0 nuclei)
Quadrupole couplings                    ...  NO (   0 nuclei)
Contact density                         ...  NO (   0 nuclei)

NMR properties:
Chemical shifts                         ...  NO (   0 nuclei)
Spin-rotation constants                 ...  NO (   0 nuclei)
Spin-spin couplings                     ...  NO (   0 nuclei,    0 pairs)

Choice of magnetic origin               ... GIAO
Position of magnetic origin             ...     0.000000     0.000000     0.000000

Properties with geometric perturbations:
SCF Hessian                             ...  NO
IR spectrum                             ...  NO
VCD spectrum                            ...  NO
X-ray spectroscopy properties:
SCF XES/XAS/RIXS spectra                ...  NO

SCF SOC stabilization energy            ...  NO
Diagonal Born-Oppenheimer correction    ...  NO

-------------
DIPOLE MOMENT
-------------

Method             : SCF
Type of density    : Electron Density
Multiplicity       :   1
Irrep              :   0
Energy             : -1305.5047563669122610 Eh
Basis              : AO
                                X                 Y                 Z
Electronic contribution:     -4.531598369      -1.724359034      -5.543458858
Nuclear contribution   :      5.006084294       2.352758219       6.921870493
                        -----------------------------------------
Total Dipole Moment    :      0.474485925       0.628399185       1.378411635
                        -----------------------------------------
Magnitude (a.u.)       :      1.587463721
Magnitude (Debye)      :      4.035012110



--------------------
Rotational spectrum 
--------------------
 
Rotational constants in cm-1:             0.007903             0.007607             0.004332 
Rotational constants in MHz :           236.928580           228.062756           129.873859 

Dipole components along the rotational axes: 
x,y,z [a.u.] :     0.740509     0.030892     1.403828 
x,y,z [Debye]:     1.882225     0.078521     3.568247 

 

Dipole moment calculation done in   0.0 sec 

Maximum memory used throughout the entire PROP-calculation: 107.1 MB

--------------------------------
SUGGESTED CITATIONS FOR THIS RUN
--------------------------------

Below you find a list of papers that are relevant to this ORCA run
We neither can nor want to force you to cite these papers, but we appreciate if you do
You receive ORCA, which is the product of decades of hard work by many enthusiastic individuals, for free
The only thing we kindly ask in return is that you cite our papers,
We deeply appreciate it, if you show your appreciation for ORCA by not just citing the generic ORCA reference.

Please note that relegating all ORCA citations to the supporting information does *not* help us.
SI sections are not indexed - citations you put there will not count into any citation statistics
But we need these citations in order to attract the funding resources that allow us to do what we are doing

Therefore, if you are a happy ORCA user, please consider citing a few of the papers listed below in the main body of your paper

In addition to the list printed below, the program has created the file tddft.bibtex that contains the list in bibtex format
You can import this file easily into all common literature databanks and citation aid programs

It goes without saying that in many instances, there are alternative algorithms to achieve similar
results as the ones you have gotten from ORCA. It is, of course, also the case that in some instances
ORCA just re-implements algorithms worked out by others. We are fully aware of that and we are also
fully appreciative of our colleagues work. Hence this citation list should not be read as indicating
that the listed papers, which are focused on our own work, are the only ones worth citing. It simply
meant to make it easier for users to cite ORCA specific papers. It is not a substitute for doing your
own literature research and citing the relevant literature in a scientifically appropriate manner.

List of essential papers. We consider these as the minimum necessary citations

  1. Neese, F.
     Software update: the ORCA program system, version 6.0
     WIRES Comput. Molec. Sci. 2025 15(1), e70019
     doi.org/10.1002/wcms.70019

List of papers to cite with high priority. The work reported in these papers was absolutely
necessary for this run to complete.
Our perspective: the developers of density functionals and basis sets usually get cited in chemistry papers
Good! But without the algorithms to do something with them, the functionals or basis sets would not do anything.
Hence, in our opinion, the algorithm design and method developments papers are equally worthy of getting cited

  1. Neese, F.; Olbrich, G.
     Efficient use of the resolution of the identity approximation in time-dependent density functional calculations with hybrid density functionals
     Chem. Phys. Lett. 2002 362 , 170-178
     doi.org/10.1016/s0009-2614(02)01053-9
  2. Neese, F.
     An improvement of the resolution of the identity approximation for the formation of the Coulomb matrix
     J. Comp. Chem. 2003 24(14), 1740-1747
     doi.org/10.1002/jcc.10318
  3. Neese, F.; Wennmohs, F.; Hansen, A.; Becker, U.
     Efficient, approximate and parallel Hartree-Fock and hybrid DFT calculations. A 'chain-of-spheres' algorithm for the Hartree-Fock exchange
     Chem. Phys. 2009 356(1-3), 98-109
     doi.org/10.1016/j.chemphys.2008.10.036
  4. Garcia-Rates, M.; Neese, F.
     Effect of the Solute Cavity on the Solvation Energy and its Derivatives within the Framework of the Gaussian Charge Scheme
     J. Comput. Chem. 2020 41 , 922-939
     doi.org/10.1002/jcc.26139
  5. Helmich-Paris, B.; de Souza, B.; Neese, F.; Izsák, R.
     An improved chain of spheres for exchange algorithm
     J. Chem. Phys. 2021 155(10), 104109
     doi.org/10.1063/5.0058766
  6. Neese, F.
     The SHARK Integral Generation and Digestion System
     J. Comp. Chem. 2022 44(3), 381
     doi.org/10.1002/jcc.26942

List of suggested additional citations. These are papers that are important in the 'surrounding' of 
of this run, or papers that preceded the highly important papers. If you like your results we are grateful for a citation.

  1. Izsak, R.; Neese, F.
     An overlap fitted chain of spheres exchange method
     J. Chem. Phys. 2011 135 , 144105
     doi.org/10.1063/1.3646921
  2. Izsak, R.; Hansen, A.; Neese, F.
     The resolution of identity and chain of spheres approximations for the LPNO-CCSD singles Fock term
     Molec. Phys. 2012 110 , 2413-2417
     doi.org/10.1080/00268976.2012.687466
  3. Neese, F.
     The ORCA program system
     WIRES Comput. Molec. Sci. 2012 2(1), 73-78
     doi.org/10.1002/wcms.81
  4. Izsak, R.; Neese, F.; Klopper, W.
     Robust fitting techniques in the chain of spheres approximation to the Fock exchange: The role of the complementary space
     J. Chem. Phys. 2013 139 , 
     doi.org/10.1063/1.4819264
  5. Neese, F.
     Software update: the ORCA program system, version 4.0
     WIRES Comput. Molec. Sci. 2018 8(1), 1-6
     doi.org/10.1002/wcms.1327
  6. Neese, F.; Wennmohs, F.; Becker, U.; Riplinger, C.
     The ORCA quantum chemistry program package
     J. Chem. Phys. 2020 152(22), 224108
     doi.org/10.1063/5.0004608
  7. Neese, F.
     Software update: The ORCA program system—Version 5.0
     WIRES Comput. Molec. Sci. 2022 12(1), e1606
     doi.org/10.1002/wcms.1606

List of optional additional citations

  1. Neese, F.
     Approximate second-order SCF convergence for spin unrestricted wavefunctions
     Chem. Phys. Lett. 2000 325(1-3), 93-98
     doi.org/10.1016/s0009-2614(00)00662-x

Timings for individual modules:

Sum of individual times          ...    15294.263 sec (= 254.904 min)
Startup calculation              ...       39.059 sec (=   0.651 min)   0.3 %
SCF iterations                   ...     2309.310 sec (=  38.489 min)  15.1 %
Property integrals               ...        4.205 sec (=   0.070 min)   0.0 %
Property calculations            ...        0.649 sec (=   0.011 min)   0.0 %
CIS module                       ...    12941.039 sec (= 215.684 min)  84.6 %
                             ****ORCA TERMINATED NORMALLY****
TOTAL RUN TIME: 0 days 4 hours 14 minutes 54 seconds 660 msec
