
                                 *****************
                                 * O   R   C   A *
                                 *****************

                                            #,                                       
                                            ###                                      
                                            ####                                     
                                            #####                                    
                                            ######                                   
                                           ########,                                 
                                     ,,################,,,,,                         
                               ,,#################################,,                 
                          ,,##########################################,,             
                       ,#########################################, ''#####,          
                    ,#############################################,,   '####,        
                  ,##################################################,,,,####,       
                ,###########''''           ''''###############################       
              ,#####''   ,,,,##########,,,,          '''####'''          '####       
            ,##' ,,,,###########################,,,                        '##       
           ' ,,###''''                  '''############,,,                           
         ,,##''                                '''############,,,,        ,,,,,,###''
      ,#''                                            '''#######################'''  
     '                                                          ''''####''''         
             ,#######,   #######,   ,#######,      ##                                
            ,#'     '#,  ##    ##  ,#'     '#,    #''#        ,####,    ,#,          
            ##       ##  ##   ,#'  ##            #'  '#       #'       ,# #          
            ##       ##  #######   ##           ,######,      #####,      #          
            '#,     ,#'  ##    ##  '#,     ,#' ,#      #,     #,   #      #          
             '#######'   ##     ##  '#######'  #'      '#     '####' #    #          



                #########################################################
                #                        -***-                          #
                #          Department of theory and spectroscopy        #
                #                                                       #
                #                      Frank Neese                      #
                #                                                       #
                #     Directorship, Architecture, Infrastructure        #
                #                    SHARK, DRIVERS                     #
                #        Core code/Algorithms in most modules           #
                #                                                       #
                #        Max Planck Institute fuer Kohlenforschung      #
                #                Kaiser Wilhelm Platz 1                 #
                #                 D-45470 Muelheim/Ruhr                 #
                #                      Germany                          #
                #                                                       #
                #                  All rights reserved                  #
                #                        -***-                          #
                #########################################################


                         Program Version 6.1.1  -  RELEASE   -
                                (GIT: $487d211c$)
                          ($2025-11-21 10:33:24 +0100$)


 With contributions from (in alphabetic order):
[Max-Planck-Institut fuer Kohlenforschung]                               
  Daniel Aravena         : Magnetic Suceptibility                        
  Michael Atanasov       : Ab Initio Ligand Field Theory (pilot matlab implementation)
  Alexander A. Auer      : GIAO ZORA, VPT2 properties, NMR spectrum      
  Ute Becker             : All parallelization in ORCA, NUMFREQ, NUMCALC 
  Giovanni Bistoni       : ED, misc. LED, open-shell LED, HFLD           
  Dmytro Bykov           : pre 5.0 version of the SCF Hessian            
  Marcos Casanova-Páez   : Triplet and SCS-CIS(D). UHF-(DLPNO)-IP/EA/STEOM-CCSD. UHF-CVS-IP/STEOM-CCSD   
  Vijay G. Chilkuri      : MRCI spin determinant printing, contributions to CSF-ICE 
  Pauline Colinet        : FMM embedding                                 
  Dipayan Datta          : RHF DLPNO-CCSD density                        
  Achintya Kumar Dutta   : EOM-CC, STEOM-CC                              
  Nicolas Foglia         : Exact transition moments, OPA infrastructure, MCD improvements    
  Dmitry Ganyushin       : Spin-Orbit,Spin-Spin,Magnetic field MRCI      
  Miquel Garcia-Rates    : C-PCM and meta-GGA Hessian, CCSD/C-PCM, Gaussian charge scheme 
  Tiago L. C. Gouveia    : GS-ROHF, GS-ROCIS                             
  Yang Guo               : DLPNO-NEVPT2, F12-NEVPT2, CIM, IAO-localization        
  Andreas Hansen         : Spin unrestricted coupled pair/coupled cluster methods 
  Ingolf Harden          : AUTO-CI MPn and infrastructure                
  Benjamin Helmich-Paris : MC-RPA, TRAH-(SCF,CASSCF), AVAS, COSX integrals, SCF dyn. polar., MC-PDFT, srDFT 
  Lee Huntington         : MR-EOM, pCC                                   
  Robert Izsak           : Overlap fitted RIJCOSX, COSX-SCS-MP3, EOM     
  Riya Kayal             : Wick's Theorem for AUTO-CI, AUTO-CI UHF-CCSDT 
  Emily Kempfer          : AUTO-CI RHF CISDT and CCSDT, approximate NEVPT4
  Christian Kollmar      : KDIIS, OOCD, Brueckner-CCSD(T), CCSD density, CASPT2, CASPT2-K, improved NEVPT2 
  Axel Koslowski         : Symmetry handling                             
  Simone Kossmann        : meta-GGA functionals, TD-DFT gradient, OOMP2, (MP2 Hessian; deprecated post 5.0) 
  Lucas Lang             : DCDCAS, Hyperfine gauge corrections, ICE-SOC+SSC
  Marvin Lechner         : AUTO-CI (C++ implementation), FIC-MRCC        
  Spencer Leger          : CASSCF response                               
  Dagmar Lenk            : GEPOL surface, SMD, ORCA-2-JSON               
  Dimitrios Liakos       : Extrapolation schemes; Compound Job, Property file
  Dimitrios Manganas     : Further ROCIS development; embedding schemes. LFT, Crystal Embedding 
  Dimitrios Pantazis     : SARC Basis sets                               
  Anastasios Papadopoulos: AUTO-CI, single reference methods and gradients 
  Taras Petrenko         : pre 6.0 DFT Hessian and TD-DFT gradient,  ECA, NRVS 
  Petra Pikulova         : Analytic Raman intensities                    
  Peter Pinski           : DLPNO-MP2, DLPNO-MP2 Gradient                 
  Shashank Vittal Rao    : ES-AILFT, MagRelax                            
  Christoph Reimann      : Effective Core Potentials                     
  Marius Retegan         : Local ZFS, SOC                                
  Christoph Riplinger    : Optimizer, TS searches, QM/MM, DLPNO-CCSD(T), (RO)-DLPNO pert. Triples 
  Michael Roemelt        : Original ROCIS implementation, recursive CI coupling coefficients
  Masaaki Saitow         : Open-shell DLPNO-CCSD energy and density      
  Barbara Sandhoefer     : DKH picture change effects                    
  Yorick L. A. Schmerwitz: GMF and freeze-and-release deltaSCF, NEB S-IDPP initial path                    
  Kantharuban Sivalingam : CASSCF convergence/infrastructure, NEVPT2, NEVPT3, NEVPT4(SD), FIC-MRCI and CEPA variants
  Bernardo de Souza      : ESD, SOC TD-DFT                               
  Georgi L. Stoychev     : AutoAux, RI-MP2 NMR, DLPNO-MP2 response, X2C  
  Van Anh Tran           : RI-MP2 g-tensors                              
  Willem Van den Heuvel  : Paramagnetic NMR                              
  Zikuan Wang            : NOTCH, Electric field optimization            
  Frank Wennmohs         : Technical directorship and infrastructure     
  Hang Xu                : AUTO-CI-Response properties                   
                                                                         
[FACCTs GmbH]                                                            
  Markus Bursch, Nicolas Foglia, Miquel Garcia-Rates, Ingolf Harden, Hagen Neugebauer, Anastasios Papadopoulos, 
  Christoph Riplinger, Bernardo de Souza, Georgi L. Stoychev                                                    
                                                                 
  APM, various basis sets, CI-OPT, improved COSX, DLPNO-Multilevel,           
  DOCKER, DRACO, updates on ESD, Fragmentator, GOAT, IRC, LR-CPCM, L-BFGS, MBIS, meta-GGA TD-DFT gradient, ML-optimized integration grids, 
  MM, NACMEs, nearIR, NEB, NEB-TS, NL-DFT gradient (VV10), 2- and 3-layer-ONIOM, interface openCOSMO-RS, QMMM,   
  Crystal-QMMM, RESP, rigid body optimization, SF, symmetry and pop. for TD-DFT, various functionals, SOLVATOR                                   
                                                                         
[Other institutions]                                                     
  V. Asgeirsson          : NEB                                           
  Christoph Bannwarth    : sTDA-DFT, sTD-DFT, PBEh-3c, B97-3c, D3        
  Giovanni Bistoni       : ETS/NOCV, ADLD/ADEX, COVALED                  
  Martin Brehm           : Molecular dynamics                            
  Ronald Cardenas        : ETS/NOCV                                      
  Martina Colucci        : COVALED                                       
  Sebastian Ehlert       : rSCAN, r2SCAN, r2SCAN-3c, D4, dhf basis sets  
  Marvin Friede          : D4 for Fr, Ra, Ac-Lr                          
  Lars Goerigk           : TD-DFT with DH, B97 family of functionals     
  Stefan Grimme          : VdW corrections, initial TS optimization, DFT functionals, gCP, sTDA/sTD-DF 
  Waldemar Hujo          : DFT-NL                                        
  H. Jonsson             : NEB                                           
  Holger Kruse           : gCP                                           
  Marcel Mueller         : wB97X-3c, vDZP basis set                      
  Hagen Neugebauer       : wr2SCAN, Native XTB                           
  Gianluca Regni         : ADLD/ADEX                                     
  Tobias Risthaus        : pre 6.0 range-separated hybrid DFT and stability analysis
  Lukas Wittmann         : regularized MP2, r2SCAN double-hybrids, wr2SCAN        
                                                                         
We gratefully acknowledge several colleagues who have allowed us to      
interface, adapt or use parts of their codes:                            
  Ed Valeev, F. Pavosevic, A. Kumar             : LibInt (2-el integral package), F12 methods 
  Garnet Chan, S. Sharma, J. Yang, R. Olivares  : DMRG                   
  Ulf Ekstrom                                   : XCFun DFT Library      
  Mihaly Kallay                                 : mrcc  (arbitrary order and MRCC methods)
  Frank Weinhold                                : gennbo (NPA and NBO analysis)           
  Simon Mueller                                 : openCOSMO-RS                            
  Christopher J. Cramer and Donald G. Truhlar   : smd solvation model                     
  S Lehtola, MJT Oliveira, MAL Marques          : LibXC Library                           
  Liviu Ungur et al                             : ANISO software                          


 Your calculation uses the libint2 library for the computation of 2-el integrals
 For citations please refer to: http://libint.valeyev.net

 Your ORCA version has been built with support for libXC version: 7.0.0
 For citations please refer to: https://libxc.gitlab.io

 This ORCA versions uses:
   CBLAS   interface :  Fast vector & matrix operations
   LAPACKE interface :  Fast linear algebra routines
   SCALAPACK package :  Parallel linear algebra routines
   Shared memory     :  Shared parallel matrices
   BLAS/LAPACK       :  OpenBLAS 0.3.29  USE64BITINT DYNAMIC_ARCH NO_AFFINITY Haswell SINGLE_THREADED
        Core in use  :  Haswell
   Copyright (c) 2011-2014, The OpenBLAS Project


  ***********************************
  * Starting time: Fri Jul 10 19:00:45 2026
  * Host name:     steezy
  * Process ID:    2052707
  * Working dir.:  /home/jannes/chlorophyll-ladder/009-mgchlorin-axial-ligation/mgchlorin_h2o/03_tddft_ch2cl2/camb3lyp
  ***********************************

NOTE: MaxCore=3000 MB was set to SCF,MP2,MDCI,CIPSI,MRCI,RASCI and CIS
      => If you want to overwrite this, your respective input block should be placed after the MaxCore statement


***************************************
The coordinates will be read from file: /home/jannes/chlorophyll-ladder/009-mgchlorin-axial-ligation/mgchlorin_h2o/01_opt/mgchlorin_h2o_opt_b3lypd4_tzvp.xyz
***************************************


XCFun DFT library Copyright 2009-2010 Ulf Ekstrom and contributors.
See http://admol.org/xcfun for more information.
This is free software; see the source code for copying conditions.
There is ABSOLUTELY NO WARRANTY; not even for MERCHANTABILITY or FITNESS FOR A PARTICULAR PURPOSE.
For details see the documentation.
Scientific users of this library should cite U. Ekstrom, L. Visscher, R. Bast, A. J. Thorvaldsen and K. Ruud;
J.Chem.Theor.Comp. 2010, DOI: 10.1021/ct100117s
XCFun Version 0.99 

================================================================================

----- Orbital basis set information -----
Your calculation utilizes the basis: def2-TZVP
   F. Weigend and R. Ahlrichs, Phys. Chem. Chem. Phys. 7, 3297 (2005).

----- AuxJ basis set information -----
Your calculation utilizes the auxiliary basis: def2/J
   H-Rn: F. Weigend, Phys. Chem. Chem. Phys. 8, 1057 (2006).
   Fr-Lr: K. Eichkorn, F. Weigend, O. Treutler, R. Ahlrichs; Theor. Chem. Acc. 97, 119 (1997).

================================================================================
                                        WARNINGS
                       Please study these warnings very carefully!
================================================================================


WARNING: CIS/ROCIS methods need fully converged wavefunctions
  ===> : Setting SCFConvForced true
         You can overwrite this default with %scf ConvForced false 


================================================================================
                                       INPUT FILE
================================================================================
NAME = tddft.inp
|  1> %pal nprocs 4 end
|  2> %maxcore 3000
|  3> ! CAM-B3LYP def2-TZVP def2/J RIJCOSX DefGrid3 TightSCF CPCM(CH2Cl2)
|  4> %tddft
|  5>   nroots 30
|  6>   tda false
|  7>   triplets false
|  8> end
|  9> * xyzfile 0 1 /home/jannes/chlorophyll-ladder/009-mgchlorin-axial-ligation/mgchlorin_h2o/01_opt/mgchlorin_h2o_opt_b3lypd4_tzvp.xyz
| 10> 
| 11>                          ****END OF INPUT****
================================================================================

                       ****************************
                       * Single Point Calculation *
                       ****************************

---------------------------------
CARTESIAN COORDINATES (ANGSTROEM)
---------------------------------
  N      1.626237    1.306031    0.038938
  N     -1.306004    1.563454    0.073494
  N      1.278091   -1.617727    0.032663
  N     -1.618670   -1.330354   -0.001239
  C      2.884212    3.312096   -0.106744
  C      3.851613    2.129509    0.036084
  C      1.518889    2.656943   -0.000259
  C      2.927476    0.924704    0.029433
  C      0.345098    3.375640    0.024626
  C      3.390098   -0.371684    0.030361
  C     -0.971571    2.875123    0.046632
  C      2.630694   -1.558342    0.009504
  C     -2.683428    1.493746    0.043446
  C      0.927764   -2.950452   -0.032204
  C     -2.163831    3.684590    0.016307
  C      3.178677   -2.889613   -0.057444
  C     -3.222005    2.827457    0.015258
  C      2.122768   -3.749464   -0.083712
  C     -3.424259    0.324812    0.012386
  C     -0.368495   -3.435740   -0.062660
  C     -2.939096   -0.989888   -0.017415
  C     -1.556212   -2.691802   -0.053844
  C     -3.744507   -2.176095   -0.081554
  C     -2.883300   -3.235943   -0.104918
  H      2.984308    3.808734   -1.074923
  H      3.023248    4.077480    0.657932
  H      4.413638    2.168171    0.972749
  H      4.583647    2.075155   -0.770467
  H      0.439997    4.454120   -0.009359
  H      4.465764   -0.498594    0.017958
  H     -2.182660    4.763077   -0.012865
  H      4.230416   -3.128335   -0.092018
  H     -4.272860    3.071062   -0.014968
  H      2.146008   -4.826710   -0.143520
  H     -4.501372    0.438383   -0.010408
  H     -0.477643   -4.512439   -0.111844
  H     -4.822977   -2.197036   -0.110605
  H     -3.125386   -4.286224   -0.156604
  Mg    -0.024410   -0.037383    0.259696
  O      0.089462    0.001641    2.400445
  H     -0.015446    0.876043    2.793738
  H      0.906415   -0.374880    2.748982

----------------------------
CARTESIAN COORDINATES (A.U.)
----------------------------
  NO LB      ZA    FRAG     MASS         X           Y           Z
   0 N     7.0000    0    14.007    3.073142    2.468041    0.073583
   1 N     7.0000    0    14.007   -2.467990    2.954499    0.138883
   2 N     7.0000    0    14.007    2.415242   -3.057062    0.061724
   3 N     7.0000    0    14.007   -3.058844   -2.514004   -0.002341
   4 C     6.0000    0    12.011    5.450370    6.258954   -0.201717
   5 C     6.0000    0    12.011    7.278494    4.024188    0.068188
   6 C     6.0000    0    12.011    2.870285    5.020895   -0.000488
   7 C     6.0000    0    12.011    5.532128    1.747438    0.055620
   8 C     6.0000    0    12.011    0.652140    6.379035    0.046536
   9 C     6.0000    0    12.011    6.406357   -0.702381    0.057374
  10 C     6.0000    0    12.011   -1.836003    5.433195    0.088122
  11 C     6.0000    0    12.011    4.971290   -2.944840    0.017959
  12 C     6.0000    0    12.011   -5.070944    2.822771    0.082100
  13 C     6.0000    0    12.011    1.753220   -5.575546   -0.060857
  14 C     6.0000    0    12.011   -4.089048    6.962866    0.030817
  15 C     6.0000    0    12.011    6.006830   -5.460577   -0.108554
  16 C     6.0000    0    12.011   -6.088707    5.343119    0.028833
  17 C     6.0000    0    12.011    4.011451   -7.085461   -0.158192
  18 C     6.0000    0    12.011   -6.470911    0.613806    0.023406
  19 C     6.0000    0    12.011   -0.696355   -6.492607   -0.118411
  20 C     6.0000    0    12.011   -5.554086   -1.870617   -0.032909
  21 C     6.0000    0    12.011   -2.940814   -5.086769   -0.101750
  22 C     6.0000    0    12.011   -7.076093   -4.112224   -0.154114
  23 C     6.0000    0    12.011   -5.448647   -6.115046   -0.198266
  24 H     1.0000    0     1.008    5.639524    7.197465   -2.031310
  25 H     1.0000    0     1.008    5.713110    7.705321    1.243310
  26 H     1.0000    0     1.008    8.340566    4.097250    1.838229
  27 H     1.0000    0     1.008    8.661837    3.921474   -1.455971
  28 H     1.0000    0     1.008    0.831474    8.417068   -0.017687
  29 H     1.0000    0     1.008    8.439072   -0.942206    0.033937
  30 H     1.0000    0     1.008   -4.124629    9.000911   -0.024312
  31 H     1.0000    0     1.008    7.994329   -5.911696   -0.173889
  32 H     1.0000    0     1.008   -8.074535    5.803466   -0.028286
  33 H     1.0000    0     1.008    4.055367   -9.121160   -0.271213
  34 H     1.0000    0     1.008   -8.506360    0.828424   -0.019668
  35 H     1.0000    0     1.008   -0.902615   -8.527274   -0.211354
  36 H     1.0000    0     1.008   -9.114105   -4.151796   -0.209014
  37 H     1.0000    0     1.008   -5.906123   -8.099789   -0.295939
  38 Mg   12.0000    0    24.305   -0.046129   -0.070645    0.490755
  39 O     8.0000    0    15.999    0.169058    0.003101    4.536184
  40 H     1.0000    0     1.008   -0.029188    1.655482    5.279399
  41 H     1.0000    0     1.008    1.712876   -0.708421    5.194824

--------------------------------
INTERNAL COORDINATES (ANGSTROEM)
--------------------------------
 N      0   0   0     0.000000000000     0.00000000     0.00000000
 N      1   0   0     2.943721516731     0.00000000     0.00000000
 N      1   2   0     2.944419744066    88.22821202     0.00000000
 N      3   1   2     2.911178508507    91.12635037     1.34167266
 C      1   2   3     2.372345005729   117.06317661   176.24693010
 C      5   1   2     1.534528707660    71.15009076   176.59765671
 C      1   2   3     1.355737662676    80.46391429   178.06387760
 C      1   2   3     1.355995573600   168.68126818   358.54301494
 C      7   1   2     1.376564826847   125.96068500     1.52248966
 C      8   1   7     1.376459981018   125.97094915   181.58682588
 C      2   1   3     1.353899199071    80.70233079   181.18489476
 C      3   1   2     1.354103508536    80.69908692   179.66364965
 C      2   1   3     1.379514252775   171.85646874   346.50317993
 C      3   1   2     1.379525682750   171.65892207    18.71192698
 C     11   2   1     1.441402530311   109.88694227   178.63361876
 C     12   3   1     1.441197157130   109.88239714   182.19272878
 C     15  11   2     1.361767479563   106.81528502   359.54521630
 C     16  12   3     1.361975943462   106.81521067     0.43000617
 C     13   2  11     1.384269234552   125.27672082   177.73206013
 C     14   3  12     1.384456718752   125.27054729   181.49849213
 C      4   3   1     1.363708574783   171.20756988     0.24138409
 C      4   3   1     1.363894974438    81.74059628   177.77833719
 C     21   4  22     1.435231524833   109.72751259     0.04335446
 C     23  21   4     1.365833301255   106.75377651   359.94336044
 H      5   1   2     1.092720945061   119.16379692   281.85954556
 H      5   1   2     1.090812952053   128.16075500    71.36484840
 H      6   5   1     1.093026947053   112.12690580   244.91754971
 H      6   5   1     1.090573515161   113.12488809   123.95340319
 H      9   7   1     1.083181006441   116.39489105   179.72259474
 H     10   8   1     1.083198326177   116.36560415   179.77296715
 H     15  11   2     1.079045426292   125.19031665   180.27269833
 H     16  12   3     1.079045146572   125.20154794   179.71013310
 H     17  15  11     1.079144728524   127.92460432   180.75444031
 H     18  16  12     1.079155013060   127.92162589   179.28104477
 H     19  13   2     1.083323844085   116.36285765   180.08911017
 H     20  14   3     1.083334754912   116.34088540   180.12999787
 H     23  21   4     1.079063908001   125.31735682   180.27287049
 H     24  23  21     1.079058313192   127.92546313   180.33697144
 Mg     2   1   3     2.059085410304    46.61425575     7.93257506
 O     39   2   1     2.144130582759    96.26875525    92.81001535
 H     40  39   2     0.964501862100   114.69880499   329.89614876
 H     40  39   2     0.964707027710   113.49002546   205.95922581

---------------------------
INTERNAL COORDINATES (A.U.)
---------------------------
 N      0   0   0     0.000000000000     0.00000000     0.00000000
 N      1   0   0     5.562827481153     0.00000000     0.00000000
 N      1   2   0     5.564146939595    88.22821202     0.00000000
 N      3   1   2     5.501330108036    91.12635037     1.34167266
 C      1   2   3     4.483082356004   117.06317661   176.24693010
 C      5   1   2     2.899839002117    71.15009076   176.59765671
 C      1   2   3     2.561972891901    80.46391429   178.06387760
 C      1   2   3     2.562460272913   168.68126818   358.54301494
 C      7   1   2     2.601330528330   125.96068500     1.52248966
 C      8   1   7     2.601132398426   125.97094915   181.58682588
 C      2   1   3     2.558498699180    80.70233079   181.18489476
 C      3   1   2     2.558884788116    80.69908692   179.66364965
 C      2   1   3     2.606904135587   171.85646874   346.50317993
 C      3   1   2     2.606925735108   171.65892207    18.71192698
 C     11   2   1     2.723856031028   109.88694227   178.63361876
 C     12   3   1     2.723467931962   109.88239714   182.19272878
 C     15  11   2     2.573367594455   106.81528502   359.54521630
 C     16  12   3     2.573761534133   106.81521067     0.43000617
 C     13   2  11     2.615889748916   125.27672082   177.73206013
 C     14   3  12     2.616244042709   125.27054729   181.49849213
 C      4   3   1     2.577035732819   171.20756988     0.24138409
 C      4   3   1     2.577387977119    81.74059628   177.77833719
 C     21   4  22     2.712194520705   109.72751259     0.04335446
 C     23  21   4     2.581050883961   106.75377651   359.94336044
 H      5   1   2     2.064943326965   119.16379692   281.85954556
 H      5   1   2     2.061337742714   128.16075500    71.36484840
 H      6   5   1     2.065521586925   112.12690580   244.91754971
 H      6   5   1     2.060885272563   113.12488809   123.95340319
 H      9   7   1     2.046915455639   116.39489105   179.72259474
 H     10   8   1     2.046948185197   116.36560415   179.77296715
 H     15  11   2     2.039100341751   125.19031665   180.27269833
 H     16  12   3     2.039099813159   125.20154794   179.71013310
 H     17  15  11     2.039287995775   127.92460432   180.75444031
 H     18  16  12     2.039307430731   127.92162589   179.28104477
 H     19  13   2     2.047185379667   116.36285765   180.08911017
 H     20  14   3     2.047205998143   116.34088540   180.12999787
 H     23  21   4     2.039135267120   125.31735682   180.27287049
 H     24  23  21     2.039124694465   127.92546313   180.33697144
 Mg     2   1   3     3.891107511828    46.61425575     7.93257506
 O     39   2   1     4.051819596780    96.26875525    92.81001535
 H     40  39   2     1.822644375026   114.69880499   329.89614876
 H     40  39   2     1.823032081841   113.49002546   205.95922581

---------------------
BASIS SET INFORMATION
---------------------
There are 5 groups of distinct atoms

 Group   1 Type N   : 11s6p2d1f contracted to 5s3p2d1f pattern {62111/411/11/1}
 Group   2 Type C   : 11s6p2d1f contracted to 5s3p2d1f pattern {62111/411/11/1}
 Group   3 Type H   : 5s1p contracted to 3s1p pattern {311/1}
 Group   4 Type Mg  : 14s8p3d contracted to 5s4p3d pattern {73211/5111/111}
 Group   5 Type O   : 11s6p2d1f contracted to 5s3p2d1f pattern {62111/411/11/1}

Atom   0N    basis set group =>   1
Atom   1N    basis set group =>   1
Atom   2N    basis set group =>   1
Atom   3N    basis set group =>   1
Atom   4C    basis set group =>   2
Atom   5C    basis set group =>   2
Atom   6C    basis set group =>   2
Atom   7C    basis set group =>   2
Atom   8C    basis set group =>   2
Atom   9C    basis set group =>   2
Atom  10C    basis set group =>   2
Atom  11C    basis set group =>   2
Atom  12C    basis set group =>   2
Atom  13C    basis set group =>   2
Atom  14C    basis set group =>   2
Atom  15C    basis set group =>   2
Atom  16C    basis set group =>   2
Atom  17C    basis set group =>   2
Atom  18C    basis set group =>   2
Atom  19C    basis set group =>   2
Atom  20C    basis set group =>   2
Atom  21C    basis set group =>   2
Atom  22C    basis set group =>   2
Atom  23C    basis set group =>   2
Atom  24H    basis set group =>   3
Atom  25H    basis set group =>   3
Atom  26H    basis set group =>   3
Atom  27H    basis set group =>   3
Atom  28H    basis set group =>   3
Atom  29H    basis set group =>   3
Atom  30H    basis set group =>   3
Atom  31H    basis set group =>   3
Atom  32H    basis set group =>   3
Atom  33H    basis set group =>   3
Atom  34H    basis set group =>   3
Atom  35H    basis set group =>   3
Atom  36H    basis set group =>   3
Atom  37H    basis set group =>   3
Atom  38Mg   basis set group =>   4
Atom  39O    basis set group =>   5
Atom  40H    basis set group =>   3
Atom  41H    basis set group =>   3
---------------------------------
AUXILIARY/J BASIS SET INFORMATION
---------------------------------
There are 5 groups of distinct atoms

 Group   1 Type N   : 12s5p4d2f1g contracted to 6s4p3d1f1g pattern {711111/2111/211/2/1}
 Group   2 Type C   : 12s5p4d2f1g contracted to 6s4p3d1f1g pattern {711111/2111/211/2/1}
 Group   3 Type H   : 5s2p1d contracted to 3s1p1d pattern {311/2/1}
 Group   4 Type Mg  : 14s5p5d2f1g contracted to 8s4p4d1f1g pattern {71111111/2111/2111/2/1}
 Group   5 Type O   : 12s5p4d2f1g contracted to 6s4p3d1f1g pattern {711111/2111/211/2/1}

Atom   0N    basis set group =>   1
Atom   1N    basis set group =>   1
Atom   2N    basis set group =>   1
Atom   3N    basis set group =>   1
Atom   4C    basis set group =>   2
Atom   5C    basis set group =>   2
Atom   6C    basis set group =>   2
Atom   7C    basis set group =>   2
Atom   8C    basis set group =>   2
Atom   9C    basis set group =>   2
Atom  10C    basis set group =>   2
Atom  11C    basis set group =>   2
Atom  12C    basis set group =>   2
Atom  13C    basis set group =>   2
Atom  14C    basis set group =>   2
Atom  15C    basis set group =>   2
Atom  16C    basis set group =>   2
Atom  17C    basis set group =>   2
Atom  18C    basis set group =>   2
Atom  19C    basis set group =>   2
Atom  20C    basis set group =>   2
Atom  21C    basis set group =>   2
Atom  22C    basis set group =>   2
Atom  23C    basis set group =>   2
Atom  24H    basis set group =>   3
Atom  25H    basis set group =>   3
Atom  26H    basis set group =>   3
Atom  27H    basis set group =>   3
Atom  28H    basis set group =>   3
Atom  29H    basis set group =>   3
Atom  30H    basis set group =>   3
Atom  31H    basis set group =>   3
Atom  32H    basis set group =>   3
Atom  33H    basis set group =>   3
Atom  34H    basis set group =>   3
Atom  35H    basis set group =>   3
Atom  36H    basis set group =>   3
Atom  37H    basis set group =>   3
Atom  38Mg   basis set group =>   4
Atom  39O    basis set group =>   5
Atom  40H    basis set group =>   3
Atom  41H    basis set group =>   3


           ************************************************************
           *        Program running with 4 parallel MPI-processes     *
           *              working on a common directory               *
           ************************************************************
------------------------------------------------------------------------------
                             ORCA STARTUP CALCULATIONS
                           -- RI-GTO INTEGRALS CHOSEN --
------------------------------------------------------------------------------
------------------------------------------------------------------------------
                   ___                                                        
                  /   \      - P O W E R E D   B Y -                         
                 /     \                                                     
                 |  |  |   _    _      __       _____    __    __             
                 |  |  |  | |  | |    /  \     |  _  \  |  |  /  |          
                  \  \/   | |  | |   /    \    | | | |  |  | /  /          
                 / \  \   | |__| |  /  /\  \   | |_| |  |  |/  /          
                |  |  |   |  __  | /  /__\  \  |    /   |      \           
                |  |  |   | |  | | |   __   |  |    \   |  |\   \          
                \     /   | |  | | |  |  |  |  | |\  \  |  | \   \       
                 \___/    |_|  |_| |__|  |__|  |_| \__\ |__|  \__/        
                                                                              
                      - O R C A' S   B I G   F R I E N D -                    
                                      &                                       
                       - I N T E G R A L  F E E D E R -                       
                                                                              
 v1 FN, 2020, v2 2021, v3 2022-2024                                           
------------------------------------------------------------------------------


----------------------
SHARK INTEGRAL PACKAGE
----------------------

Number of atoms                             ...     42
Number of basis functions                   ...    903
Number of shells                            ...    351
Maximum angular momentum                    ...      3
Integral batch strategy                     ... SHARK/LIBINT Hybrid
RI-J (if used) integral strategy            ... SPLIT-RIJ (Revised 2003 algorithm where possible)
Printlevel                                  ...      1
Contraction scheme used                     ... SEGMENTED contraction
Prescreening option                         ... SCHWARTZ
   Thresh                                   ... 2.500e-11
   Tcut                                     ... 2.500e-12
   Tpresel                                  ... 2.500e-12 
Coulomb Range Separation                    ... NOT USED
Exchange Range Separation                   ... Long Range
   Mu parameter                             ... 3.300e-01
   Scaling (regular/separated)              ... 1.900e-01 4.600e-01
Robust (split-)RI terms used:
  metric    (central integrals)             ... YES
  density   (r.h.s.  integrals)             ... YES
  potential (l.h.s.  integrals)             ... YES
Multipole approximations                    ... NOT USED
Finite Nucleus Model                        ... NOT USED
CABS basis                                  ... NOT available
Auxiliary Coulomb fitting basis             ... AVAILABLE
   # of basis functions in Aux-J            ...   1457
   # of shells in Aux-J                     ...    473
   Maximum angular momentum in Aux-J        ...      4
Auxiliary J/K fitting basis                 ... NOT available
Auxiliary Correlation fitting basis         ... NOT available
Auxiliary 'external' fitting basis          ... NOT available

Checking pre-screening integrals            ... done (  0.0 sec) Dimension = 351
   => SHARK Basis and OBASIS are compatible. Storing Pre-screening
Shell pair information
Shell pair cut-off parameter TPreSel        ...   2.5e-12
Total number of shell pairs                 ...     61776
Shell pairs after pre-screening             ...     43746
Total number of primitive shell pairs       ...    193764
Primitive shell pairs kept                  ...     89275
          la=0 lb=0:  10682 shell pairs
          la=1 lb=0:  12550 shell pairs
          la=1 lb=1:   3664 shell pairs
          la=2 lb=0:   6430 shell pairs
          la=2 lb=1:   3867 shell pairs
          la=2 lb=2:   1053 shell pairs
          la=3 lb=0:   2743 shell pairs
          la=3 lb=1:   1710 shell pairs
          la=3 lb=2:    860 shell pairs
          la=3 lb=3:    187 shell pairs

Checking whether 4 symmetric matrices of dimension 903 fit in memory
:Max Core in MB      =   3000.00
 MB in use           =     56.45
 MB left             =   2943.55
 MB needed           =     12.46
 Data fit in memory  = YES
Calculating RI/J V-Matrix + Cholesky decomp.... done (  0.2 sec)
Calculating Nuclear repulsion               ... done (  0.0 sec) ENN=   2395.276864768696 Eh

Diagonalization of the overlap matrix:
Smallest eigenvalue                        ... 1.019e-05
Time for diagonalization                   ...    0.226 sec
Threshold for overlap eigenvalues          ... 1.000e-07
Number of eigenvalues below threshold      ... 0
Time for construction of square roots      ...    0.124 sec
Total time needed                          ...    0.360 sec

-------------------
DFT GRID GENERATION
-------------------

General Integration Accuracy     IntAcc      ... 4.959
Radial Grid Type                 RadialGrid  ... OptM3 with GC (2021)
Angular Grid (max. ang.)         AngularGrid ... 6 (Lebedev-590)
Angular grid pruning method      GridPruning ... 4 (adaptive)
Weight generation scheme         WeightScheme... mBecke (2022)
Basis function cutoff            BFCut       ... 1.0000e-11
Integration weight cutoff        WCut        ... 1.0000e-14
Partially contracted basis set               ... off
Rotationally invariant grid construction     ... off
Angular grids for H and He will be reduced by one unit

Total number of grid points                  ...   503735
Total number of batches                      ...     7886
Average number of points per batch           ...       63
Average number of grid points per atom       ...    11994

--------------------
COSX GRID GENERATION
--------------------

GRIDX 1
-------
General Integration Accuracy     IntAcc      ... 4.020
Radial Grid Type                 RadialGrid  ... OptM3 with GC (2021)
Angular Grid (max. ang.)         AngularGrid ... 2 (Lebedev-110)
Angular grid pruning method      GridPruning ... 4 (adaptive)
Weight generation scheme         WeightScheme... mBecke (2022)
Basis function cutoff            BFCut       ... 1.0000e-11
Integration weight cutoff        WCut        ... 1.0000e-14
Partially contracted basis set               ... on
Rotationally invariant grid construction     ... off
Angular grids for H and He will be reduced by one unit

Total number of grid points                  ...    57132
Total number of batches                      ...      466
Average number of points per batch           ...      122
Average number of grid points per atom       ...     1360
UseSFitting                                  ... on

GRIDX 2
-------
General Integration Accuracy     IntAcc      ... 4.338
Radial Grid Type                 RadialGrid  ... OptM3 with GC (2021)
Angular Grid (max. ang.)         AngularGrid ... 3 (Lebedev-194)
Angular grid pruning method      GridPruning ... 4 (adaptive)
Weight generation scheme         WeightScheme... mBecke (2022)
Basis function cutoff            BFCut       ... 1.0000e-11
Integration weight cutoff        WCut        ... 1.0000e-14
Partially contracted basis set               ... on
Rotationally invariant grid construction     ... off
Angular grids for H and He will be reduced by one unit

Total number of grid points                  ...   125528
Total number of batches                      ...     1000
Average number of points per batch           ...      125
Average number of grid points per atom       ...     2989
UseSFitting                                  ... on

GRIDX 3
-------
General Integration Accuracy     IntAcc      ... 4.871
Radial Grid Type                 RadialGrid  ... OptM3 with GC (2021)
Angular Grid (max. ang.)         AngularGrid ... 4 (Lebedev-302)
Angular grid pruning method      GridPruning ... 4 (adaptive)
Weight generation scheme         WeightScheme... mBecke (2022)
Basis function cutoff            BFCut       ... 1.0000e-11
Integration weight cutoff        WCut        ... 1.0000e-14
Partially contracted basis set               ... on
Rotationally invariant grid construction     ... off
Angular grids for H and He will be reduced by one unit

Total number of grid points                  ...   231789
Total number of batches                      ...     1836
Average number of points per batch           ...      126
Average number of grid points per atom       ...     5519
UseSFitting                                  ... on
Grids setup in  16.0 sec
Initializing property integral containers    ... done (  0.0 sec)

SHARK setup successfully completed in  17.5 seconds

Maximum memory used throughout the entire STARTUP-calculation: 166.9 MB


           ************************************************************
           *        Program running with 4 parallel MPI-processes     *
           *              working on a common directory               *
           ************************************************************
-------------------------------------------------------------------------------
                                 ORCA GUESS
                   Start orbitals & Density for SCF / CASSCF
-------------------------------------------------------------------------------

------------
SCF SETTINGS
------------
Hamiltonian:
 Density Functional     Method          .... DFT(GTOs)
 Exchange Functional    Exchange        .... WB88
 Correlation Functional Correlation     .... LYP
 LDA part of GGA corr.  LDAOpt          .... VWN-5
 Gradients option       PostSCFGGA      .... off
 Hybrid DFT is turned on
   Fraction HF Exchange ScalHFX         ....  0.190000
   Scaling of DF-GGA-X  ScalDFX         ....  0.350000
   Scaling of DF-GGA-C  ScalDFC         ....  0.810000
   Scaling of DF-LDA-C  ScalLDAC        ....  1.000000
   Perturbative correction              ....  0.000000
 Long-range corrected/Screened/Range-Separated Hybrid DFT is turned on
   Amount of maximum screened exact exchange              ....  0.460000
   Range separation parameter mu (erf(mu*r12)/r12)        ....  0.330000
 RI-approximation to the Coulomb term is turned on
   Number of AuxJ basis functions       .... 1457
   RIJ-COSX (HFX calculated with COS-X)).... on


General Settings:
 Integral files         IntName         .... tddft
 Hartree-Fock type      HFTyp           .... RHF
 Total Charge           Charge          ....    0
 Multiplicity           Mult            ....    1
 Number of Electrons    NEL             ....  184
 Basis Dimension        Dim             ....  903
 Nuclear Repulsion      ENuc            ....   2395.2768647687 Eh

Convergence Acceleration:
 AO-DIIS                CNVDIIS         .... on
   Start iteration      DIISMaxIt       ....    12
   Startup error        DIISStart       ....  0.200000
   # of expansion vecs  DIISMaxEq       ....     5
   Bias factor          DIISBfac        ....   1.050
   Max. coefficient     DIISMaxC        ....  10.000
 MO-DIIS                CNVKDIIS        .... off
 Trust-Rad. Augm. Hess. CNVTRAH         .... auto
   Auto Start mean grad. ratio tolernc. ....  1.125000
   Auto Start start iteration           ....    50
   Auto Start num. interpolation iter.  ....    10
   Max. Number of Micro iterations      ....    24
   Max. Number of Macro iterations      .... Maxiter - #DIIS iter
   Number of Davidson start vectors     ....     2
   Converg. threshold    (grad. norm)   ....   1.000e-05
   Grad. Scal. Fac. for Micro threshold ....   0.100
   Minimum threshold for Micro iter.    ....   1.000e-02
   NR start threshold (gradient norm)   ....   1.000e-04
   Initial trust radius                 ....   0.400
   Minimum AH scaling param. (alpha)    ....   1.000
   Maximum AH scaling param. (alpha)    .... 1000.000
   Quad. conv. algorithm                .... NR
   White noise on init. David. guess    .... on
   Maximum white noise                  ....   0.010
   Pseudo random numbers                .... off
   Inactive MOs                         .... canonical
   Orbital update algorithm             .... Taylor
   Preconditioner                       .... Diag
   Full preconditioner red. dimension   ....   250
 SOSCF                 CNVSOSCF           .... on
   Start iteration     SOSCFMaxIt         ....   150
   Startup grad/error  SOSCFStart         ....  0.003300
   Hessian update      SOSCFHessUp        .... L-BFGS
   Autom. constraints  SOSCFAutoConstrain .... off
 Level Shifting         CNVShift        .... on
   Level shift para.    LevelShift      ....    0.2500
   Turn off err/grad.   ShiftErr        ....    0.0010
 Zerner damping         CNVZerner       .... off
 Static damping         CNVDamp         .... on
   Fraction old density DampFac         ....    0.7000
   Max. Damping (<1)    DampMax         ....    0.9800
   Min. Damping (>=0)   DampMin         ....    0.0000
   Turn off err/grad.   DampErr         ....    0.1000

SCF Procedure:
 Maximum # iterations   MaxIter         ....   125
 SCF integral mode      SCFMode         .... Direct
   Integral package                     .... SHARK and LIBINT hybrid scheme
 Reset frequency        DirectResetFreq ....    20
 Integral Threshold     Thresh          ....  2.500e-11 Eh
 Primitive CutOff       TCut            ....  2.500e-12 Eh

Convergence Tolerance:
 Convergence Check Mode ConvCheckMode   .... Total+1el-Energy
 Convergence forced     ConvForced      .... 1
 Energy Change          TolE            ....  1.000e-08 Eh
 1-El. energy change                    ....  1.000e-05 Eh
 Orbital Gradient       TolG            ....  1.000e-05
 Orbital Rotation angle TolX            ....  1.000e-05
 DIIS Error             TolErr          ....  5.000e-07

------------------------------
INITIAL GUESS: MODEL POTENTIAL
------------------------------
Loading Hartree-Fock densities                     ... done
Calculating cut-offs                               ... done
Initializing the effective Hamiltonian             ... done
Setting up the integral package (SHARK)            ... done
Starting the Coulomb interaction                   ... done (   1.9 sec)
Making the grid                                    ... done (   0.7 sec)
Mapping shells                                     ... done
Starting the XC term evaluation                    ... done (   1.0 sec)
  promolecular density results
     # of electrons  =    183.996423990
     EX              =   -157.477042248
     EC              =     -6.248844446
     EX+EC           =   -163.725886694
Transforming the Hamiltonian                       ... done (   0.1 sec)
Diagonalizing the Hamiltonian                      ... done (   0.2 sec)
Back transforming the eigenvectors                 ... done (   0.1 sec)
Now organizing SCF variables                       ... done
                      ------------------
                      INITIAL GUESS DONE (   4.1 sec)
                      ------------------
             **** ENERGY FILE WAS UPDATED (tddft.en.tmp) ****
Finished Guess after   4.7 sec
Maximum memory used throughout the entire GUESS-calculation: 94.7 MB


           ************************************************************
           *        Program running with 4 parallel MPI-processes     *
           *              working on a common directory               *
           ************************************************************

-------------------------------------------------------------------------------------------
                                      ORCA LEAN-SCF
                              memory conserving SCF solver
-------------------------------------------------------------------------------------------

--------------------
CPCM SOLVATION MODEL
--------------------
CPCM parameters:
  Epsilon                                         ...       8.9990
  Refrac                                          ...       1.4242
  Rsolv                                           ...       1.3000
  Surface type                                    ... GAUSSIAN VDW
  Discretization scheme                           ... Constant charge density
    Threshold for H atoms                         ...       5.0000 (charges/Ang^2)
    Threshold for non-H atoms                     ...       5.0000 (charges/Ang^2)
  Epsilon function type                           ...         CPCM
Solvent:                                          ... DICHLOROMETHANE
Radii:
  Scheme                                          ... Element-dependent radii
  Radius for N  used is    3.5149 Bohr (=   1.8600 Ang.)
  Radius for C  used is    3.8550 Bohr (=   2.0400 Ang.)
  Radius for H  used is    2.4944 Bohr (=   1.3200 Ang.)
  Radius for Mg used is    3.9231 Bohr (=   2.0760 Ang.)
  Radius for O  used is    3.4469 Bohr (=   1.8240 Ang.)
Calculating surface                               ...        done! (  0.0s)
Cavity surface points                             ...         3714
Cavity Volume                                     ...    2655.0298
Cavity Surface-area                               ...    1281.3601
Calculating surface distance matrix               ...        done! (  0.3s)
Performing Cholesky decomposition & store         ...        done! (  0.8s)
Overall time for CPCM initialization              ...                 1.1s

----------------------------------------D-I-I-S--------------------------------------------
Iteration    Energy (Eh)           Delta-E    RMSDP     MaxDP     DIISErr   Damp  Time(sec)
-------------------------------------------------------------------------------------------
               ***  Starting incremental Fock matrix formation  ***
    1    -1265.5063438026168114     0.00e+00  2.25e-03  5.12e-02  2.71e-01  0.700 158.8
    2    -1265.7500223297756747    -2.44e-01  1.74e-03  3.97e-02  1.24e-01  0.700  73.0
                               ***Turning on AO-DIIS***
    3    -1265.8678469144592782    -1.18e-01  1.02e-03  3.43e-02  4.58e-02  0.700  70.8
    4    -1265.9378246244814363    -7.00e-02  2.17e-03  8.05e-02  2.97e-02  0.000  67.6
    5    -1266.0879386132646687    -1.50e-01  2.12e-04  4.36e-03  5.78e-03  0.000  96.7
                              *** Initializing SOSCF ***
---------------------------------------S-O-S-C-F--------------------------------------
Iteration    Energy (Eh)           Delta-E    RMSDP     MaxDP     MaxGrad    Time(sec)
--------------------------------------------------------------------------------------
    6    -1266.0884636208970733    -5.25e-04  9.32e-05  2.32e-03  2.17e-03    60.9
               *** Restarting incremental Fock matrix formation ***
    7    -1266.0885550269658779    -9.14e-05  7.40e-05  1.20e-03  1.45e-03   197.0
    8    -1266.0886241061539295    -6.91e-05  9.65e-05  2.01e-03  6.55e-04   125.5
    9    -1266.0886498706518069    -2.58e-05  4.06e-05  6.76e-04  4.64e-04   141.2
   10    -1266.0886620033888903    -1.21e-05  1.05e-05  2.70e-04  1.35e-04   136.8
   11    -1266.0886628286584710    -8.25e-07  4.64e-06  9.60e-05  4.10e-05    95.7
   12    -1266.0886631416838100    -3.13e-07  5.64e-06  1.65e-04  2.49e-05   118.7
   13    -1266.0886632074207228    -6.57e-08  3.40e-06  9.17e-05  6.80e-06    88.3
   14    -1266.0886632001011094     7.32e-09  3.71e-06  7.91e-05  6.49e-06   106.6
                 **** Energy Check signals convergence ****

               *****************************************************
               *                     SUCCESS                       *
               *           SCF CONVERGED AFTER  14 CYCLES          *
               *****************************************************

Recomputing exchange energy using gridx3       ... done (  365.003 sec)
Old exchange energy                            :    -44.883278734 Eh
New exchange energy                            :    -44.883285594 Eh
Exchange energy change after final integration :     -0.000006860 Eh
Total energy after final integration           :  -1266.088670080 Eh
             **** ENERGY FILE WAS UPDATED (tddft.en.tmp) ****

----------------
TOTAL SCF ENERGY
----------------

Total Energy       :      -1266.08867008006814 Eh          -34452.02422 eV

Components:
Nuclear Repulsion  :       2395.27686476869621 Eh           65178.79712 eV
Electronic Energy  :      -3661.34156337953482 Eh          -99630.16904 eV
One Electron Energy:      -6493.67005034053818 Eh         -176701.74541 eV
Two Electron Energy:       2832.32848696100336 Eh           77071.57637 eV
CPCM Dielectric    :         -0.02396460944129 Eh              -0.65211 eV

Virial components:
Potential Energy   :      -2526.66232422039684 Eh          -68753.97723 eV
Kinetic Energy     :       1260.57365414032847 Eh           34301.95301 eV
Virial Ratio       :          2.00437500492068

DFT components:
N(Alpha)           :       91.999997387223 electrons
N(Beta)            :       91.999997387223 electrons
N(Total)           :      183.999994774445 electrons
E(XC)              :     -122.315670543697 Eh       

CPCM Solvation Model Properties:
Surface-charge          :         -0.04021676494565
Corrected charge        :          0.00000000000000
Outlying charge corr.   :          0.00007589456355 Eh               0.00207 eV
Free-energy (cav+disp)  :  This term is not implemented in the current solvation scheme

---------------
SCF CONVERGENCE
---------------

  Last Energy change         ...   -7.3196e-09  Tolerance :   1.0000e-08
  Last MAX-Density change    ...    7.9143e-05  Tolerance :   1.0000e-07
  Last RMS-Density change    ...    3.7144e-06  Tolerance :   5.0000e-09
  Last DIIS Error            ...    2.1727e-03  Tolerance :   5.0000e-07
  Last Orbital Gradient      ...    6.4887e-06  Tolerance :   1.0000e-05
  Last Orbital Rotation      ...    4.4426e-05  Tolerance :   1.0000e-05


----------------
ORBITAL ENERGIES
----------------

  NO   OCC          E(Eh)            E(eV) 
   0   2.0000     -46.817657     -1273.9732 
   1   2.0000     -19.233364      -523.3664 
   2   2.0000     -14.386290      -391.4709 
   3   2.0000     -14.368888      -390.9973 
   4   2.0000     -14.366960      -390.9448 
   5   2.0000     -14.366906      -390.9434 
   6   2.0000     -10.288925      -279.9759 
   7   2.0000     -10.288884      -279.9748 
   8   2.0000     -10.281137      -279.7640 
   9   2.0000     -10.281073      -279.7622 
  10   2.0000     -10.271287      -279.4959 
  11   2.0000     -10.271199      -279.4935 
  12   2.0000     -10.269163      -279.4381 
  13   2.0000     -10.269100      -279.4364 
  14   2.0000     -10.255110      -279.0557 
  15   2.0000     -10.255022      -279.0533 
  16   2.0000     -10.246077      -278.8099 
  17   2.0000     -10.245863      -278.8041 
  18   2.0000     -10.245162      -278.7850 
  19   2.0000     -10.245119      -278.7839 
  20   2.0000     -10.239384      -278.6278 
  21   2.0000     -10.239335      -278.6265 
  22   2.0000     -10.237058      -278.5645 
  23   2.0000     -10.236352      -278.5453 
  24   2.0000     -10.233864      -278.4776 
  25   2.0000     -10.233798      -278.4758 
  26   2.0000      -3.105598       -84.5076 
  27   2.0000      -1.851600       -50.3846 
  28   2.0000      -1.848366       -50.2966 
  29   2.0000      -1.848083       -50.2889 
  30   2.0000      -1.124915       -30.6105 
  31   2.0000      -1.042537       -28.3689 
  32   2.0000      -1.033841       -28.1322 
  33   2.0000      -1.033196       -28.1147 
  34   2.0000      -1.023677       -27.8557 
  35   2.0000      -0.893568       -24.3152 
  36   2.0000      -0.867823       -23.6147 
  37   2.0000      -0.864694       -23.5295 
  38   2.0000      -0.850164       -23.1341 
  39   2.0000      -0.843017       -22.9397 
  40   2.0000      -0.841083       -22.8870 
  41   2.0000      -0.835381       -22.7319 
  42   2.0000      -0.812593       -22.1118 
  43   2.0000      -0.793124       -21.5820 
  44   2.0000      -0.731594       -19.9077 
  45   2.0000      -0.726673       -19.7738 
  46   2.0000      -0.683233       -18.5917 
  47   2.0000      -0.651373       -17.7248 
  48   2.0000      -0.643678       -17.5154 
  49   2.0000      -0.640053       -17.4167 
  50   2.0000      -0.637936       -17.3591 
  51   2.0000      -0.635125       -17.2826 
  52   2.0000      -0.620637       -16.8884 
  53   2.0000      -0.605252       -16.4698 
  54   2.0000      -0.589946       -16.0532 
  55   2.0000      -0.582455       -15.8494 
  56   2.0000      -0.569693       -15.5021 
  57   2.0000      -0.566261       -15.4088 
  58   2.0000      -0.557097       -15.1594 
  59   2.0000      -0.544740       -14.8231 
  60   2.0000      -0.517062       -14.0700 
  61   2.0000      -0.505327       -13.7507 
  62   2.0000      -0.501191       -13.6381 
  63   2.0000      -0.492599       -13.4043 
  64   2.0000      -0.485754       -13.2180 
  65   2.0000      -0.484293       -13.1783 
  66   2.0000      -0.480930       -13.0868 
  67   2.0000      -0.470847       -12.8124 
  68   2.0000      -0.470617       -12.8061 
  69   2.0000      -0.469618       -12.7790 
  70   2.0000      -0.449791       -12.2394 
  71   2.0000      -0.447563       -12.1788 
  72   2.0000      -0.441534       -12.0148 
  73   2.0000      -0.440401       -11.9839 
  74   2.0000      -0.437548       -11.9063 
  75   2.0000      -0.431645       -11.7457 
  76   2.0000      -0.428194       -11.6517 
  77   2.0000      -0.426481       -11.6051 
  78   2.0000      -0.421101       -11.4587 
  79   2.0000      -0.418341       -11.3836 
  80   2.0000      -0.410455       -11.1691 
  81   2.0000      -0.379566       -10.3285 
  82   2.0000      -0.372584       -10.1385 
  83   2.0000      -0.368425       -10.0254 
  84   2.0000      -0.340751        -9.2723 
  85   2.0000      -0.334408        -9.0997 
  86   2.0000      -0.325690        -8.8625 
  87   2.0000      -0.313530        -8.5316 
  88   2.0000      -0.303573        -8.2606 
  89   2.0000      -0.301328        -8.1996 
  90   2.0000      -0.235077        -6.3968 
  91   2.0000      -0.219676        -5.9777 
  92   0.0000      -0.059223        -1.6115 
  93   0.0000      -0.033560        -0.9132 
  94   0.0000       0.034843         0.9481 
  95   0.0000       0.045891         1.2488 
  96   0.0000       0.072156         1.9635 
  97   0.0000       0.080972         2.2034 
  98   0.0000       0.083394         2.2693 
  99   0.0000       0.095647         2.6027 
 100   0.0000       0.100665         2.7392 
 101   0.0000       0.104652         2.8477 
 102   0.0000       0.110275         3.0007 
*Only the first 10 virtual orbitals were printed.

                    ********************************
                    * MULLIKEN POPULATION ANALYSIS *
                    ********************************

-----------------------
MULLIKEN ATOMIC CHARGES
-----------------------
   0 N :   -0.321697
   1 N :   -0.361495
   2 N :   -0.363811
   3 N :   -0.342412
   4 C :   -0.195324
   5 C :   -0.194721
   6 C :    0.162028
   7 C :    0.162715
   8 C :   -0.346919
   9 C :   -0.351849
  10 C :    0.239271
  11 C :    0.240743
  12 C :    0.216707
  13 C :    0.216494
  14 C :   -0.246372
  15 C :   -0.245562
  16 C :   -0.229582
  17 C :   -0.230832
  18 C :   -0.284067
  19 C :   -0.281832
  20 C :    0.212024
  21 C :    0.211875
  22 C :   -0.247084
  23 C :   -0.247328
  24 H :    0.129542
  25 H :    0.137207
  26 H :    0.128376
  27 H :    0.138093
  28 H :    0.146461
  29 H :    0.146337
  30 H :    0.155804
  31 H :    0.155706
  32 H :    0.159018
  33 H :    0.158866
  34 H :    0.158949
  35 H :    0.158942
  36 H :    0.153799
  37 H :    0.153744
  38 Mg:    0.610999
  39 O :   -0.627096
  40 H :    0.382071
  41 H :    0.382213
Sum of atomic charges:   -0.0000000

--------------------------------
MULLIKEN REDUCED ORBITAL CHARGES
--------------------------------
  0 N s       :     3.672436  s :     3.672436
      pz      :     1.288219  p :     3.590613
      px      :     1.184496
      py      :     1.117899
      dz2     :     0.003840  d :     0.055206
      dxz     :     0.009113
      dyz     :     0.010536
      dx2y2   :     0.016485
      dxy     :     0.015231
      f0      :     0.000640  f :     0.003442
      f+1     :     0.000287
      f-1     :     0.000310
      f+2     :     0.000460
      f-2     :     0.000115
      f+3     :     0.000934
      f-3     :     0.000695

  1 N s       :     3.680702  s :     3.680702
      pz      :     1.366402  p :     3.623152
      px      :     1.104673
      py      :     1.152077
      dz2     :     0.003963  d :     0.054140
      dxz     :     0.010087
      dyz     :     0.009101
      dx2y2   :     0.015957
      dxy     :     0.015031
      f0      :     0.000643  f :     0.003502
      f+1     :     0.000356
      f-1     :     0.000321
      f+2     :     0.000571
      f-2     :     0.000092
      f+3     :     0.000682
      f-3     :     0.000836

  2 N s       :     3.680064  s :     3.680064
      pz      :     1.365863  p :     3.626083
      px      :     1.098938
      py      :     1.161282
      dz2     :     0.003985  d :     0.054163
      dxz     :     0.010721
      dyz     :     0.008493
      dx2y2   :     0.015589
      dxy     :     0.015376
      f0      :     0.000639  f :     0.003502
      f+1     :     0.000334
      f-1     :     0.000345
      f+2     :     0.000559
      f-2     :     0.000108
      f+3     :     0.000631
      f-3     :     0.000886

  3 N s       :     3.685288  s :     3.685288
      pz      :     1.333462  p :     3.597399
      px      :     1.157866
      py      :     1.106070
      dz2     :     0.003977  d :     0.056171
      dxz     :     0.009584
      dyz     :     0.011465
      dx2y2   :     0.015787
      dxy     :     0.015357
      f0      :     0.000638  f :     0.003555
      f+1     :     0.000322
      f-1     :     0.000339
      f+2     :     0.000635
      f-2     :     0.000101
      f+3     :     0.000863
      f-3     :     0.000657

  4 C s       :     3.216479  s :     3.216479
      pz      :     1.060020  p :     2.899495
      px      :     0.872438
      py      :     0.967037
      dz2     :     0.003606  d :     0.073514
      dxz     :     0.016168
      dyz     :     0.014990
      dx2y2   :     0.022715
      dxy     :     0.016036
      f0      :     0.000686  f :     0.005835
      f+1     :     0.000154
      f-1     :     0.001186
      f+2     :     0.000343
      f-2     :     0.000741
      f+3     :     0.001331
      f-3     :     0.001394

  5 C s       :     3.215870  s :     3.215870
      pz      :     1.059302  p :     2.899535
      px      :     0.961598
      py      :     0.878635
      dz2     :     0.003145  d :     0.073481
      dxz     :     0.015224
      dyz     :     0.016465
      dx2y2   :     0.022652
      dxy     :     0.015995
      f0      :     0.000596  f :     0.005835
      f+1     :     0.001320
      f-1     :     0.000121
      f+2     :     0.000280
      f-2     :     0.000800
      f+3     :     0.001160
      f-3     :     0.001560

  6 C s       :     3.187626  s :     3.187626
      pz      :     0.857008  p :     2.477096
      px      :     0.894441
      py      :     0.725647
      dz2     :     0.003060  d :     0.159089
      dxz     :     0.028071
      dyz     :     0.039583
      dx2y2   :     0.041903
      dxy     :     0.046472
      f0      :     0.001938  f :     0.014161
      f+1     :     0.000671
      f-1     :     0.001077
      f+2     :     0.001734
      f-2     :     0.001190
      f+3     :     0.005067
      f-3     :     0.002486

  7 C s       :     3.184758  s :     3.184758
      pz      :     0.857392  p :     2.479335
      px      :     0.748353
      py      :     0.873590
      dz2     :     0.002562  d :     0.159032
      dxz     :     0.034631
      dyz     :     0.033209
      dx2y2   :     0.044325
      dxy     :     0.044306
      f0      :     0.001955  f :     0.014159
      f+1     :     0.001064
      f-1     :     0.000652
      f+2     :     0.001508
      f-2     :     0.001417
      f+3     :     0.003614
      f-3     :     0.003949

  8 C s       :     3.301041  s :     3.301041
      pz      :     1.121872  p :     2.977377
      px      :     0.858523
      py      :     0.996982
      dz2     :     0.003256  d :     0.061462
      dxz     :     0.022518
      dyz     :     0.003333
      dx2y2   :     0.024091
      dxy     :     0.008264
      f0      :     0.001451  f :     0.007040
      f+1     :     0.000547
      f-1     :     0.000606
      f+2     :     0.000402
      f-2     :     0.000746
      f+3     :     0.001939
      f-3     :     0.001350

  9 C s       :     3.306458  s :     3.306458
      pz      :     1.122018  p :     2.976970
      px      :     0.991072
      py      :     0.863880
      dz2     :     0.003236  d :     0.061380
      dxz     :     0.003297
      dyz     :     0.022583
      dx2y2   :     0.023964
      dxy     :     0.008300
      f0      :     0.001452  f :     0.007041
      f+1     :     0.000615
      f-1     :     0.000538
      f+2     :     0.000417
      f-2     :     0.000726
      f+3     :     0.001436
      f-3     :     0.001856

 10 C s       :     3.161192  s :     3.161192
      pz      :     0.869718  p :     2.424404
      px      :     0.817389
      py      :     0.737297
      dz2     :     0.003665  d :     0.160454
      dxz     :     0.034924
      dyz     :     0.037168
      dx2y2   :     0.041410
      dxy     :     0.043286
      f0      :     0.002118  f :     0.014679
      f+1     :     0.000743
      f-1     :     0.001057
      f+2     :     0.001938
      f-2     :     0.001161
      f+3     :     0.004284
      f-3     :     0.003378

 11 C s       :     3.161618  s :     3.161618
      pz      :     0.870166  p :     2.422612
      px      :     0.726650
      py      :     0.825796
      dz2     :     0.003730  d :     0.160361
      dxz     :     0.039746
      dyz     :     0.032196
      dx2y2   :     0.038539
      dxy     :     0.046150
      f0      :     0.002109  f :     0.014666
      f+1     :     0.001094
      f-1     :     0.000712
      f+2     :     0.002356
      f-2     :     0.000742
      f+3     :     0.002494
      f-3     :     0.005158

 12 C s       :     3.146362  s :     3.146362
      pz      :     0.947789  p :     2.470734
      px      :     0.706064
      py      :     0.816882
      dz2     :     0.004382  d :     0.151894
      dxz     :     0.037886
      dyz     :     0.027672
      dx2y2   :     0.038440
      dxy     :     0.043514
      f0      :     0.002108  f :     0.014302
      f+1     :     0.001104
      f-1     :     0.000696
      f+2     :     0.002255
      f-2     :     0.000585
      f+3     :     0.002467
      f-3     :     0.005087

 13 C s       :     3.145543  s :     3.145543
      pz      :     0.947538  p :     2.472044
      px      :     0.806059
      py      :     0.718447
      dz2     :     0.004542  d :     0.151621
      dxz     :     0.029622
      dyz     :     0.035645
      dx2y2   :     0.040571
      dxy     :     0.041242
      f0      :     0.002094  f :     0.014299
      f+1     :     0.000734
      f-1     :     0.001083
      f+2     :     0.001758
      f-2     :     0.001090
      f+3     :     0.004238
      f-3     :     0.003301

 14 C s       :     3.274639  s :     3.274639
      pz      :     1.028505  p :     2.890538
      px      :     0.894460
      py      :     0.967573
      dz2     :     0.004834  d :     0.073615
      dxz     :     0.019613
      dyz     :     0.007359
      dx2y2   :     0.026816
      dxy     :     0.014992
      f0      :     0.001460  f :     0.007581
      f+1     :     0.000403
      f-1     :     0.000761
      f+2     :     0.000070
      f-2     :     0.001200
      f+3     :     0.002198
      f-3     :     0.001490

 15 C s       :     3.274348  s :     3.274348
      pz      :     1.028451  p :     2.890021
      px      :     0.971616
      py      :     0.889955
      dz2     :     0.004902  d :     0.073612
      dxz     :     0.008826
      dyz     :     0.018097
      dx2y2   :     0.027168
      dxy     :     0.014619
      f0      :     0.001450  f :     0.007581
      f+1     :     0.000717
      f-1     :     0.000456
      f+2     :     0.000368
      f-2     :     0.000908
      f+3     :     0.002013
      f-3     :     0.001670

 16 C s       :     3.282718  s :     3.282718
      pz      :     0.979679  p :     2.861645
      px      :     0.981177
      py      :     0.900790
      dz2     :     0.004724  d :     0.077544
      dxz     :     0.009481
      dyz     :     0.022585
      dx2y2   :     0.026298
      dxy     :     0.014456
      f0      :     0.001441  f :     0.007674
      f+1     :     0.000701
      f-1     :     0.000428
      f+2     :     0.000483
      f-2     :     0.000940
      f+3     :     0.002024
      f-3     :     0.001656

 17 C s       :     3.283268  s :     3.283268
      pz      :     0.979925  p :     2.862310
      px      :     0.904325
      py      :     0.978060
      dz2     :     0.004721  d :     0.077577
      dxz     :     0.024682
      dyz     :     0.007428
      dx2y2   :     0.026028
      dxy     :     0.014719
      f0      :     0.001436  f :     0.007676
      f+1     :     0.000388
      f-1     :     0.000744
      f+2     :     0.000115
      f-2     :     0.001321
      f+3     :     0.002191
      f-3     :     0.001481

 18 C s       :     3.308056  s :     3.308056
      pz      :     0.978932  p :     2.893878
      px      :     1.026441
      py      :     0.888505
      dz2     :     0.003337  d :     0.075148
      dxz     :     0.003236
      dyz     :     0.032185
      dx2y2   :     0.026699
      dxy     :     0.009691
      f0      :     0.001373  f :     0.006986
      f+1     :     0.000558
      f-1     :     0.000491
      f+2     :     0.000423
      f-2     :     0.000818
      f+3     :     0.001385
      f-3     :     0.001938

 19 C s       :     3.307279  s :     3.307279
      pz      :     0.978605  p :     2.892355
      px      :     0.888309
      py      :     1.025441
      dz2     :     0.003277  d :     0.075212
      dxz     :     0.032157
      dyz     :     0.003354
      dx2y2   :     0.026210
      dxy     :     0.010213
      f0      :     0.001374  f :     0.006986
      f+1     :     0.000482
      f-1     :     0.000560
      f+2     :     0.000438
      f-2     :     0.000810
      f+3     :     0.001932
      f-3     :     0.001390

 20 C s       :     3.145839  s :     3.145839
      pz      :     0.950087  p :     2.475744
      px      :     0.727447
      py      :     0.798210
      dz2     :     0.004289  d :     0.151873
      dxz     :     0.035449
      dyz     :     0.028764
      dx2y2   :     0.041129
      dxy     :     0.042243
      f0      :     0.002130  f :     0.014520
      f+1     :     0.001068
      f-1     :     0.000775
      f+2     :     0.001758
      f-2     :     0.001125
      f+3     :     0.003385
      f-3     :     0.004278

 21 C s       :     3.145857  s :     3.145857
      pz      :     0.949797  p :     2.476002
      px      :     0.812274
      py      :     0.713930
      dz2     :     0.004282  d :     0.151749
      dxz     :     0.027972
      dyz     :     0.036153
      dx2y2   :     0.037746
      dxy     :     0.045596
      f0      :     0.002127  f :     0.014518
      f+1     :     0.000720
      f-1     :     0.001127
      f+2     :     0.002258
      f-2     :     0.000630
      f+3     :     0.005169
      f-3     :     0.002486

 22 C s       :     3.276817  s :     3.276817
      pz      :     1.019171  p :     2.886780
      px      :     0.968151
      py      :     0.899459
      dz2     :     0.004874  d :     0.075770
      dxz     :     0.007105
      dyz     :     0.023118
      dx2y2   :     0.026133
      dxy     :     0.014540
      f0      :     0.001453  f :     0.007716
      f+1     :     0.000768
      f-1     :     0.000408
      f+2     :     0.000082
      f-2     :     0.001352
      f+3     :     0.001473
      f-3     :     0.002180

 23 C s       :     3.277345  s :     3.277345
      pz      :     1.018955  p :     2.886452
      px      :     0.895451
      py      :     0.972046
      dz2     :     0.004803  d :     0.075814
      dxz     :     0.021423
      dyz     :     0.008914
      dx2y2   :     0.026217
      dxy     :     0.014458
      f0      :     0.001457  f :     0.007716
      f+1     :     0.000442
      f-1     :     0.000727
      f+2     :     0.000441
      f-2     :     0.000999
      f+3     :     0.001668
      f-3     :     0.001982

 24 H s       :     0.848998  s :     0.848998
      pz      :     0.011037  p :     0.021460
      px      :     0.004102
      py      :     0.006321

 25 H s       :     0.841489  s :     0.841489
      pz      :     0.008230  p :     0.021303
      px      :     0.004185
      py      :     0.008888

 26 H s       :     0.850198  s :     0.850198
      pz      :     0.010520  p :     0.021426
      px      :     0.006917
      py      :     0.003989

 27 H s       :     0.840584  s :     0.840584
      pz      :     0.008755  p :     0.021323
      px      :     0.008540
      py      :     0.004028

 28 H s       :     0.831109  s :     0.831109
      pz      :     0.005681  p :     0.022430
      px      :     0.003201
      py      :     0.013548

 29 H s       :     0.831234  s :     0.831234
      pz      :     0.005674  p :     0.022429
      px      :     0.013507
      py      :     0.003248

 30 H s       :     0.822221  s :     0.822221
      pz      :     0.004806  p :     0.021975
      px      :     0.003272
      py      :     0.013897

 31 H s       :     0.822318  s :     0.822318
      pz      :     0.004810  p :     0.021976
      px      :     0.013330
      py      :     0.003836

 32 H s       :     0.819151  s :     0.819151
      pz      :     0.004509  p :     0.021831
      px      :     0.013412
      py      :     0.003910

 33 H s       :     0.819300  s :     0.819300
      pz      :     0.004534  p :     0.021834
      px      :     0.003328
      py      :     0.013972

 34 H s       :     0.819050  s :     0.819050
      pz      :     0.004761  p :     0.022001
      px      :     0.013932
      py      :     0.003308

 35 H s       :     0.819059  s :     0.819059
      pz      :     0.004774  p :     0.021999
      px      :     0.003288
      py      :     0.013937

 36 H s       :     0.824275  s :     0.824275
      pz      :     0.004774  p :     0.021926
      px      :     0.013842
      py      :     0.003310

 37 H s       :     0.824332  s :     0.824332
      pz      :     0.004789  p :     0.021924
      px      :     0.003873
      py      :     0.013263

 38 Mgs       :     4.560447  s :     4.560447
      pz      :     2.138239  p :     6.533045
      px      :     2.198699
      py      :     2.196107
      dz2     :     0.049646  d :     0.295509
      dxz     :     0.033472
      dyz     :     0.031601
      dx2y2   :     0.019212
      dxy     :     0.161578

 39 O s       :     3.764922  s :     3.764922
      pz      :     1.755285  p :     4.844366
      px      :     1.602577
      py      :     1.486504
      dz2     :     0.001280  d :     0.016542
      dxz     :     0.003269
      dyz     :     0.003884
      dx2y2   :     0.006715
      dxy     :     0.001396
      f0      :     0.000249  f :     0.001266
      f+1     :     0.000046
      f-1     :     0.000049
      f+2     :     0.000318
      f-2     :     0.000136
      f+3     :     0.000074
      f-3     :     0.000395

 40 H s       :     0.572197  s :     0.572197
      pz      :     0.014578  p :     0.045732
      px      :     0.011557
      py      :     0.019597

 41 H s       :     0.572040  s :     0.572040
      pz      :     0.014087  p :     0.045747
      px      :     0.019143
      py      :     0.012517



                     *******************************
                     * LOEWDIN POPULATION ANALYSIS *
                     *******************************

----------------------
LOEWDIN ATOMIC CHARGES
----------------------
   0 N :    0.192993
   1 N :    0.171569
   2 N :    0.171075
   3 N :    0.185393
   4 C :   -0.191261
   5 C :   -0.191233
   6 C :   -0.188345
   7 C :   -0.188442
   8 C :   -0.146772
   9 C :   -0.146819
  10 C :   -0.199867
  11 C :   -0.200109
  12 C :   -0.216436
  13 C :   -0.216834
  14 C :   -0.131077
  15 C :   -0.131342
  16 C :   -0.113689
  17 C :   -0.114003
  18 C :   -0.076810
  19 C :   -0.076710
  20 C :   -0.220256
  21 C :   -0.220377
  22 C :   -0.135176
  23 C :   -0.135045
  24 H :    0.150594
  25 H :    0.147335
  26 H :    0.149839
  27 H :    0.147794
  28 H :    0.161365
  29 H :    0.161346
  30 H :    0.145026
  31 H :    0.145002
  32 H :    0.147429
  33 H :    0.147363
  34 H :    0.167274
  35 H :    0.167271
  36 H :    0.144329
  37 H :    0.144356
  38 Mg:    0.094570
  39 O :   -0.111267
  40 H :    0.204850
  41 H :    0.205097

-------------------------------
LOEWDIN REDUCED ORBITAL CHARGES
-------------------------------
  0 N s       :     2.974878  s :     2.974878
      pz      :     1.137972  p :     3.608659
      px      :     1.259752
      py      :     1.210934
      dz2     :     0.016213  d :     0.205032
      dxz     :     0.022739
      dyz     :     0.029242
      dx2y2   :     0.073831
      dxy     :     0.063007
      f0      :     0.001140  f :     0.018438
      f+1     :     0.001215
      f-1     :     0.001438
      f+2     :     0.002861
      f-2     :     0.000446
      f+3     :     0.006631
      f-3     :     0.004707

  1 N s       :     2.971720  s :     2.971720
      pz      :     1.202203  p :     3.639572
      px      :     1.188395
      py      :     1.248974
      dz2     :     0.016016  d :     0.198606
      dxz     :     0.030434
      dyz     :     0.022991
      dx2y2   :     0.069677
      dxy     :     0.059488
      f0      :     0.001100  f :     0.018533
      f+1     :     0.001377
      f-1     :     0.001260
      f+2     :     0.003457
      f-2     :     0.000303
      f+3     :     0.004828
      f-3     :     0.006208

  2 N s       :     2.971925  s :     2.971925
      pz      :     1.202520  p :     3.639870
      px      :     1.201762
      py      :     1.235588
      dz2     :     0.016040  d :     0.198604
      dxz     :     0.029537
      dyz     :     0.024047
      dx2y2   :     0.068559
      dxy     :     0.060421
      f0      :     0.001097  f :     0.018526
      f+1     :     0.001450
      f-1     :     0.001188
      f+2     :     0.003378
      f-2     :     0.000402
      f+3     :     0.004560
      f-3     :     0.006451

  3 N s       :     2.972030  s :     2.972030
      pz      :     1.176140  p :     3.620345
      px      :     1.245728
      py      :     1.198477
      dz2     :     0.015994  d :     0.203330
      dxz     :     0.025484
      dyz     :     0.032988
      dx2y2   :     0.068837
      dxy     :     0.060027
      f0      :     0.001075  f :     0.018902
      f+1     :     0.001205
      f-1     :     0.001401
      f+2     :     0.003821
      f-2     :     0.000341
      f+3     :     0.006360
      f-3     :     0.004699

  4 C s       :     2.764268  s :     2.764268
      pz      :     1.038860  p :     3.028642
      px      :     0.984954
      py      :     1.004829
      dz2     :     0.043626  d :     0.358195
      dxz     :     0.047744
      dyz     :     0.090563
      dx2y2   :     0.091467
      dxy     :     0.084795
      f0      :     0.004129  f :     0.040156
      f+1     :     0.003230
      f-1     :     0.004127
      f+2     :     0.004460
      f-2     :     0.005317
      f+3     :     0.009130
      f-3     :     0.009763

  5 C s       :     2.764375  s :     2.764375
      pz      :     1.038997  p :     3.028634
      px      :     1.002798
      py      :     0.986839
      dz2     :     0.040476  d :     0.358086
      dxz     :     0.094129
      dyz     :     0.048063
      dx2y2   :     0.085660
      dxy     :     0.089757
      f0      :     0.003839  f :     0.040138
      f+1     :     0.004520
      f-1     :     0.003307
      f+2     :     0.004309
      f-2     :     0.005126
      f+3     :     0.007632
      f-3     :     0.011405

  6 C s       :     2.713530  s :     2.713530
      pz      :     0.798260  p :     2.763482
      px      :     1.016312
      py      :     0.948910
      dz2     :     0.041563  d :     0.633970
      dxz     :     0.086235
      dyz     :     0.114641
      dx2y2   :     0.191257
      dxy     :     0.200274
      f0      :     0.005080  f :     0.077364
      f+1     :     0.004180
      f-1     :     0.006303
      f+2     :     0.011265
      f-2     :     0.006614
      f+3     :     0.030501
      f-3     :     0.013422

  7 C s       :     2.713500  s :     2.713500
      pz      :     0.798065  p :     2.763963
      px      :     0.942499
      py      :     1.023399
[...]
  0-1A  ->  1-1A    2.175711   17548.3   569.9   0.211745860   0.02540   0.10057  -0.12362  -0.00074
  0-1A  ->  2-1A    2.538787   20476.7   488.4   0.012735866   0.00178  -0.03286  -0.02650  -0.00074
  0-1A  ->  3-1A    3.357881   27083.1   369.2   1.358007607   0.25137   0.38946   0.31569   0.00529
  0-1A  ->  4-1A    3.553626   28661.9   348.9   1.083180312   0.21218  -0.29004   0.35783   0.00415
  0-1A  ->  5-1A    4.058410   32733.3   305.5   0.002814515   0.00063   0.01462  -0.02038   0.00059
  0-1A  ->  6-1A    4.155908   33519.7   298.3   0.041116740   0.00942   0.07611   0.06021   0.00157
  0-1A  ->  7-1A    4.553055   36722.9   272.3   0.149185654   0.03744  -0.14971  -0.12243  -0.00643
  0-1A  ->  8-1A    4.747791   38293.5   261.1   0.072163602   0.01889  -0.08764   0.10585   0.00084
  0-1A  ->  9-1A    4.754927   38351.1   260.7   0.001842935   0.00048   0.01381  -0.01710  -0.00023
  0-1A  -> 10-1A    4.821382   38887.1   257.2   0.001723063   0.00046   0.00601  -0.02029  -0.00318
  0-1A  -> 11-1A    4.988878   40238.0   248.5   0.102577714   0.02821   0.10661  -0.12966  -0.00548
  0-1A  -> 12-1A    5.012711   40430.2   247.3   0.000758894   0.00021   0.00031  -0.01074   0.00970
  0-1A  -> 13-1A    5.071171   40901.8   244.5   0.018500135   0.00517  -0.05508  -0.04578   0.00646
  0-1A  -> 14-1A    5.255417   42387.8   235.9   0.026088866   0.00756   0.06864   0.05332  -0.00183
  0-1A  -> 15-1A    5.304605   42784.5   233.7   0.002156920   0.00063   0.00306  -0.02492   0.00040
  0-1A  -> 16-1A    5.352291   43169.1   231.6   0.148006107   0.04367   0.13253  -0.16156  -0.00136
  0-1A  -> 17-1A    5.370496   43316.0   230.9   0.017501293   0.00518   0.05258   0.04895   0.00448
  0-1A  -> 18-1A    5.509693   44438.7   225.0   0.144092896   0.04376   0.13186  -0.16241  -0.00002
  0-1A  -> 19-1A    5.659578   45647.6   219.1   0.002322308   0.00072   0.01176  -0.00393  -0.02389
  0-1A  -> 20-1A    5.716132   46103.7   216.9   0.010765674   0.00339   0.03624  -0.04507  -0.00689
  0-1A  -> 21-1A    5.828763   47012.2   212.7   0.000145401   0.00005   0.00227  -0.00487   0.00423
  0-1A  -> 22-1A    5.847159   47160.5   212.0   0.001344974   0.00043   0.01824  -0.00987  -0.00184
  0-1A  -> 23-1A    5.906081   47635.8   209.9   0.000410035   0.00013  -0.00839  -0.00792   0.00066
  0-1A  -> 24-1A    5.949702   47987.6   208.4   0.020365755   0.00668   0.05112  -0.06334  -0.00733
  0-1A  -> 25-1A    6.137579   49502.9   202.0   0.009044380   0.00306  -0.03405   0.04359   0.00041
  0-1A  -> 26-1A    6.149880   49602.1   201.6   0.001221437   0.00041  -0.01316   0.01542   0.00182
  0-1A  -> 27-1A    6.181231   49855.0   200.6   0.005929110   0.00202  -0.03662  -0.02548   0.00547
  0-1A  -> 28-1A    6.192767   49948.0   200.2   0.000646473   0.00022   0.00111  -0.01477   0.00114
  0-1A  -> 29-1A    6.328416   51042.1   195.9   0.001664363   0.00058   0.00189   0.00021   0.02402
  0-1A  -> 30-1A    6.419678   51778.2   193.1   0.046997350   0.01663  -0.08139   0.09985   0.00611

------------------------------------------------------------------------------------------
                     CD SPECTRUM VIA TRANSITION ELECTRIC DIPOLE MOMENTS    
------------------------------------------------------------------------------------------
     Transition      Energy     Energy  Wavelength    R        MX        MY        MZ   
                      (eV)      (cm-1)    (nm)   (1e40*cgs)   (au)      (au)      (au)  
------------------------------------------------------------------------------------------
  0-1A  ->  1-1A    2.175711   17548.3   569.9    3.23243  -0.01907  -0.02645   0.99674
  0-1A  ->  2-1A    2.538787   20476.7   488.4   -0.50900  -0.00516   0.01015   0.00169
  0-1A  ->  3-1A    3.357881   27083.1   369.2  -23.44251   0.03183  -0.05855  -0.00189
  0-1A  ->  4-1A    3.553626   28661.9   348.9    4.30524   0.06635   0.05629   0.06956
  0-1A  ->  5-1A    4.058410   32733.3   305.5   -2.22460   0.00413   0.01878  -0.68672
  0-1A  ->  6-1A    4.155908   33519.7   298.3   -1.94278   0.02850  -0.04628  -0.00965
  0-1A  ->  7-1A    4.553055   36722.9   272.3   -3.29353  -0.01316   0.02531   0.00623
  0-1A  ->  8-1A    4.747791   38293.5   261.1    0.36052   0.04160   0.03943  -0.48482
  0-1A  ->  9-1A    4.754927   38351.1   260.7    0.20769   0.03184   0.01972   0.02340
  0-1A  -> 10-1A    4.821382   38887.1   257.2   15.14463   0.17547  -0.22047  -0.05042
  0-1A  -> 11-1A    4.988878   40238.0   248.5    1.24756  -0.01918   0.01224  -0.77187
  0-1A  -> 12-1A    5.012711   40430.2   247.3    0.71739   0.04849  -0.06225  -0.03856
  0-1A  -> 13-1A    5.071171   40901.8   244.5   -0.78744   0.00291   0.00200  -0.00966
  0-1A  -> 14-1A    5.255417   42387.8   235.9    5.42241   0.02665   0.00739   0.01259
  0-1A  -> 15-1A    5.304605   42784.5   233.7   -6.32296   0.15737   0.12577   0.10633
  0-1A  -> 16-1A    5.352291   43169.1   231.6   -1.57167  -0.03327  -0.02009  -0.40218
  0-1A  -> 17-1A    5.370496   43316.0   230.9    0.08410   0.00882  -0.00929   0.00591
  0-1A  -> 18-1A    5.509693   44438.7   225.0    1.34015  -0.02320  -0.02259   0.27421
  0-1A  -> 19-1A    5.659578   45647.6   219.1    1.13595   0.02525  -0.03680  -0.00283
  0-1A  -> 20-1A    5.716132   46103.7   216.9    5.06291  -0.01882   0.01173  -0.47944
  0-1A  -> 21-1A    5.828763   47012.2   212.7    0.17525  -0.01405  -0.03245  -0.00009
  0-1A  -> 22-1A    5.847159   47160.5   212.0   -1.92512  -0.08303  -0.05633  -0.00867
  0-1A  -> 23-1A    5.906081   47635.8   209.9    0.76464   0.00533  -0.05359  -0.00023
  0-1A  -> 24-1A    5.949702   47987.6   208.4    2.24437   0.00811  -0.00947  -0.00031
  0-1A  -> 25-1A    6.137579   49502.9   202.0   -0.66656  -0.04599  -0.04443   0.13777
  0-1A  -> 26-1A    6.149880   49602.1   201.6    0.28476   0.11824   0.10808   0.03143
  0-1A  -> 27-1A    6.181231   49855.0   200.6    3.48372  -0.05049   0.00904   0.01442
  0-1A  -> 28-1A    6.192767   49948.0   200.2   -1.46542   0.04541   0.04917  -0.03708
  0-1A  -> 29-1A    6.328416   51042.1   195.9    0.70691   0.09103  -0.11342   0.00967
  0-1A  -> 30-1A    6.419678   51778.2   193.1    1.10457   0.00307  -0.00444   0.20538

------------------------------------------------------------------------------------------
                     CD SPECTRUM VIA TRANSITION VELOCITY DIPOLE MOMENTS    
------------------------------------------------------------------------------------------
     Transition      Energy     Energy  Wavelength    R        MX        MY        MZ   
                      (eV)      (cm-1)    (nm)   (1e40*cgs)   (au)      (au)      (au)  
------------------------------------------------------------------------------------------
  0-1A  ->  1-1A    2.175711   17548.3   569.9    3.61607  -0.01907  -0.02645   0.99674
  0-1A  ->  2-1A    2.538787   20476.7   488.4   -0.50869  -0.00516   0.01015   0.00169
  0-1A  ->  3-1A    3.357881   27083.1   369.2  -23.29392   0.03183  -0.05855  -0.00189
  0-1A  ->  4-1A    3.553626   28661.9   348.9    4.28837   0.06635   0.05629   0.06956
  0-1A  ->  5-1A    4.058410   32733.3   305.5   -2.30352   0.00413   0.01878  -0.68672
  0-1A  ->  6-1A    4.155908   33519.7   298.3   -1.95161   0.02850  -0.04628  -0.00965
  0-1A  ->  7-1A    4.553055   36722.9   272.3   -3.28995  -0.01316   0.02531   0.00623
  0-1A  ->  8-1A    4.747791   38293.5   261.1    0.31966   0.04160   0.03943  -0.48482
  0-1A  ->  9-1A    4.754927   38351.1   260.7    0.26235   0.03184   0.01972   0.02340
  0-1A  -> 10-1A    4.821382   38887.1   257.2   15.13434   0.17547  -0.22047  -0.05042
  0-1A  -> 11-1A    4.988878   40238.0   248.5    1.54269  -0.01918   0.01224  -0.77187
  0-1A  -> 12-1A    5.012711   40430.2   247.3    0.79260   0.04849  -0.06225  -0.03856
  0-1A  -> 13-1A    5.071171   40901.8   244.5   -0.79442   0.00291   0.00200  -0.00966
  0-1A  -> 14-1A    5.255417   42387.8   235.9    5.37077   0.02665   0.00739   0.01259
  0-1A  -> 15-1A    5.304605   42784.5   233.7   -6.31549   0.15737   0.12577   0.10633
  0-1A  -> 16-1A    5.352291   43169.1   231.6   -1.48103  -0.03327  -0.02009  -0.40218
  0-1A  -> 17-1A    5.370496   43316.0   230.9    0.08403   0.00882  -0.00929   0.00591
  0-1A  -> 18-1A    5.509693   44438.7   225.0    1.40529  -0.02320  -0.02259   0.27421
  0-1A  -> 19-1A    5.659578   45647.6   219.1    1.15367   0.02525  -0.03680  -0.00283
  0-1A  -> 20-1A    5.716132   46103.7   216.9    4.69551  -0.01882   0.01173  -0.47944
  0-1A  -> 21-1A    5.828763   47012.2   212.7    0.27681  -0.01405  -0.03245  -0.00009
  0-1A  -> 22-1A    5.847159   47160.5   212.0   -2.06862  -0.08303  -0.05633  -0.00867
  0-1A  -> 23-1A    5.906081   47635.8   209.9    0.82412   0.00533  -0.05359  -0.00023
  0-1A  -> 24-1A    5.949702   47987.6   208.4    2.19233   0.00811  -0.00947  -0.00031
  0-1A  -> 25-1A    6.137579   49502.9   202.0   -0.65613  -0.04599  -0.04443   0.13777
  0-1A  -> 26-1A    6.149880   49602.1   201.6    0.34921   0.11824   0.10808   0.03143
  0-1A  -> 27-1A    6.181231   49855.0   200.6    3.52361  -0.05049   0.00904   0.01442
  0-1A  -> 28-1A    6.192767   49948.0   200.2   -1.48761   0.04541   0.04917  -0.03708
  0-1A  -> 29-1A    6.328416   51042.1   195.9    0.77132   0.09103  -0.11342   0.00967
  0-1A  -> 30-1A    6.419678   51778.2   193.1    1.12093   0.00307  -0.00444   0.20538

Total run time:    13270.946 sec

           *** ORCA-CIS/TD-DFT FINISHED WITHOUT ERROR ***
-----------------------
CIS/TD-DFT TOTAL ENERGY
-----------------------

    E(SCF)  =  -1266.088670080 Eh
    DE(CIS) =      0.079955917 Eh (Root  1)
    ----------------------------- ---------
    E(tot)  =  -1266.008714163 Eh


Maximum memory used throughout the entire CIS-calculation: 2711.0 MB
=> NOW LEAVING ORCA_CIS

-------------------------   --------------------
FINAL SINGLE POINT ENERGY     -1266.008714163423
-------------------------   --------------------



           ************************************************************
           *        Program running with 4 parallel MPI-processes     *
           *              working on a common directory               *
           ************************************************************

------------------------------------------------------------------------------
                              ORCA PROPERTY CALCULATIONS
------------------------------------------------------------------------------

GBWName                                 ... tddft.gbw
Number of atoms                         ...     42
Number of basis functions               ...    903
Max core memory                         ...   3000 MB

Electric properties:
Dipole moment                           ... YES
Quadrupole moment                       ...  NO
Static polarizability (Dipole/Dipole)   ...  NO
Static polarizability (Dipole/Quad.)    ...  NO
Static polarizability (Quad./Quad.)     ...  NO
Static polarizability (Velocity)        ...  NO
Static hyperpolarizability              ...  NO

Atomic electric properties:
Dipole moment                           ...  NO
Quadrupole moment                       ...  NO
Static polarizability                   ...  NO

Choice of electric origin               ... Center of mass
Position of electric origin             ...     0.033518    -0.007318     0.254024

General magnetic properties:
Magnetizability                         ...  NO

EPR properties:
g-Tensor (aka g-matrix)                 ...  NO
Zero-Field splitting spin-orbit         ...  NO
Zero-field splitting spin-spin          ...  NO
Hyperfine couplings                     ...  NO (   0 nuclei)
Quadrupole couplings                    ...  NO (   0 nuclei)
Contact density                         ...  NO (   0 nuclei)

NMR properties:
Chemical shifts                         ...  NO (   0 nuclei)
Spin-rotation constants                 ...  NO (   0 nuclei)
Spin-spin couplings                     ...  NO (   0 nuclei,    0 pairs)

Choice of magnetic origin               ... GIAO
Position of magnetic origin             ...     0.000000     0.000000     0.000000

Properties with geometric perturbations:
SCF Hessian                             ...  NO
IR spectrum                             ...  NO
VCD spectrum                            ...  NO
X-ray spectroscopy properties:
SCF XES/XAS/RIXS spectra                ...  NO

SCF SOC stabilization energy            ...  NO
Diagonal Born-Oppenheimer correction    ...  NO

-------------
DIPOLE MOMENT
-------------

Method             : SCF
Type of density    : Electron Density
Multiplicity       :   1
Irrep              :   0
Energy             : -1266.0886700800681410 Eh
Basis              : AO
                                X                 Y                 Z
Electronic contribution:     -5.510368640      -4.416347062      -1.018854070
Nuclear contribution   :      7.058745785       5.609567489       2.374276317
                        -----------------------------------------
Total Dipole Moment    :      1.548377145       1.193220427       1.355422247
                        -----------------------------------------
Magnitude (a.u.)       :      2.378742575
Magnitude (Debye)      :      6.046283120



--------------------
Rotational spectrum 
--------------------
 
Rotational constants in cm-1:             0.008427             0.008118             0.004363 
Rotational constants in MHz :           252.622162           243.384689           130.800892 

Dipole components along the rotational axes: 
x,y,z [a.u.] :     1.968847     0.029756     1.334606 
x,y,z [Debye]:     5.004410     0.075635     3.392300 

 

Dipole moment calculation done in   0.1 sec 

Maximum memory used throughout the entire PROP-calculation: 97.6 MB

--------------------------------
SUGGESTED CITATIONS FOR THIS RUN
--------------------------------

Below you find a list of papers that are relevant to this ORCA run
We neither can nor want to force you to cite these papers, but we appreciate if you do
You receive ORCA, which is the product of decades of hard work by many enthusiastic individuals, for free
The only thing we kindly ask in return is that you cite our papers,
We deeply appreciate it, if you show your appreciation for ORCA by not just citing the generic ORCA reference.

Please note that relegating all ORCA citations to the supporting information does *not* help us.
SI sections are not indexed - citations you put there will not count into any citation statistics
But we need these citations in order to attract the funding resources that allow us to do what we are doing

Therefore, if you are a happy ORCA user, please consider citing a few of the papers listed below in the main body of your paper

In addition to the list printed below, the program has created the file tddft.bibtex that contains the list in bibtex format
You can import this file easily into all common literature databanks and citation aid programs

It goes without saying that in many instances, there are alternative algorithms to achieve similar
results as the ones you have gotten from ORCA. It is, of course, also the case that in some instances
ORCA just re-implements algorithms worked out by others. We are fully aware of that and we are also
fully appreciative of our colleagues work. Hence this citation list should not be read as indicating
that the listed papers, which are focused on our own work, are the only ones worth citing. It simply
meant to make it easier for users to cite ORCA specific papers. It is not a substitute for doing your
own literature research and citing the relevant literature in a scientifically appropriate manner.

List of essential papers. We consider these as the minimum necessary citations

  1. Neese, F.
     Software update: the ORCA program system, version 6.0
     WIRES Comput. Molec. Sci. 2025 15(1), e70019
     doi.org/10.1002/wcms.70019

List of papers to cite with high priority. The work reported in these papers was absolutely
necessary for this run to complete.
Our perspective: the developers of density functionals and basis sets usually get cited in chemistry papers
Good! But without the algorithms to do something with them, the functionals or basis sets would not do anything.
Hence, in our opinion, the algorithm design and method developments papers are equally worthy of getting cited

  1. Neese, F.; Olbrich, G.
     Efficient use of the resolution of the identity approximation in time-dependent density functional calculations with hybrid density functionals
     Chem. Phys. Lett. 2002 362 , 170-178
     doi.org/10.1016/s0009-2614(02)01053-9
  2. Neese, F.
     An improvement of the resolution of the identity approximation for the formation of the Coulomb matrix
     J. Comp. Chem. 2003 24(14), 1740-1747
     doi.org/10.1002/jcc.10318
  3. Neese, F.; Wennmohs, F.; Hansen, A.; Becker, U.
     Efficient, approximate and parallel Hartree-Fock and hybrid DFT calculations. A 'chain-of-spheres' algorithm for the Hartree-Fock exchange
     Chem. Phys. 2009 356(1-3), 98-109
     doi.org/10.1016/j.chemphys.2008.10.036
  4. Garcia-Rates, M.; Neese, F.
     Effect of the Solute Cavity on the Solvation Energy and its Derivatives within the Framework of the Gaussian Charge Scheme
     J. Comput. Chem. 2020 41 , 922-939
     doi.org/10.1002/jcc.26139
  5. Helmich-Paris, B.; de Souza, B.; Neese, F.; Izsák, R.
     An improved chain of spheres for exchange algorithm
     J. Chem. Phys. 2021 155(10), 104109
     doi.org/10.1063/5.0058766
  6. Neese, F.
     The SHARK Integral Generation and Digestion System
     J. Comp. Chem. 2022 44(3), 381
     doi.org/10.1002/jcc.26942

List of suggested additional citations. These are papers that are important in the 'surrounding' of 
of this run, or papers that preceded the highly important papers. If you like your results we are grateful for a citation.

  1. Izsak, R.; Neese, F.
     An overlap fitted chain of spheres exchange method
     J. Chem. Phys. 2011 135 , 144105
     doi.org/10.1063/1.3646921
  2. Izsak, R.; Hansen, A.; Neese, F.
     The resolution of identity and chain of spheres approximations for the LPNO-CCSD singles Fock term
     Molec. Phys. 2012 110 , 2413-2417
     doi.org/10.1080/00268976.2012.687466
  3. Neese, F.
     The ORCA program system
     WIRES Comput. Molec. Sci. 2012 2(1), 73-78
     doi.org/10.1002/wcms.81
  4. Izsak, R.; Neese, F.; Klopper, W.
     Robust fitting techniques in the chain of spheres approximation to the Fock exchange: The role of the complementary space
     J. Chem. Phys. 2013 139 , 
     doi.org/10.1063/1.4819264
  5. Neese, F.
     Software update: the ORCA program system, version 4.0
     WIRES Comput. Molec. Sci. 2018 8(1), 1-6
     doi.org/10.1002/wcms.1327
  6. Neese, F.; Wennmohs, F.; Becker, U.; Riplinger, C.
     The ORCA quantum chemistry program package
     J. Chem. Phys. 2020 152(22), 224108
     doi.org/10.1063/5.0004608
  7. Neese, F.
     Software update: The ORCA program system—Version 5.0
     WIRES Comput. Molec. Sci. 2022 12(1), e1606
     doi.org/10.1002/wcms.1606

List of optional additional citations

  1. Neese, F.
     Approximate second-order SCF convergence for spin unrestricted wavefunctions
     Chem. Phys. Lett. 2000 325(1-3), 93-98
     doi.org/10.1016/s0009-2614(00)00662-x

Timings for individual modules:

Sum of individual times          ...    15304.807 sec (= 255.080 min)
Startup calculation              ...       17.780 sec (=   0.296 min)   0.1 %
SCF iterations                   ...     2011.918 sec (=  33.532 min)  13.1 %
Property integrals               ...        3.003 sec (=   0.050 min)   0.0 %
Property calculations            ...        0.700 sec (=   0.012 min)   0.0 %
CIS module                       ...    13271.406 sec (= 221.190 min)  86.7 %
                             ****ORCA TERMINATED NORMALLY****
TOTAL RUN TIME: 0 days 4 hours 15 minutes 5 seconds 233 msec
