
                                 *****************
                                 * O   R   C   A *
                                 *****************

                                            #,                                       
                                            ###                                      
                                            ####                                     
                                            #####                                    
                                            ######                                   
                                           ########,                                 
                                     ,,################,,,,,                         
                               ,,#################################,,                 
                          ,,##########################################,,             
                       ,#########################################, ''#####,          
                    ,#############################################,,   '####,        
                  ,##################################################,,,,####,       
                ,###########''''           ''''###############################       
              ,#####''   ,,,,##########,,,,          '''####'''          '####       
            ,##' ,,,,###########################,,,                        '##       
           ' ,,###''''                  '''############,,,                           
         ,,##''                                '''############,,,,        ,,,,,,###''
      ,#''                                            '''#######################'''  
     '                                                          ''''####''''         
             ,#######,   #######,   ,#######,      ##                                
            ,#'     '#,  ##    ##  ,#'     '#,    #''#        ,####,    ,#,          
            ##       ##  ##   ,#'  ##            #'  '#       #'       ,# #          
            ##       ##  #######   ##           ,######,      #####,      #          
            '#,     ,#'  ##    ##  '#,     ,#' ,#      #,     #,   #      #          
             '#######'   ##     ##  '#######'  #'      '#     '####' #    #          



                #########################################################
                #                        -***-                          #
                #          Department of theory and spectroscopy        #
                #                                                       #
                #                      Frank Neese                      #
                #                                                       #
                #     Directorship, Architecture, Infrastructure        #
                #                    SHARK, DRIVERS                     #
                #        Core code/Algorithms in most modules           #
                #                                                       #
                #        Max Planck Institute fuer Kohlenforschung      #
                #                Kaiser Wilhelm Platz 1                 #
                #                 D-45470 Muelheim/Ruhr                 #
                #                      Germany                          #
                #                                                       #
                #                  All rights reserved                  #
                #                        -***-                          #
                #########################################################


                         Program Version 6.1.1  -  RELEASE   -
                                (GIT: $487d211c$)
                          ($2025-11-21 10:33:24 +0100$)


 With contributions from (in alphabetic order):
[Max-Planck-Institut fuer Kohlenforschung]                               
  Daniel Aravena         : Magnetic Suceptibility                        
  Michael Atanasov       : Ab Initio Ligand Field Theory (pilot matlab implementation)
  Alexander A. Auer      : GIAO ZORA, VPT2 properties, NMR spectrum      
  Ute Becker             : All parallelization in ORCA, NUMFREQ, NUMCALC 
  Giovanni Bistoni       : ED, misc. LED, open-shell LED, HFLD           
  Dmytro Bykov           : pre 5.0 version of the SCF Hessian            
  Marcos Casanova-Páez   : Triplet and SCS-CIS(D). UHF-(DLPNO)-IP/EA/STEOM-CCSD. UHF-CVS-IP/STEOM-CCSD   
  Vijay G. Chilkuri      : MRCI spin determinant printing, contributions to CSF-ICE 
  Pauline Colinet        : FMM embedding                                 
  Dipayan Datta          : RHF DLPNO-CCSD density                        
  Achintya Kumar Dutta   : EOM-CC, STEOM-CC                              
  Nicolas Foglia         : Exact transition moments, OPA infrastructure, MCD improvements    
  Dmitry Ganyushin       : Spin-Orbit,Spin-Spin,Magnetic field MRCI      
  Miquel Garcia-Rates    : C-PCM and meta-GGA Hessian, CCSD/C-PCM, Gaussian charge scheme 
  Tiago L. C. Gouveia    : GS-ROHF, GS-ROCIS                             
  Yang Guo               : DLPNO-NEVPT2, F12-NEVPT2, CIM, IAO-localization        
  Andreas Hansen         : Spin unrestricted coupled pair/coupled cluster methods 
  Ingolf Harden          : AUTO-CI MPn and infrastructure                
  Benjamin Helmich-Paris : MC-RPA, TRAH-(SCF,CASSCF), AVAS, COSX integrals, SCF dyn. polar., MC-PDFT, srDFT 
  Lee Huntington         : MR-EOM, pCC                                   
  Robert Izsak           : Overlap fitted RIJCOSX, COSX-SCS-MP3, EOM     
  Riya Kayal             : Wick's Theorem for AUTO-CI, AUTO-CI UHF-CCSDT 
  Emily Kempfer          : AUTO-CI RHF CISDT and CCSDT, approximate NEVPT4
  Christian Kollmar      : KDIIS, OOCD, Brueckner-CCSD(T), CCSD density, CASPT2, CASPT2-K, improved NEVPT2 
  Axel Koslowski         : Symmetry handling                             
  Simone Kossmann        : meta-GGA functionals, TD-DFT gradient, OOMP2, (MP2 Hessian; deprecated post 5.0) 
  Lucas Lang             : DCDCAS, Hyperfine gauge corrections, ICE-SOC+SSC
  Marvin Lechner         : AUTO-CI (C++ implementation), FIC-MRCC        
  Spencer Leger          : CASSCF response                               
  Dagmar Lenk            : GEPOL surface, SMD, ORCA-2-JSON               
  Dimitrios Liakos       : Extrapolation schemes; Compound Job, Property file
  Dimitrios Manganas     : Further ROCIS development; embedding schemes. LFT, Crystal Embedding 
  Dimitrios Pantazis     : SARC Basis sets                               
  Anastasios Papadopoulos: AUTO-CI, single reference methods and gradients 
  Taras Petrenko         : pre 6.0 DFT Hessian and TD-DFT gradient,  ECA, NRVS 
  Petra Pikulova         : Analytic Raman intensities                    
  Peter Pinski           : DLPNO-MP2, DLPNO-MP2 Gradient                 
  Shashank Vittal Rao    : ES-AILFT, MagRelax                            
  Christoph Reimann      : Effective Core Potentials                     
  Marius Retegan         : Local ZFS, SOC                                
  Christoph Riplinger    : Optimizer, TS searches, QM/MM, DLPNO-CCSD(T), (RO)-DLPNO pert. Triples 
  Michael Roemelt        : Original ROCIS implementation, recursive CI coupling coefficients
  Masaaki Saitow         : Open-shell DLPNO-CCSD energy and density      
  Barbara Sandhoefer     : DKH picture change effects                    
  Yorick L. A. Schmerwitz: GMF and freeze-and-release deltaSCF, NEB S-IDPP initial path                    
  Kantharuban Sivalingam : CASSCF convergence/infrastructure, NEVPT2, NEVPT3, NEVPT4(SD), FIC-MRCI and CEPA variants
  Bernardo de Souza      : ESD, SOC TD-DFT                               
  Georgi L. Stoychev     : AutoAux, RI-MP2 NMR, DLPNO-MP2 response, X2C  
  Van Anh Tran           : RI-MP2 g-tensors                              
  Willem Van den Heuvel  : Paramagnetic NMR                              
  Zikuan Wang            : NOTCH, Electric field optimization            
  Frank Wennmohs         : Technical directorship and infrastructure     
  Hang Xu                : AUTO-CI-Response properties                   
                                                                         
[FACCTs GmbH]                                                            
  Markus Bursch, Nicolas Foglia, Miquel Garcia-Rates, Ingolf Harden, Hagen Neugebauer, Anastasios Papadopoulos, 
  Christoph Riplinger, Bernardo de Souza, Georgi L. Stoychev                                                    
                                                                 
  APM, various basis sets, CI-OPT, improved COSX, DLPNO-Multilevel,           
  DOCKER, DRACO, updates on ESD, Fragmentator, GOAT, IRC, LR-CPCM, L-BFGS, MBIS, meta-GGA TD-DFT gradient, ML-optimized integration grids, 
  MM, NACMEs, nearIR, NEB, NEB-TS, NL-DFT gradient (VV10), 2- and 3-layer-ONIOM, interface openCOSMO-RS, QMMM,   
  Crystal-QMMM, RESP, rigid body optimization, SF, symmetry and pop. for TD-DFT, various functionals, SOLVATOR                                   
                                                                         
[Other institutions]                                                     
  V. Asgeirsson          : NEB                                           
  Christoph Bannwarth    : sTDA-DFT, sTD-DFT, PBEh-3c, B97-3c, D3        
  Giovanni Bistoni       : ETS/NOCV, ADLD/ADEX, COVALED                  
  Martin Brehm           : Molecular dynamics                            
  Ronald Cardenas        : ETS/NOCV                                      
  Martina Colucci        : COVALED                                       
  Sebastian Ehlert       : rSCAN, r2SCAN, r2SCAN-3c, D4, dhf basis sets  
  Marvin Friede          : D4 for Fr, Ra, Ac-Lr                          
  Lars Goerigk           : TD-DFT with DH, B97 family of functionals     
  Stefan Grimme          : VdW corrections, initial TS optimization, DFT functionals, gCP, sTDA/sTD-DF 
  Waldemar Hujo          : DFT-NL                                        
  H. Jonsson             : NEB                                           
  Holger Kruse           : gCP                                           
  Marcel Mueller         : wB97X-3c, vDZP basis set                      
  Hagen Neugebauer       : wr2SCAN, Native XTB                           
  Gianluca Regni         : ADLD/ADEX                                     
  Tobias Risthaus        : pre 6.0 range-separated hybrid DFT and stability analysis
  Lukas Wittmann         : regularized MP2, r2SCAN double-hybrids, wr2SCAN        
                                                                         
We gratefully acknowledge several colleagues who have allowed us to      
interface, adapt or use parts of their codes:                            
  Ed Valeev, F. Pavosevic, A. Kumar             : LibInt (2-el integral package), F12 methods 
  Garnet Chan, S. Sharma, J. Yang, R. Olivares  : DMRG                   
  Ulf Ekstrom                                   : XCFun DFT Library      
  Mihaly Kallay                                 : mrcc  (arbitrary order and MRCC methods)
  Frank Weinhold                                : gennbo (NPA and NBO analysis)           
  Simon Mueller                                 : openCOSMO-RS                            
  Christopher J. Cramer and Donald G. Truhlar   : smd solvation model                     
  S Lehtola, MJT Oliveira, MAL Marques          : LibXC Library                           
  Liviu Ungur et al                             : ANISO software                          


 Your calculation uses the libint2 library for the computation of 2-el integrals
 For citations please refer to: http://libint.valeyev.net

 Your ORCA version has been built with support for libXC version: 7.0.0
 For citations please refer to: https://libxc.gitlab.io

 This ORCA versions uses:
   CBLAS   interface :  Fast vector & matrix operations
   LAPACKE interface :  Fast linear algebra routines
   SCALAPACK package :  Parallel linear algebra routines
   Shared memory     :  Shared parallel matrices
   BLAS/LAPACK       :  OpenBLAS 0.3.29  USE64BITINT DYNAMIC_ARCH NO_AFFINITY Haswell SINGLE_THREADED
        Core in use  :  Haswell
   Copyright (c) 2011-2014, The OpenBLAS Project


  ***********************************
  * Starting time: Fri Jul 10 22:50:07 2026
  * Host name:     steezy
  * Process ID:    2075441
  * Working dir.:  /home/jannes/chlorophyll-ladder/009-mgchlorin-axial-ligation/mgchlorin_imidazole/03_tddft_ch2cl2/camb3lyp
  ***********************************

NOTE: MaxCore=3000 MB was set to SCF,MP2,MDCI,CIPSI,MRCI,RASCI and CIS
      => If you want to overwrite this, your respective input block should be placed after the MaxCore statement


***************************************
The coordinates will be read from file: /home/jannes/chlorophyll-ladder/009-mgchlorin-axial-ligation/mgchlorin_imidazole/01_opt/mgchlorin_imidazole_opt_b3lypd4_tzvp.xyz
***************************************


XCFun DFT library Copyright 2009-2010 Ulf Ekstrom and contributors.
See http://admol.org/xcfun for more information.
This is free software; see the source code for copying conditions.
There is ABSOLUTELY NO WARRANTY; not even for MERCHANTABILITY or FITNESS FOR A PARTICULAR PURPOSE.
For details see the documentation.
Scientific users of this library should cite U. Ekstrom, L. Visscher, R. Bast, A. J. Thorvaldsen and K. Ruud;
J.Chem.Theor.Comp. 2010, DOI: 10.1021/ct100117s
XCFun Version 0.99 

================================================================================

----- Orbital basis set information -----
Your calculation utilizes the basis: def2-TZVP
   F. Weigend and R. Ahlrichs, Phys. Chem. Chem. Phys. 7, 3297 (2005).

----- AuxJ basis set information -----
Your calculation utilizes the auxiliary basis: def2/J
   H-Rn: F. Weigend, Phys. Chem. Chem. Phys. 8, 1057 (2006).
   Fr-Lr: K. Eichkorn, F. Weigend, O. Treutler, R. Ahlrichs; Theor. Chem. Acc. 97, 119 (1997).

================================================================================
                                        WARNINGS
                       Please study these warnings very carefully!
================================================================================


WARNING: CIS/ROCIS methods need fully converged wavefunctions
  ===> : Setting SCFConvForced true
         You can overwrite this default with %scf ConvForced false 


================================================================================
                                       INPUT FILE
================================================================================
NAME = tddft.inp
|  1> %pal nprocs 4 end
|  2> %maxcore 3000
|  3> ! CAM-B3LYP def2-TZVP def2/J RIJCOSX DefGrid3 TightSCF CPCM(CH2Cl2)
|  4> %tddft
|  5>   nroots 30
|  6>   tda false
|  7>   triplets false
|  8> end
|  9> * xyzfile 0 1 /home/jannes/chlorophyll-ladder/009-mgchlorin-axial-ligation/mgchlorin_imidazole/01_opt/mgchlorin_imidazole_opt_b3lypd4_tzvp.xyz
| 10> 
| 11>                          ****END OF INPUT****
================================================================================

                       ****************************
                       * Single Point Calculation *
                       ****************************

---------------------------------
CARTESIAN COORDINATES (ANGSTROEM)
---------------------------------
  N      1.686977    1.314594   -0.070141
  N     -1.244066    1.614892    0.010363
  N      1.296068   -1.605044   -0.041730
  N     -1.595971   -1.274834   -0.003516
  C      2.970609    3.301555   -0.232211
  C      3.922431    2.104910   -0.102015
  C      1.597742    2.664663   -0.109541
  C      2.979759    0.914541   -0.093658
  C      0.434405    3.400412   -0.067464
  C      3.423560   -0.389267   -0.088962
  C     -0.889070    2.920137   -0.019573
  C      2.647232   -1.563978   -0.082176
  C     -2.620848    1.565510    0.027377
  C      0.926464   -2.931741   -0.066724
  C     -2.069437    3.748719   -0.008343
  C      3.177401   -2.905444   -0.124641
  C     -3.141080    2.907354    0.021299
  C      2.110072   -3.750696   -0.115251
  C     -3.378288    0.405243    0.033372
  C     -0.376898   -3.398678   -0.057022
  C     -2.911256   -0.915786    0.006138
  C     -1.553694   -2.636326   -0.036770
  C     -3.735300   -2.091666   -0.021863
  C     -2.889482   -3.163600   -0.049382
  H      3.066735    3.799064   -1.200440
  H      3.128997    4.062511    0.533242
  H      4.496140    2.134826    0.827766
  H      4.642784    2.039364   -0.918402
  H      0.544588    4.477580   -0.101599
  H      4.497149   -0.531874   -0.111807
  H     -2.073111    4.827608   -0.035091
  H      4.225360   -3.159508   -0.167527
  H     -4.188580    3.167597    0.023519
  H      2.117427   -4.829413   -0.148927
  H     -4.454237    0.532723    0.041623
  H     -0.502711   -4.474509   -0.080584
  H     -4.814489   -2.097809   -0.027947
  H     -3.147034   -4.211120   -0.081508
  Mg     0.030982    0.001266    0.263024
  N      0.086343    0.074074    2.409607
  C     -0.591908    0.918226    3.154555
  N     -0.375326    0.667276    4.465350
  C      0.491190   -0.400629    4.556276
  C      0.766939   -0.755449    3.268883
  H     -1.233194    1.701213    2.785884
  H      0.818760   -0.797491    5.500144
  H      1.398114   -1.545010    2.899381
  H     -0.782140    1.170094    5.235166

----------------------------
CARTESIAN COORDINATES (A.U.)
----------------------------
  NO LB      ZA    FRAG     MASS         X           Y           Z
   0 N     7.0000    0    14.007    3.187925    2.484222   -0.132548
   1 N     7.0000    0    14.007   -2.350945    3.051704    0.019584
   2 N     7.0000    0    14.007    2.449213   -3.033094   -0.078857
   3 N     7.0000    0    14.007   -3.015948   -2.409087   -0.006645
   4 C     6.0000    0    12.011    5.613637    6.239035   -0.438816
   5 C     6.0000    0    12.011    7.412321    3.977704   -0.192780
   6 C     6.0000    0    12.011    3.019295    5.035483   -0.207002
   7 C     6.0000    0    12.011    5.630929    1.728231   -0.176987
   8 C     6.0000    0    12.011    0.820907    6.425848   -0.127488
   9 C     6.0000    0    12.011    6.469590   -0.735609   -0.168113
  10 C     6.0000    0    12.011   -1.680100    5.518259   -0.036987
  11 C     6.0000    0    12.011    5.002544   -2.955489   -0.155291
  12 C     6.0000    0    12.011   -4.952684    2.958385    0.051734
  13 C     6.0000    0    12.011    1.750763   -5.540187   -0.126089
  14 C     6.0000    0    12.011   -3.910669    7.084053   -0.015767
  15 C     6.0000    0    12.011    6.004418   -5.490494   -0.235538
  16 C     6.0000    0    12.011   -5.935782    5.494104    0.040249
  17 C     6.0000    0    12.011    3.987459   -7.087787   -0.217793
  18 C     6.0000    0    12.011   -6.384039    0.765799    0.063063
  19 C     6.0000    0    12.011   -0.712233   -6.422570   -0.107755
  20 C     6.0000    0    12.011   -5.501477   -1.730584    0.011599
  21 C     6.0000    0    12.011   -2.936056   -4.981934   -0.069486
  22 C     6.0000    0    12.011   -7.058695   -3.952677   -0.041315
  23 C     6.0000    0    12.011   -5.460329   -5.978338   -0.093318
  24 H     1.0000    0     1.008    5.795289    7.179191   -2.268502
  25 H     1.0000    0     1.008    5.912948    7.677034    1.007682
  26 H     1.0000    0     1.008    8.496473    4.034237    1.564250
  27 H     1.0000    0     1.008    8.773590    3.853840   -1.735529
  28 H     1.0000    0     1.008    1.029122    8.461399   -0.191994
  29 H     1.0000    0     1.008    8.498380   -1.005095   -0.211285
  30 H     1.0000    0     1.008   -3.917613    9.122856   -0.066312
  31 H     1.0000    0     1.008    7.984774   -5.970606   -0.316580
  32 H     1.0000    0     1.008   -7.915269    5.985892    0.044444
  33 H     1.0000    0     1.008    4.001357   -9.126268   -0.281431
  34 H     1.0000    0     1.008   -8.417288    1.006701    0.078656
  35 H     1.0000    0     1.008   -0.949986   -8.455596   -0.152281
  36 H     1.0000    0     1.008   -9.098067   -3.964284   -0.052812
  37 H     1.0000    0     1.008   -5.947032   -7.957863   -0.154028
  38 Mg   12.0000    0    24.305    0.058547    0.002392    0.497043
  39 N     7.0000    0    14.007    0.163166    0.139979    4.553497
  40 C     6.0000    0    12.011   -1.118545    1.735195    5.961246
  41 N     7.0000    0    14.007   -0.709264    1.260969    8.438289
  42 C     6.0000    0    12.011    0.928215   -0.757080    8.610113
  43 C     6.0000    0    12.011    1.449305   -1.427593    6.177293
  44 H     1.0000    0     1.008   -2.330398    3.214827    5.264558
  45 H     1.0000    0     1.008    1.547233   -1.507039   10.393766
  46 H     1.0000    0     1.008    2.642052   -2.919646    5.479036
  47 H     1.0000    0     1.008   -1.478030    2.211158    9.893029

--------------------------------
INTERNAL COORDINATES (ANGSTROEM)
--------------------------------
 N      0   0   0     0.000000000000     0.00000000     0.00000000
 N      1   0   0     2.947486350172     0.00000000     0.00000000
 N      1   2   0     2.945828126371    88.20947573     0.00000000
 N      3   1   2     2.911079671341    91.11929974     0.80715272
 C      1   2   3     2.371073823090   117.05466142   176.90212528
 C      5   1   2     1.534560609903    71.12653572   176.43333539
 C      1   2   3     1.353588294752    80.42259655   178.54766819
 C      1   2   3     1.353470340789   168.64364198   357.76596920
 C      7   1   2     1.377116749417   125.99258173     1.50888961
 C      8   1   7     1.377278543597   125.98196374   181.20281987
 C      2   1   3     1.352990322192    80.60546467   180.52233867
 C      3   1   2     1.352393820728    80.62107172   179.90284917
 C      2   1   3     1.377771680673   172.05125211   353.39051782
 C      3   1   2     1.377445050622   171.90094100    12.88565013
 C     11   2   1     1.442199392872   109.83646179   179.55494343
 C     12   3   1     1.443057439826   109.85925776   181.45151808
 C     15  11   2     1.362788822813   106.80176759   359.65838229
 C     16  12   3     1.361517385722   106.79204084     0.29156805
 C     13   2  11     1.385630030716   125.19159905   178.69666656
 C     14   3  12     1.384512915517   125.26106051   180.89130603
 C      4   3   1     1.363446139236   171.23871913     1.67942532
 C      4   3   1     1.362553852118    81.69232101   178.15836169
 C     21   4  22     1.436150364206   109.74083976     0.00000000
 C     23  21   4     1.365726298515   106.71891006   359.96199257
 H      5   1   2     1.092804505014   119.32013955   281.69849699
 H      5   1   2     1.090899211643   127.96557171    71.25187495
 H      6   5   1     1.092944859141   112.11195893   244.98233562
 H      6   5   1     1.090730038156   113.14102048   123.91365165
 H      9   7   1     1.083325722172   116.38172549   179.54988406
 H     10   8   1     1.083260292684   116.35322274   179.92679746
 H     15  11   2     1.079226072128   125.23565366   180.54529963
 H     16  12   3     1.079169192758   125.22500344   179.61585041
 H     17  15  11     1.079345565166   127.90436383   180.91093752
 H     18  16  12     1.079267751577   127.94770026   179.30461915
 H     19  13   2     1.083506306146   116.38115741   180.32684545
 H     20  14   3     1.083418999991   116.36337595   179.96740579
 H     23  21   4     1.079223838068   125.34778292   180.43565273
 H     24  23  21     1.079195358710   127.92598576   180.44323431
 Mg     3   1   2     2.067256417027    46.56842154   349.30073568
 N     39   3   1     2.148530675946    99.08201017   263.50222852
 C     40  39   3     1.314369549312   125.08046622   181.84455130
 N     41  40  39     1.352060218300   110.34113851   177.63312489
 C     42  41  40     1.378238138060   107.96786427   359.94580940
 C     43  42  41     1.363566932247   105.45482476     0.03663726
 H     41  40  39     1.077141930779   125.45699601   357.72628083
 H     43  42  41     1.075029386219   122.38035120   180.17627298
 H     44  43  42     1.076252281312   129.31909261   180.29177562
 H     42  41  40     1.005454808586   125.77750555   180.32691267

---------------------------
INTERNAL COORDINATES (A.U.)
---------------------------
 N      0   0   0     0.000000000000     0.00000000     0.00000000
 N      1   0   0     5.569941985296     0.00000000     0.00000000
 N      1   2   0     5.566808396444    88.20947573     0.00000000
 N      3   1   2     5.501143332861    91.11929974     0.80715272
 C      1   2   3     4.480680168949   117.05466142   176.90212528
 C      5   1   2     2.899899288620    71.12653572   176.43333539
 C      1   2   3     2.557911175162    80.42259655   178.54766819
 C      1   2   3     2.557688274476   168.64364198   357.76596920
 C      7   1   2     2.602373510833   125.99258173     1.50888961
 C      8   1   7     2.602679257524   125.98196374   181.20281987
 C      2   1   3     2.556781170788    80.60546467   180.52233867
 C      3   1   2     2.555653946383    80.62107172   179.90284917
 C      2   1   3     2.603611151544   172.05125211   353.39051782
 C      3   1   2     2.602993910201   171.90094100    12.88565013
 C     11   2   1     2.725361883035   109.83646179   179.55494343
 C     12   3   1     2.726983356789   109.85925776   181.45151808
 C     15  11   2     2.575297653485   106.80176759   359.65838229
 C     16  12   3     2.572894985586   106.79204084     0.29156805
 C     13   2  11     2.618461280991   125.19159905   178.69666656
 C     14   3  12     2.616350239204   125.26106051   180.89130603
 C      4   3   1     2.576539801508   171.23871913     1.67942532
 C      4   3   1     2.574853623222    81.69232101   178.15836169
 C     21   4  22     2.713930875481   109.74083976     0.00000000
 C     23  21   4     2.580848678087   106.71891006   359.96199257
 H      5   1   2     2.065101232393   119.32013955   281.69849699
 H      5   1   2     2.061500749715   127.96557171    71.25187495
 H      6   5   1     2.065366463254   112.11195893   244.98233562
 H      6   5   1     2.061181058156   113.14102048   123.91365165
 H      9   7   1     2.047188928737   116.38172549   179.54988406
 H     10   8   1     2.047065284924   116.35322274   179.92679746
 H     15  11   2     2.039441712909   125.23565366   180.54529963
 H     16  12   3     2.039334226478   125.22500344   179.61585041
 H     17  15  11     2.039667522027   127.90436383   180.91093752
 H     18  16  12     2.039520475653   127.94770026   179.30461915
 H     19  13   2     2.047530182992   116.38115741   180.32684545
 H     20  14   3     2.047365198269   116.36337595   179.96740579
 H     23  21   4     2.039437491148   125.34778292   180.43565273
 H     24  23  21     2.039383672962   127.92598576   180.44323431
 Mg     3   1   2     3.906548476773    46.56842154   349.30073568
 N     39   3   1     4.060134567867    99.08201017   263.50222852
 C     40  39   3     2.483798486965   125.08046622   181.84455130
 N     41  40  39     2.555023529158   110.34113851   177.63312489
 C     42  41  40     2.604492628258   107.96786427   359.94580940
 C     43  42  41     2.576768067218   105.45482476     0.03663726
 H     41  40  39     2.035503256535   125.45699601   357.72628083
 H     43  42  41     2.031511125870   122.38035120   180.17627298
 H     44  43  42     2.033822062687   129.31909261   180.29177562
 H     42  41  40     1.900034228263   125.77750555   180.32691267

---------------------
BASIS SET INFORMATION
---------------------
There are 4 groups of distinct atoms

 Group   1 Type N   : 11s6p2d1f contracted to 5s3p2d1f pattern {62111/411/11/1}
 Group   2 Type C   : 11s6p2d1f contracted to 5s3p2d1f pattern {62111/411/11/1}
 Group   3 Type H   : 5s1p contracted to 3s1p pattern {311/1}
 Group   4 Type Mg  : 14s8p3d contracted to 5s4p3d pattern {73211/5111/111}

Atom   0N    basis set group =>   1
Atom   1N    basis set group =>   1
Atom   2N    basis set group =>   1
Atom   3N    basis set group =>   1
Atom   4C    basis set group =>   2
Atom   5C    basis set group =>   2
Atom   6C    basis set group =>   2
Atom   7C    basis set group =>   2
Atom   8C    basis set group =>   2
Atom   9C    basis set group =>   2
Atom  10C    basis set group =>   2
Atom  11C    basis set group =>   2
Atom  12C    basis set group =>   2
Atom  13C    basis set group =>   2
Atom  14C    basis set group =>   2
Atom  15C    basis set group =>   2
Atom  16C    basis set group =>   2
Atom  17C    basis set group =>   2
Atom  18C    basis set group =>   2
Atom  19C    basis set group =>   2
Atom  20C    basis set group =>   2
Atom  21C    basis set group =>   2
Atom  22C    basis set group =>   2
Atom  23C    basis set group =>   2
Atom  24H    basis set group =>   3
Atom  25H    basis set group =>   3
Atom  26H    basis set group =>   3
Atom  27H    basis set group =>   3
Atom  28H    basis set group =>   3
Atom  29H    basis set group =>   3
Atom  30H    basis set group =>   3
Atom  31H    basis set group =>   3
Atom  32H    basis set group =>   3
Atom  33H    basis set group =>   3
Atom  34H    basis set group =>   3
Atom  35H    basis set group =>   3
Atom  36H    basis set group =>   3
Atom  37H    basis set group =>   3
Atom  38Mg   basis set group =>   4
Atom  39N    basis set group =>   1
Atom  40C    basis set group =>   2
Atom  41N    basis set group =>   1
Atom  42C    basis set group =>   2
Atom  43C    basis set group =>   2
Atom  44H    basis set group =>   3
Atom  45H    basis set group =>   3
Atom  46H    basis set group =>   3
Atom  47H    basis set group =>   3
---------------------------------
AUXILIARY/J BASIS SET INFORMATION
---------------------------------
There are 4 groups of distinct atoms

 Group   1 Type N   : 12s5p4d2f1g contracted to 6s4p3d1f1g pattern {711111/2111/211/2/1}
 Group   2 Type C   : 12s5p4d2f1g contracted to 6s4p3d1f1g pattern {711111/2111/211/2/1}
 Group   3 Type H   : 5s2p1d contracted to 3s1p1d pattern {311/2/1}
 Group   4 Type Mg  : 14s5p5d2f1g contracted to 8s4p4d1f1g pattern {71111111/2111/2111/2/1}

Atom   0N    basis set group =>   1
Atom   1N    basis set group =>   1
Atom   2N    basis set group =>   1
Atom   3N    basis set group =>   1
Atom   4C    basis set group =>   2
Atom   5C    basis set group =>   2
Atom   6C    basis set group =>   2
Atom   7C    basis set group =>   2
Atom   8C    basis set group =>   2
Atom   9C    basis set group =>   2
Atom  10C    basis set group =>   2
Atom  11C    basis set group =>   2
Atom  12C    basis set group =>   2
Atom  13C    basis set group =>   2
Atom  14C    basis set group =>   2
Atom  15C    basis set group =>   2
Atom  16C    basis set group =>   2
Atom  17C    basis set group =>   2
Atom  18C    basis set group =>   2
Atom  19C    basis set group =>   2
Atom  20C    basis set group =>   2
Atom  21C    basis set group =>   2
Atom  22C    basis set group =>   2
Atom  23C    basis set group =>   2
Atom  24H    basis set group =>   3
Atom  25H    basis set group =>   3
Atom  26H    basis set group =>   3
Atom  27H    basis set group =>   3
Atom  28H    basis set group =>   3
Atom  29H    basis set group =>   3
Atom  30H    basis set group =>   3
Atom  31H    basis set group =>   3
Atom  32H    basis set group =>   3
Atom  33H    basis set group =>   3
Atom  34H    basis set group =>   3
Atom  35H    basis set group =>   3
Atom  36H    basis set group =>   3
Atom  37H    basis set group =>   3
Atom  38Mg   basis set group =>   4
Atom  39N    basis set group =>   1
Atom  40C    basis set group =>   2
Atom  41N    basis set group =>   1
Atom  42C    basis set group =>   2
Atom  43C    basis set group =>   2
Atom  44H    basis set group =>   3
Atom  45H    basis set group =>   3
Atom  46H    basis set group =>   3
Atom  47H    basis set group =>   3


           ************************************************************
           *        Program running with 4 parallel MPI-processes     *
           *              working on a common directory               *
           ************************************************************
------------------------------------------------------------------------------
                             ORCA STARTUP CALCULATIONS
                           -- RI-GTO INTEGRALS CHOSEN --
------------------------------------------------------------------------------
------------------------------------------------------------------------------
                   ___                                                        
                  /   \      - P O W E R E D   B Y -                         
                 /     \                                                     
                 |  |  |   _    _      __       _____    __    __             
                 |  |  |  | |  | |    /  \     |  _  \  |  |  /  |          
                  \  \/   | |  | |   /    \    | | | |  |  | /  /          
                 / \  \   | |__| |  /  /\  \   | |_| |  |  |/  /          
                |  |  |   |  __  | /  /__\  \  |    /   |      \           
                |  |  |   | |  | | |   __   |  |    \   |  |\   \          
                \     /   | |  | | |  |  |  |  | |\  \  |  | \   \       
                 \___/    |_|  |_| |__|  |__|  |_| \__\ |__|  \__/        
                                                                              
                      - O R C A' S   B I G   F R I E N D -                    
                                      &                                       
                       - I N T E G R A L  F E E D E R -                       
                                                                              
 v1 FN, 2020, v2 2021, v3 2022-2024                                           
------------------------------------------------------------------------------


----------------------
SHARK INTEGRAL PACKAGE
----------------------

Number of atoms                             ...     48
Number of basis functions                   ...   1039
Number of shells                            ...    403
Maximum angular momentum                    ...      3
Integral batch strategy                     ... SHARK/LIBINT Hybrid
RI-J (if used) integral strategy            ... SPLIT-RIJ (Revised 2003 algorithm where possible)
Printlevel                                  ...      1
Contraction scheme used                     ... SEGMENTED contraction
Prescreening option                         ... SCHWARTZ
   Thresh                                   ... 2.500e-11
   Tcut                                     ... 2.500e-12
   Tpresel                                  ... 2.500e-12 
Coulomb Range Separation                    ... NOT USED
Exchange Range Separation                   ... Long Range
   Mu parameter                             ... 3.300e-01
   Scaling (regular/separated)              ... 1.900e-01 4.600e-01
Robust (split-)RI terms used:
  metric    (central integrals)             ... YES
  density   (r.h.s.  integrals)             ... YES
  potential (l.h.s.  integrals)             ... YES
Multipole approximations                    ... NOT USED
Finite Nucleus Model                        ... NOT USED
CABS basis                                  ... NOT available
Auxiliary Coulomb fitting basis             ... AVAILABLE
   # of basis functions in Aux-J            ...   1675
   # of shells in Aux-J                     ...    543
   Maximum angular momentum in Aux-J        ...      4
Auxiliary J/K fitting basis                 ... NOT available
Auxiliary Correlation fitting basis         ... NOT available
Auxiliary 'external' fitting basis          ... NOT available

Checking pre-screening integrals            ... done (  0.0 sec) Dimension = 403
   => SHARK Basis and OBASIS are compatible. Storing Pre-screening
Shell pair information
Shell pair cut-off parameter TPreSel        ...   2.5e-12
Total number of shell pairs                 ...     81406
Shell pairs after pre-screening             ...     56511
Total number of primitive shell pairs       ...    255268
Primitive shell pairs kept                  ...    113104
          la=0 lb=0:  13747 shell pairs
          la=1 lb=0:  16197 shell pairs
          la=1 lb=1:   4776 shell pairs
          la=2 lb=0:   8278 shell pairs
          la=2 lb=1:   5060 shell pairs
          la=2 lb=2:   1377 shell pairs
          la=3 lb=0:   3500 shell pairs
          la=3 lb=1:   2211 shell pairs
          la=3 lb=2:   1136 shell pairs
          la=3 lb=3:    229 shell pairs

Checking whether 4 symmetric matrices of dimension 1039 fit in memory
:Max Core in MB      =   3000.00
 MB in use           =     71.41
 MB left             =   2928.59
 MB needed           =     16.49
 Data fit in memory  = YES
Calculating RI/J V-Matrix + Cholesky decomp.... done (  0.3 sec)
Calculating Nuclear repulsion               ... done (  0.0 sec) ENN=   3002.845142179156 Eh

Diagonalization of the overlap matrix:
Smallest eigenvalue                        ... 1.011e-05
Time for diagonalization                   ...    0.325 sec
Threshold for overlap eigenvalues          ... 1.000e-07
Number of eigenvalues below threshold      ... 0
Time for construction of square roots      ...    0.300 sec
Total time needed                          ...    0.650 sec

-------------------
DFT GRID GENERATION
-------------------

General Integration Accuracy     IntAcc      ... 4.959
Radial Grid Type                 RadialGrid  ... OptM3 with GC (2021)
Angular Grid (max. ang.)         AngularGrid ... 6 (Lebedev-590)
Angular grid pruning method      GridPruning ... 4 (adaptive)
Weight generation scheme         WeightScheme... mBecke (2022)
Basis function cutoff            BFCut       ... 1.0000e-11
Integration weight cutoff        WCut        ... 1.0000e-14
Partially contracted basis set               ... off
Rotationally invariant grid construction     ... off
Angular grids for H and He will be reduced by one unit

Total number of grid points                  ...   575843
Total number of batches                      ...     9021
Average number of points per batch           ...       63
Average number of grid points per atom       ...    11997

--------------------
COSX GRID GENERATION
--------------------

GRIDX 1
-------
General Integration Accuracy     IntAcc      ... 4.020
Radial Grid Type                 RadialGrid  ... OptM3 with GC (2021)
Angular Grid (max. ang.)         AngularGrid ... 2 (Lebedev-110)
Angular grid pruning method      GridPruning ... 4 (adaptive)
Weight generation scheme         WeightScheme... mBecke (2022)
Basis function cutoff            BFCut       ... 1.0000e-11
Integration weight cutoff        WCut        ... 1.0000e-14
Partially contracted basis set               ... on
Rotationally invariant grid construction     ... off
Angular grids for H and He will be reduced by one unit

Total number of grid points                  ...    65260
Total number of batches                      ...      533
Average number of points per batch           ...      122
Average number of grid points per atom       ...     1360
UseSFitting                                  ... on

GRIDX 2
-------
General Integration Accuracy     IntAcc      ... 4.338
Radial Grid Type                 RadialGrid  ... OptM3 with GC (2021)
Angular Grid (max. ang.)         AngularGrid ... 3 (Lebedev-194)
Angular grid pruning method      GridPruning ... 4 (adaptive)
Weight generation scheme         WeightScheme... mBecke (2022)
Basis function cutoff            BFCut       ... 1.0000e-11
Integration weight cutoff        WCut        ... 1.0000e-14
Partially contracted basis set               ... on
Rotationally invariant grid construction     ... off
Angular grids for H and He will be reduced by one unit

Total number of grid points                  ...   143029
Total number of batches                      ...     1139
Average number of points per batch           ...      125
Average number of grid points per atom       ...     2980
UseSFitting                                  ... on

GRIDX 3
-------
General Integration Accuracy     IntAcc      ... 4.871
Radial Grid Type                 RadialGrid  ... OptM3 with GC (2021)
Angular Grid (max. ang.)         AngularGrid ... 4 (Lebedev-302)
Angular grid pruning method      GridPruning ... 4 (adaptive)
Weight generation scheme         WeightScheme... mBecke (2022)
Basis function cutoff            BFCut       ... 1.0000e-11
Integration weight cutoff        WCut        ... 1.0000e-14
Partially contracted basis set               ... on
Rotationally invariant grid construction     ... off
Angular grids for H and He will be reduced by one unit

Total number of grid points                  ...   263544
Total number of batches                      ...     2084
Average number of points per batch           ...      126
Average number of grid points per atom       ...     5490
UseSFitting                                  ... on
Grids setup in  40.4 sec
Initializing property integral containers    ... done (  0.0 sec)

SHARK setup successfully completed in  43.0 seconds

Maximum memory used throughout the entire STARTUP-calculation: 201.6 MB


           ************************************************************
           *        Program running with 4 parallel MPI-processes     *
           *              working on a common directory               *
           ************************************************************
-------------------------------------------------------------------------------
                                 ORCA GUESS
                   Start orbitals & Density for SCF / CASSCF
-------------------------------------------------------------------------------

------------
SCF SETTINGS
------------
Hamiltonian:
 Density Functional     Method          .... DFT(GTOs)
 Exchange Functional    Exchange        .... WB88
 Correlation Functional Correlation     .... LYP
 LDA part of GGA corr.  LDAOpt          .... VWN-5
 Gradients option       PostSCFGGA      .... off
 Hybrid DFT is turned on
   Fraction HF Exchange ScalHFX         ....  0.190000
   Scaling of DF-GGA-X  ScalDFX         ....  0.350000
   Scaling of DF-GGA-C  ScalDFC         ....  0.810000
   Scaling of DF-LDA-C  ScalLDAC        ....  1.000000
   Perturbative correction              ....  0.000000
 Long-range corrected/Screened/Range-Separated Hybrid DFT is turned on
   Amount of maximum screened exact exchange              ....  0.460000
   Range separation parameter mu (erf(mu*r12)/r12)        ....  0.330000
 RI-approximation to the Coulomb term is turned on
   Number of AuxJ basis functions       .... 1675
   RIJ-COSX (HFX calculated with COS-X)).... on


General Settings:
 Integral files         IntName         .... tddft
 Hartree-Fock type      HFTyp           .... RHF
 Total Charge           Charge          ....    0
 Multiplicity           Mult            ....    1
 Number of Electrons    NEL             ....  210
 Basis Dimension        Dim             .... 1039
 Nuclear Repulsion      ENuc            ....   3002.8451421792 Eh

Convergence Acceleration:
 AO-DIIS                CNVDIIS         .... on
   Start iteration      DIISMaxIt       ....    12
   Startup error        DIISStart       ....  0.200000
   # of expansion vecs  DIISMaxEq       ....     5
   Bias factor          DIISBfac        ....   1.050
   Max. coefficient     DIISMaxC        ....  10.000
 MO-DIIS                CNVKDIIS        .... off
 Trust-Rad. Augm. Hess. CNVTRAH         .... auto
   Auto Start mean grad. ratio tolernc. ....  1.125000
   Auto Start start iteration           ....    50
   Auto Start num. interpolation iter.  ....    10
   Max. Number of Micro iterations      ....    24
   Max. Number of Macro iterations      .... Maxiter - #DIIS iter
   Number of Davidson start vectors     ....     2
   Converg. threshold    (grad. norm)   ....   1.000e-05
   Grad. Scal. Fac. for Micro threshold ....   0.100
   Minimum threshold for Micro iter.    ....   1.000e-02
   NR start threshold (gradient norm)   ....   1.000e-04
   Initial trust radius                 ....   0.400
   Minimum AH scaling param. (alpha)    ....   1.000
   Maximum AH scaling param. (alpha)    .... 1000.000
   Quad. conv. algorithm                .... NR
   White noise on init. David. guess    .... on
   Maximum white noise                  ....   0.010
   Pseudo random numbers                .... off
   Inactive MOs                         .... canonical
   Orbital update algorithm             .... Taylor
   Preconditioner                       .... Diag
   Full preconditioner red. dimension   ....   250
 SOSCF                 CNVSOSCF           .... on
   Start iteration     SOSCFMaxIt         ....   150
   Startup grad/error  SOSCFStart         ....  0.003300
   Hessian update      SOSCFHessUp        .... L-BFGS
   Autom. constraints  SOSCFAutoConstrain .... off
 Level Shifting         CNVShift        .... on
   Level shift para.    LevelShift      ....    0.2500
   Turn off err/grad.   ShiftErr        ....    0.0010
 Zerner damping         CNVZerner       .... off
 Static damping         CNVDamp         .... on
   Fraction old density DampFac         ....    0.7000
   Max. Damping (<1)    DampMax         ....    0.9800
   Min. Damping (>=0)   DampMin         ....    0.0000
   Turn off err/grad.   DampErr         ....    0.1000

SCF Procedure:
 Maximum # iterations   MaxIter         ....   125
 SCF integral mode      SCFMode         .... Direct
   Integral package                     .... SHARK and LIBINT hybrid scheme
 Reset frequency        DirectResetFreq ....    20
 Integral Threshold     Thresh          ....  2.500e-11 Eh
 Primitive CutOff       TCut            ....  2.500e-12 Eh

Convergence Tolerance:
 Convergence Check Mode ConvCheckMode   .... Total+1el-Energy
 Convergence forced     ConvForced      .... 1
 Energy Change          TolE            ....  1.000e-08 Eh
 1-El. energy change                    ....  1.000e-05 Eh
 Orbital Gradient       TolG            ....  1.000e-05
 Orbital Rotation angle TolX            ....  1.000e-05
 DIIS Error             TolErr          ....  5.000e-07

------------------------------
INITIAL GUESS: MODEL POTENTIAL
------------------------------
Loading Hartree-Fock densities                     ... done
Calculating cut-offs                               ... done
Initializing the effective Hamiltonian             ... done
Setting up the integral package (SHARK)            ... done
Starting the Coulomb interaction                   ... done (   4.7 sec)
Making the grid                                    ... done (   1.7 sec)
Mapping shells                                     ... done
Starting the XC term evaluation                    ... done (   2.8 sec)
  promolecular density results
     # of electrons  =    209.992473701
     EX              =   -178.372332091
     EC              =     -7.137356798
     EX+EC           =   -185.509688890
Transforming the Hamiltonian                       ... done (   0.3 sec)
Diagonalizing the Hamiltonian                      ... done (   0.4 sec)
Back transforming the eigenvectors                 ... done (   0.2 sec)
Now organizing SCF variables                       ... done
                      ------------------
                      INITIAL GUESS DONE (  10.3 sec)
                      ------------------
             **** ENERGY FILE WAS UPDATED (tddft.en.tmp) ****
Finished Guess after  11.3 sec
Maximum memory used throughout the entire GUESS-calculation: 121.3 MB


           ************************************************************
           *        Program running with 4 parallel MPI-processes     *
           *              working on a common directory               *
           ************************************************************

-------------------------------------------------------------------------------------------
                                      ORCA LEAN-SCF
                              memory conserving SCF solver
-------------------------------------------------------------------------------------------

--------------------
CPCM SOLVATION MODEL
--------------------
CPCM parameters:
  Epsilon                                         ...       8.9990
  Refrac                                          ...       1.4242
  Rsolv                                           ...       1.3000
  Surface type                                    ... GAUSSIAN VDW
  Discretization scheme                           ... Constant charge density
    Threshold for H atoms                         ...       5.0000 (charges/Ang^2)
    Threshold for non-H atoms                     ...       5.0000 (charges/Ang^2)
  Epsilon function type                           ...         CPCM
Solvent:                                          ... DICHLOROMETHANE
Radii:
  Scheme                                          ... Element-dependent radii
  Radius for N  used is    3.5149 Bohr (=   1.8600 Ang.)
  Radius for C  used is    3.8550 Bohr (=   2.0400 Ang.)
  Radius for H  used is    2.4944 Bohr (=   1.3200 Ang.)
  Radius for Mg used is    3.9231 Bohr (=   2.0760 Ang.)
Calculating surface                               ...        done! (  0.0s)
Cavity surface points                             ...         4266
Cavity Volume                                     ...    3053.5298
Cavity Surface-area                               ...    1451.2358
Calculating surface distance matrix               ...        done! (  3.2s)
Performing Cholesky decomposition & store         ...        done! (  4.2s)
Overall time for CPCM initialization              ...                 7.3s

----------------------------------------D-I-I-S--------------------------------------------
Iteration    Energy (Eh)           Delta-E    RMSDP     MaxDP     DIISErr   Damp  Time(sec)
-------------------------------------------------------------------------------------------
               ***  Starting incremental Fock matrix formation  ***
    1    -1415.2335663006911091     0.00e+00  2.01e-03  5.86e-02  2.15e-01  0.700 364.4
    2    -1415.4919132989075479    -2.58e-01  1.55e-03  4.58e-02  1.11e-01  0.700 169.6
                               ***Turning on AO-DIIS***
    3    -1415.6188633116858000    -1.27e-01  9.26e-04  3.58e-02  4.58e-02  0.700 143.3
    4    -1415.6941766889308383    -7.53e-02  1.98e-03  8.17e-02  2.98e-02  0.000 148.4
    5    -1415.8553067336938511    -1.61e-01  1.89e-04  4.46e-03  5.64e-03  0.000 139.2
                              *** Initializing SOSCF ***
---------------------------------------S-O-S-C-F--------------------------------------
Iteration    Energy (Eh)           Delta-E    RMSDP     MaxDP     MaxGrad    Time(sec)
--------------------------------------------------------------------------------------
    6    -1415.8558542953446704    -5.48e-04  8.43e-05  2.28e-03  2.18e-03   134.3
               *** Restarting incremental Fock matrix formation ***
    7    -1415.8559516748923670    -9.74e-05  6.82e-05  1.23e-03  1.41e-03   339.1
    8    -1415.8560202411204045    -6.86e-05  8.63e-05  1.98e-03  6.47e-04   237.0
    9    -1415.8560453269815298    -2.51e-05  3.70e-05  6.66e-04  4.36e-04   225.1
   10    -1415.8560574644266126    -1.21e-05  1.04e-05  2.50e-04  1.32e-04   177.0
   11    -1415.8560584145357097    -9.50e-07  3.92e-06  8.66e-05  3.89e-05   160.1
   12    -1415.8560587313299948    -3.17e-07  5.10e-06  1.61e-04  2.50e-05   137.1
   13    -1415.8560587777215005    -4.64e-08  3.19e-06  1.14e-04  6.92e-06   126.4
   14    -1415.8560587920251237    -1.43e-08  3.30e-06  1.21e-04  3.99e-06   103.2
   15    -1415.8560587737842980     1.82e-08  4.22e-06  1.56e-04  7.97e-07   102.3
                  *** Gradient check signals convergence ***

               *****************************************************
               *                     SUCCESS                       *
               *           SCF CONVERGED AFTER  15 CYCLES          *
               *****************************************************

Recomputing exchange energy using gridx3       ... done (  431.816 sec)
Old exchange energy                            :    -50.952599228 Eh
New exchange energy                            :    -50.952603611 Eh
Exchange energy change after final integration :     -0.000004383 Eh
Total energy after final integration           :  -1415.856063110 Eh
             **** ENERGY FILE WAS UPDATED (tddft.en.tmp) ****

----------------
TOTAL SCF ENERGY
----------------

Total Energy       :      -1415.85606310972548 Eh          -38527.40217 eV

Components:
Nuclear Repulsion  :       3002.84514217915557 Eh           81711.57045 eV
Electronic Energy  :      -4418.67448284284546 Eh         -120238.24547 eV
One Electron Energy:      -7907.45959588986625 Eh         -215172.91478 eV
Two Electron Energy:       3488.78511304702124 Eh           94934.66931 eV
CPCM Dielectric    :         -0.02671806296222 Eh              -0.72704 eV

Virial components:
Potential Energy   :      -2825.53944871332806 Eh          -76886.83725 eV
Kinetic Energy     :       1409.68338560360257 Eh           38359.43508 eV
Virial Ratio       :          2.00437876871442

DFT components:
N(Alpha)           :      105.000000809059 electrons
N(Beta)            :      105.000000809059 electrons
N(Total)           :      210.000001618118 electrons
E(XC)              :     -138.478673088023 Eh       

CPCM Solvation Model Properties:
Surface-charge          :         -0.04119770931089
Corrected charge        :         -0.00000000000000
Outlying charge corr.   :          0.00007604423174 Eh               0.00207 eV
Free-energy (cav+disp)  :  This term is not implemented in the current solvation scheme

---------------
SCF CONVERGENCE
---------------

  Last Energy change         ...   -1.8241e-08  Tolerance :   1.0000e-08
  Last MAX-Density change    ...    1.5638e-04  Tolerance :   1.0000e-07
  Last RMS-Density change    ...    4.2163e-06  Tolerance :   5.0000e-09
  Last DIIS Error            ...    2.1771e-03  Tolerance :   5.0000e-07
  Last Orbital Gradient      ...    7.9659e-07  Tolerance :   1.0000e-05
  Last Orbital Rotation      ...    3.4397e-06  Tolerance :   1.0000e-05


----------------
ORBITAL ENERGIES
----------------

  NO   OCC          E(Eh)            E(eV) 
   0   2.0000     -46.806226     -1273.6622 
   1   2.0000     -14.453876      -393.3100 
   2   2.0000     -14.394966      -391.7069 
   3   2.0000     -14.383033      -391.3822 
   4   2.0000     -14.365596      -390.9078 
   5   2.0000     -14.363425      -390.8487 
   6   2.0000     -14.363273      -390.8445 
   7   2.0000     -10.314428      -280.6698 
   8   2.0000     -10.286507      -279.9101 
   9   2.0000     -10.286440      -279.9083 
  10   2.0000     -10.282036      -279.7884 
  11   2.0000     -10.278589      -279.6946 
  12   2.0000     -10.278544      -279.6934 
  13   2.0000     -10.269264      -279.4409 
  14   2.0000     -10.269212      -279.4395 
  15   2.0000     -10.269188      -279.4388 
  16   2.0000     -10.266996      -279.3792 
  17   2.0000     -10.266873      -279.3758 
  18   2.0000     -10.253559      -279.0135 
  19   2.0000     -10.252930      -278.9964 
  20   2.0000     -10.244311      -278.7619 
  21   2.0000     -10.244109      -278.7564 
  22   2.0000     -10.243890      -278.7504 
  23   2.0000     -10.243515      -278.7402 
  24   2.0000     -10.238187      -278.5952 
  25   2.0000     -10.237904      -278.5875 
  26   2.0000     -10.235509      -278.5224 
  27   2.0000     -10.234781      -278.5026 
  28   2.0000     -10.231834      -278.4224 
  29   2.0000     -10.231578      -278.4154 
  30   2.0000      -3.094612       -84.2087 
  31   2.0000      -1.839837       -50.0645 
  32   2.0000      -1.837734       -50.0073 
  33   2.0000      -1.837478       -50.0003 
  34   2.0000      -1.117086       -30.3974 
  35   2.0000      -1.040652       -28.3176 
  36   2.0000      -1.031808       -28.0769 
  37   2.0000      -1.031192       -28.0601 
  38   2.0000      -1.021637       -27.8002 
  39   2.0000      -0.969370       -26.3779 
  40   2.0000      -0.891375       -24.2556 
  41   2.0000      -0.865678       -23.5563 
  42   2.0000      -0.862588       -23.4722 
  43   2.0000      -0.848238       -23.0817 
  44   2.0000      -0.841345       -22.8942 
  45   2.0000      -0.840389       -22.8681 
  46   2.0000      -0.838439       -22.8151 
  47   2.0000      -0.833384       -22.6775 
  48   2.0000      -0.810499       -22.0548 
  49   2.0000      -0.791042       -21.5253 
  50   2.0000      -0.729576       -19.8528 
  51   2.0000      -0.724586       -19.7170 
  52   2.0000      -0.702577       -19.1181 
  53   2.0000      -0.681368       -18.5410 
  54   2.0000      -0.679225       -18.4827 
  55   2.0000      -0.649656       -17.6780 
  56   2.0000      -0.648722       -17.6526 
  57   2.0000      -0.641593       -17.4586 
  58   2.0000      -0.638165       -17.3654 
  59   2.0000      -0.635855       -17.3025 
  60   2.0000      -0.618935       -16.8421 
  61   2.0000      -0.602342       -16.3905 
  62   2.0000      -0.588048       -16.0016 
  63   2.0000      -0.580313       -15.7911 
  64   2.0000      -0.567647       -15.4465 
  65   2.0000      -0.564322       -15.3560 
  66   2.0000      -0.555245       -15.1090 
  67   2.0000      -0.543219       -14.7818 
  68   2.0000      -0.525722       -14.3056 
  69   2.0000      -0.524882       -14.2828 
  70   2.0000      -0.515092       -14.0164 
  71   2.0000      -0.503991       -13.7143 
  72   2.0000      -0.499219       -13.5844 
  73   2.0000      -0.496301       -13.5050 
  74   2.0000      -0.490882       -13.3576 
  75   2.0000      -0.483623       -13.1600 
  76   2.0000      -0.479385       -13.0447 
  77   2.0000      -0.479358       -13.0440 
  78   2.0000      -0.469032       -12.7630 
  79   2.0000      -0.468751       -12.7554 
  80   2.0000      -0.466443       -12.6926 
  81   2.0000      -0.447729       -12.1833 
  82   2.0000      -0.445241       -12.1156 
  83   2.0000      -0.439221       -11.9518 
  84   2.0000      -0.435847       -11.8600 
  85   2.0000      -0.432515       -11.7693 
  86   2.0000      -0.429675       -11.6921 
  87   2.0000      -0.426335       -11.6012 
  88   2.0000      -0.425848       -11.5879 
  89   2.0000      -0.419210       -11.4073 
  90   2.0000      -0.416326       -11.3288 
  91   2.0000      -0.386083       -10.5058 
  92   2.0000      -0.377878       -10.2826 
  93   2.0000      -0.374250       -10.1839 
  94   2.0000      -0.368589       -10.0298 
  95   2.0000      -0.360480        -9.8091 
  96   2.0000      -0.336437        -9.1549 
  97   2.0000      -0.332549        -9.0491 
  98   2.0000      -0.324005        -8.8166 
  99   2.0000      -0.310707        -8.4548 
 100   2.0000      -0.306721        -8.3463 
 101   2.0000      -0.301369        -8.2007 
 102   2.0000      -0.299030        -8.1370 
 103   2.0000      -0.232146        -6.3170 
 104   2.0000      -0.217672        -5.9232 
 105   0.0000      -0.057225        -1.5572 
 106   0.0000      -0.031679        -0.8620 
 107   0.0000       0.046800         1.2735 
 108   0.0000       0.048541         1.3209 
 109   0.0000       0.053914         1.4671 
 110   0.0000       0.077364         2.1052 
 111   0.0000       0.081253         2.2110 
 112   0.0000       0.085522         2.3272 
 113   0.0000       0.088133         2.3982 
 114   0.0000       0.096376         2.6225 
 115   0.0000       0.102476         2.7885 
*Only the first 10 virtual orbitals were printed.

                    ********************************
                    * MULLIKEN POPULATION ANALYSIS *
                    ********************************

-----------------------
MULLIKEN ATOMIC CHARGES
-----------------------
   0 N :   -0.309615
   1 N :   -0.386134
   2 N :   -0.370518
   3 N :   -0.324612
   4 C :   -0.195282
   5 C :   -0.195557
   6 C :    0.160908
   7 C :    0.160606
   8 C :   -0.355978
   9 C :   -0.357913
  10 C :    0.235161
  11 C :    0.234144
  12 C :    0.200433
  13 C :    0.199848
  14 C :   -0.242171
  15 C :   -0.242079
  16 C :   -0.229525
  17 C :   -0.231925
  18 C :   -0.283848
  19 C :   -0.279703
  20 C :    0.212399
  21 C :    0.208890
  22 C :   -0.250042
  23 C :   -0.249297
  24 H :    0.128246
  25 H :    0.136089
  26 H :    0.127820
  27 H :    0.137099
  28 H :    0.144810
  29 H :    0.144764
  30 H :    0.154087
  31 H :    0.154339
  32 H :    0.157106
  33 H :    0.157407
  34 H :    0.157233
  35 H :    0.157224
  36 H :    0.152112
  37 H :    0.152128
  38 Mg:    0.701063
  39 N :   -0.281593
  40 C :    0.006323
  41 N :   -0.209228
  42 C :   -0.107764
  43 C :   -0.157744
  44 H :    0.214618
  45 H :    0.196748
  46 H :    0.183728
  47 H :    0.285195
Sum of atomic charges:   -0.0000000

--------------------------------
MULLIKEN REDUCED ORBITAL CHARGES
--------------------------------
  0 N s       :     3.670836  s :     3.670836
      pz      :     1.287324  p :     3.579892
      px      :     1.182560
      py      :     1.110008
      dz2     :     0.003824  d :     0.055434
      dxz     :     0.009121
      dyz     :     0.010676
      dx2y2   :     0.016491
      dxy     :     0.015321
      f0      :     0.000642  f :     0.003454
      f+1     :     0.000283
      f-1     :     0.000309
      f+2     :     0.000457
      f-2     :     0.000123
      f+3     :     0.000955
      f-3     :     0.000684

  1 N s       :     3.696265  s :     3.696265
      pz      :     1.369088  p :     3.631656
      px      :     1.101689
      py      :     1.160879
      dz2     :     0.004112  d :     0.054703
      dxz     :     0.010326
      dyz     :     0.009235
      dx2y2   :     0.016085
      dxy     :     0.014946
      f0      :     0.000645  f :     0.003509
      f+1     :     0.000351
      f-1     :     0.000317
      f+2     :     0.000568
      f-2     :     0.000102
      f+3     :     0.000673
      f-3     :     0.000854

  2 N s       :     3.687219  s :     3.687219
      pz      :     1.365213  p :     3.625241
      px      :     1.093781
      py      :     1.166248
      dz2     :     0.004010  d :     0.054545
      dxz     :     0.010906
      dyz     :     0.008557
      dx2y2   :     0.015680
      dxy     :     0.015392
      f0      :     0.000644  f :     0.003513
      f+1     :     0.000335
      f-1     :     0.000337
      f+2     :     0.000552
      f-2     :     0.000117
      f+3     :     0.000625
      f-3     :     0.000902

  3 N s       :     3.677143  s :     3.677143
      pz      :     1.327229  p :     3.587516
      px      :     1.160311
      py      :     1.099977
      dz2     :     0.003996  d :     0.056395
      dxz     :     0.009512
      dyz     :     0.011637
      dx2y2   :     0.016039
      dxy     :     0.015211
      f0      :     0.000640  f :     0.003557
      f+1     :     0.000319
      f-1     :     0.000336
      f+2     :     0.000629
      f-2     :     0.000109
      f+3     :     0.000878
      f-3     :     0.000647

  4 C s       :     3.214848  s :     3.214848
      pz      :     1.060015  p :     2.901204
      px      :     0.873303
      py      :     0.967885
      dz2     :     0.003524  d :     0.073397
      dxz     :     0.016071
      dyz     :     0.015034
      dx2y2   :     0.022655
      dxy     :     0.016113
      f0      :     0.000685  f :     0.005834
      f+1     :     0.000157
      f-1     :     0.001184
      f+2     :     0.000342
      f-2     :     0.000742
      f+3     :     0.001315
      f-3     :     0.001409

  5 C s       :     3.216665  s :     3.216665
      pz      :     1.058739  p :     2.899575
      px      :     0.961682
      py      :     0.879153
      dz2     :     0.003011  d :     0.073481
      dxz     :     0.015316
      dyz     :     0.016464
      dx2y2   :     0.022595
      dxy     :     0.016096
      f0      :     0.000583  f :     0.005836
      f+1     :     0.001339
      f-1     :     0.000116
      f+2     :     0.000275
      f-2     :     0.000800
      f+3     :     0.001151
      f-3     :     0.001572

  6 C s       :     3.187981  s :     3.187981
      pz      :     0.856906  p :     2.477100
      px      :     0.891815
      py      :     0.728380
      dz2     :     0.003235  d :     0.159799
      dxz     :     0.027578
      dyz     :     0.040078
      dx2y2   :     0.041631
      dxy     :     0.047277
      f0      :     0.001938  f :     0.014211
      f+1     :     0.000682
      f-1     :     0.001080
      f+2     :     0.001745
      f-2     :     0.001179
      f+3     :     0.005110
      f-3     :     0.002476

  7 C s       :     3.186963  s :     3.186963
      pz      :     0.856602  p :     2.478196
      px      :     0.753936
      py      :     0.867657
      dz2     :     0.002570  d :     0.160014
      dxz     :     0.034458
      dyz     :     0.033597
      dx2y2   :     0.044639
      dxy     :     0.044749
      f0      :     0.001961  f :     0.014221
      f+1     :     0.001067
      f-1     :     0.000655
      f+2     :     0.001489
      f-2     :     0.001444
      f+3     :     0.003763
      f-3     :     0.003844

  8 C s       :     3.307611  s :     3.307611
      pz      :     1.122771  p :     2.979601
      px      :     0.860458
      py      :     0.996371
      dz2     :     0.003318  d :     0.061721
      dxz     :     0.022492
      dyz     :     0.003370
      dx2y2   :     0.024031
      dxy     :     0.008510
      f0      :     0.001440  f :     0.007045
      f+1     :     0.000559
      f-1     :     0.000605
      f+2     :     0.000407
      f-2     :     0.000747
      f+3     :     0.001922
      f-3     :     0.001364

  9 C s       :     3.310535  s :     3.310535
      pz      :     1.123603  p :     2.978930
      px      :     0.988269
      py      :     0.867058
      dz2     :     0.003214  d :     0.061406
      dxz     :     0.003361
      dyz     :     0.022509
      dx2y2   :     0.023855
      dxy     :     0.008467
      f0      :     0.001452  f :     0.007043
      f+1     :     0.000614
      f-1     :     0.000539
      f+2     :     0.000423
      f-2     :     0.000722
      f+3     :     0.001459
      f-3     :     0.001835

 10 C s       :     3.168000  s :     3.168000
      pz      :     0.872963  p :     2.422468
      px      :     0.812039
      py      :     0.737466
      dz2     :     0.003732  d :     0.159727
      dxz     :     0.034986
      dyz     :     0.036461
      dx2y2   :     0.041589
      dxy     :     0.042958
      f0      :     0.002106  f :     0.014645
      f+1     :     0.000755
      f-1     :     0.001049
      f+2     :     0.001873
      f-2     :     0.001206
      f+3     :     0.004163
      f-3     :     0.003494

 11 C s       :     3.167460  s :     3.167460
      pz      :     0.870112  p :     2.423336
      px      :     0.726094
      py      :     0.827130
      dz2     :     0.003715  d :     0.160380
      dxz     :     0.039881
      dyz     :     0.032025
      dx2y2   :     0.038416
      dxy     :     0.046343
      f0      :     0.002114  f :     0.014680
      f+1     :     0.001103
      f-1     :     0.000703
      f+2     :     0.002354
      f-2     :     0.000736
      f+3     :     0.002501
      f-3     :     0.005168

 12 C s       :     3.153264  s :     3.153264
      pz      :     0.952828  p :     2.481106
      px      :     0.708859
      py      :     0.819418
      dz2     :     0.004278  d :     0.150919
      dxz     :     0.037670
      dyz     :     0.027492
      dx2y2   :     0.037846
      dxy     :     0.043634
      f0      :     0.002106  f :     0.014277
      f+1     :     0.001091
      f-1     :     0.000698
      f+2     :     0.002258
      f-2     :     0.000565
      f+3     :     0.002465
      f-3     :     0.005095

 13 C s       :     3.152713  s :     3.152713
      pz      :     0.948673  p :     2.481679
      px      :     0.805030
      py      :     0.727976
      dz2     :     0.004361  d :     0.151449
      dxz     :     0.029761
      dyz     :     0.035694
      dx2y2   :     0.040408
      dxy     :     0.041226
      f0      :     0.002105  f :     0.014311
      f+1     :     0.000742
      f-1     :     0.001059
      f+2     :     0.001702
      f-2     :     0.001132
      f+3     :     0.004140
      f-3     :     0.003430

 14 C s       :     3.271359  s :     3.271359
      pz      :     1.029349  p :     2.889675
      px      :     0.895701
      py      :     0.964625
      dz2     :     0.004816  d :     0.073555
      dxz     :     0.019742
      dyz     :     0.007246
      dx2y2   :     0.026613
      dxy     :     0.015137
      f0      :     0.001448  f :     0.007582
      f+1     :     0.000401
      f-1     :     0.000763
      f+2     :     0.000064
      f-2     :     0.001214
      f+3     :     0.002224
      f-3     :     0.001468

 15 C s       :     3.272429  s :     3.272429
      pz      :     1.028293  p :     2.888492
      px      :     0.970356
      py      :     0.889843
      dz2     :     0.004814  d :     0.073578
      dxz     :     0.008956
      dyz     :     0.018055
      dx2y2   :     0.026998
      dxy     :     0.014755
      f0      :     0.001451  f :     0.007580
      f+1     :     0.000711
      f-1     :     0.000450
      f+2     :     0.000397
      f-2     :     0.000884
      f+3     :     0.002051
      f-3     :     0.001637

 16 C s       :     3.282145  s :     3.282145
      pz      :     0.982829  p :     2.862255
      px      :     0.980320
      py      :     0.899107
      dz2     :     0.004734  d :     0.077454
      dxz     :     0.009626
      dyz     :     0.022234
      dx2y2   :     0.026076
      dxy     :     0.014783
      f0      :     0.001431  f :     0.007671
      f+1     :     0.000702
      f-1     :     0.000431
      f+2     :     0.000518
      f-2     :     0.000903
      f+3     :     0.002058
      f-3     :     0.001627

 17 C s       :     3.283552  s :     3.283552
      pz      :     0.982117  p :     2.863239
      px      :     0.904841
      py      :     0.976281
      dz2     :     0.004747  d :     0.077464
      dxz     :     0.024588
      dyz     :     0.007276
      dx2y2   :     0.025947
      dxy     :     0.014906
      f0      :     0.001432  f :     0.007670
      f+1     :     0.000386
      f-1     :     0.000746
      f+2     :     0.000092
      f-2     :     0.001331
      f+3     :     0.002217
      f-3     :     0.001465

 18 C s       :     3.313780  s :     3.313780
      pz      :     0.980063  p :     2.887606
      px      :     1.017070
      py      :     0.890473
      dz2     :     0.003277  d :     0.075478
      dxz     :     0.003254
      dyz     :     0.032217
      dx2y2   :     0.026783
      dxy     :     0.009946
      f0      :     0.001371  f :     0.006984
      f+1     :     0.000557
      f-1     :     0.000488
      f+2     :     0.000425
      f-2     :     0.000819
      f+3     :     0.001407
      f-3     :     0.001919

 19 C s       :     3.309321  s :     3.309321
      pz      :     0.982022  p :     2.888230
      px      :     0.890250
      py      :     1.015958
      dz2     :     0.003275  d :     0.075171
      dxz     :     0.031908
      dyz     :     0.003386
      dx2y2   :     0.026150
      dxy     :     0.010452
      f0      :     0.001372  f :     0.006981
      f+1     :     0.000481
      f-1     :     0.000563
      f+2     :     0.000436
      f-2     :     0.000804
      f+3     :     0.001913
      f-3     :     0.001412

 20 C s       :     3.147053  s :     3.147053
      pz      :     0.950399  p :     2.474498
      px      :     0.729667
      py      :     0.794433
      dz2     :     0.004285  d :     0.151555
      dxz     :     0.035380
      dyz     :     0.028799
      dx2y2   :     0.041127
      dxy     :     0.041963
      f0      :     0.002129  f :     0.014496
      f+1     :     0.001060
      f-1     :     0.000771
      f+2     :     0.001695
      f-2     :     0.001173
      f+3     :     0.003498
      f-3     :     0.004170

 21 C s       :     3.149015  s :     3.149015
      pz      :     0.948037  p :     2.475810
      px      :     0.813914
      py      :     0.713858
      dz2     :     0.004226  d :     0.151778
      dxz     :     0.027870
      dyz     :     0.036406
      dx2y2   :     0.037383
      dxy     :     0.045892
      f0      :     0.002128  f :     0.014508
      f+1     :     0.000716
      f-1     :     0.001118
      f+2     :     0.002267
      f-2     :     0.000609
      f+3     :     0.005177
      f-3     :     0.002493

 22 C s       :     3.277791  s :     3.277791
      pz      :     1.021441  p :     2.888672
      px      :     0.966661
      py      :     0.900570
      dz2     :     0.004839  d :     0.075866
      dxz     :     0.006983
      dyz     :     0.023322
      dx2y2   :     0.025999
      dxy     :     0.014723
      f0      :     0.001453  f :     0.007712
      f+1     :     0.000770
      f-1     :     0.000399
      f+2     :     0.000065
      f-2     :     0.001365
      f+3     :     0.001452
      f-3     :     0.002208

 23 C s       :     3.277472  s :     3.277472
      pz      :     1.021925  p :     2.888308
      px      :     0.895726
      py      :     0.970656
      dz2     :     0.004810  d :     0.075807
      dxz     :     0.021241
      dyz     :     0.009008
      dx2y2   :     0.026115
      dxy     :     0.014633
      f0      :     0.001456  f :     0.007711
      f+1     :     0.000441
      f-1     :     0.000726
      f+2     :     0.000467
      f-2     :     0.000963
      f+3     :     0.001638
      f-3     :     0.002020

 24 H s       :     0.850307  s :     0.850307
      pz      :     0.011024  p :     0.021447
      px      :     0.004107
      py      :     0.006317

 25 H s       :     0.842614  s :     0.842614
      pz      :     0.008237  p :     0.021297
      px      :     0.004240
      py      :     0.008820

 26 H s       :     0.850753  s :     0.850753
      pz      :     0.010419  p :     0.021427
      px      :     0.007018
      py      :     0.003991

 27 H s       :     0.841593  s :     0.841593
      pz      :     0.008866  p :     0.021309
      px      :     0.008399
      py      :     0.004044

 28 H s       :     0.832756  s :     0.832756
      pz      :     0.005702  p :     0.022434
      px      :     0.003239
      py      :     0.013493

 29 H s       :     0.832797  s :     0.832797
      pz      :     0.005700  p :     0.022438
      px      :     0.013449
      py      :     0.003289

 30 H s       :     0.823931  s :     0.823931
      pz      :     0.004821  p :     0.021983
      px      :     0.003277
      py      :     0.013884

 31 H s       :     0.823688  s :     0.823688
      pz      :     0.004817  p :     0.021973
      px      :     0.013243
      py      :     0.003913

 32 H s       :     0.821051  s :     0.821051
      pz      :     0.004530  p :     0.021843
      px      :     0.013319
      py      :     0.003994

 33 H s       :     0.820756  s :     0.820756
      pz      :     0.004529  p :     0.021837
      px      :     0.003327
      py      :     0.013981

 34 H s       :     0.820768  s :     0.820768
      pz      :     0.004778  p :     0.021998
      px      :     0.013876
      py      :     0.003345

 35 H s       :     0.820769  s :     0.820769
      pz      :     0.004794  p :     0.022007
      px      :     0.003327
      py      :     0.013886

 36 H s       :     0.825965  s :     0.825965
      pz      :     0.004786  p :     0.021923
      px      :     0.013826
      py      :     0.003311

 37 H s       :     0.825947  s :     0.825947
      pz      :     0.004798  p :     0.021925
      px      :     0.003950
      py      :     0.013178

 38 Mgs       :     4.562942  s :     4.562942
      pz      :     2.170778  p :     6.507845
      px      :     2.168562
      py      :     2.168505
      dz2     :     0.037843  d :     0.228149
      dxz     :     0.022444
      dyz     :     0.021423
      dx2y2   :     0.017846
      dxy     :     0.128593

 39 N s       :     3.664266  s :     3.664266
      pz      :     1.291108  p :     3.554602
      px      :     1.159102
      py      :     1.104392
      dz2     :     0.011989  d :     0.058897
      dxz     :     0.011120
      dyz     :     0.012686
      dx2y2   :     0.016280
      dxy     :     0.006821
      f0      :     0.000283  f :     0.003828
      f+1     :     0.000457
      f-1     :     0.000616
      f+2     :     0.000851
      f-2     :     0.000583
      f+3     :     0.000442
      f-3     :     0.000595

 40 C s       :     3.184206  s :     3.184206
      pz      :     0.762633  p :     2.659559
      px      :     0.947775
      py      :     0.949151
      dz2     :     0.041163  d :     0.134029
      dxz     :     0.033496
      dyz     :     0.031640
      dx2y2   :     0.016058
      dxy     :     0.011671
      f0      :     0.002349  f :     0.015884
      f+1     :     0.003089
      f-1     :     0.003565
      f+2     :     0.001771
      f-2     :     0.001815
      f+3     :     0.001561
      f-3     :     0.001734

 41 N s       :     3.455079  s :     3.455079
      pz      :     1.097725  p :     3.686209
      px      :     1.332790
      py      :     1.255693
      dz2     :     0.010997  d :     0.063151
      dxz     :     0.014164
      dyz     :     0.016600
      dx2y2   :     0.014373
      dxy     :     0.007016
      f0      :     0.000844  f :     0.004790
      f+1     :     0.000873
      f-1     :     0.000891
      f+2     :     0.000059
      f-2     :     0.000722
      f+3     :     0.000632
      f-3     :     0.000767

 42 C s       :     3.199136  s :     3.199136
      pz      :     1.006338  p :     2.810144
      px      :     0.932563
      py      :     0.871243
      dz2     :     0.019767  d :     0.087337
      dxz     :     0.015349
      dyz     :     0.016630
      dx2y2   :     0.024326
      dxy     :     0.011264
      f0      :     0.001971  f :     0.011147
      f+1     :     0.001864
      f-1     :     0.001857
      f+2     :     0.000268
      f-2     :     0.001312
      f+3     :     0.001660
      f-3     :     0.002216

 43 C s       :     3.207364  s :     3.207364
      pz      :     0.876393  p :     2.834003
      px      :     0.988807
      py      :     0.968804
      dz2     :     0.027425  d :     0.104668
      dxz     :     0.025921
      dyz     :     0.025997
      dx2y2   :     0.012649
      dxy     :     0.012675
      f0      :     0.001408  f :     0.011709
      f+1     :     0.001843
      f-1     :     0.002120
      f+2     :     0.001714
      f-2     :     0.002018
      f+3     :     0.001327
      f-3     :     0.001279

 44 H s       :     0.763753  s :     0.763753
      pz      :     0.003965  p :     0.021629
      px      :     0.007938
      py      :     0.009726

 45 H s       :     0.781336  s :     0.781336
      pz      :     0.011770  p :     0.021916
      px      :     0.005060
      py      :     0.005086

 46 H s       :     0.794247  s :     0.794247
      pz      :     0.004216  p :     0.022024
      px      :     0.007992
      py      :     0.009817

 47 H s       :     0.677166  s :     0.677166
      pz      :     0.015346  p :     0.037638
      px      :     0.010854
      py      :     0.011439



                     *******************************
                     * LOEWDIN POPULATION ANALYSIS *
                     *******************************

----------------------
LOEWDIN ATOMIC CHARGES
[...]
  0-1A  ->  1-1A    2.171074   17510.9   571.1   0.200551618   0.02400  -0.09483   0.12250   0.00161
  0-1A  ->  2-1A    2.520349   20328.0   491.9   0.015296112   0.00213   0.03560   0.02928  -0.00063
  0-1A  ->  3-1A    3.336800   26913.1   371.6   1.293552020   0.23793   0.38427   0.30038  -0.00632
  0-1A  ->  4-1A    3.520182   28392.2   352.2   1.009059070   0.19580  -0.27181   0.34911   0.00704
  0-1A  ->  5-1A    4.056951   32721.5   305.6   0.002551930   0.00057   0.01238  -0.02041   0.00082
  0-1A  ->  6-1A    4.157853   33535.3   298.2   0.043252331   0.00991  -0.07848  -0.06126   0.00146
  0-1A  ->  7-1A    4.530764   36543.1   273.6   0.162614696   0.04061  -0.16119  -0.12055  -0.00985
  0-1A  ->  8-1A    4.731711   38163.8   262.0   0.084861206   0.02213   0.08684  -0.12078  -0.00253
  0-1A  ->  9-1A    4.758969   38383.7   260.5   0.001748243   0.00046   0.00596  -0.02034  -0.00308
  0-1A  -> 10-1A    4.925157   39724.1   251.7   0.012529363   0.00340   0.04506  -0.03438  -0.01377
  0-1A  -> 11-1A    4.993211   40273.0   248.3   0.075927282   0.02090  -0.08311   0.11828   0.00087
  0-1A  -> 12-1A    5.033889   40601.1   246.3   0.020178875   0.00560   0.06747  -0.03142  -0.00778
  0-1A  -> 13-1A    5.070862   40899.3   244.5   0.016674369   0.00466  -0.03116  -0.05988   0.01019
  0-1A  -> 14-1A    5.241925   42279.0   236.5   0.004803523   0.00139   0.03524   0.01191  -0.00199
  0-1A  -> 15-1A    5.253596   42373.1   236.0   0.019158186   0.00555  -0.05859  -0.04590   0.00292
  0-1A  -> 16-1A    5.273409   42532.9   235.1   0.013868180   0.00403   0.02705  -0.05157   0.02530
  0-1A  -> 17-1A    5.319324   42903.2   233.1   0.115793723   0.03395  -0.11655   0.14220   0.01220
  0-1A  -> 18-1A    5.368250   43297.9   231.0   0.020373612   0.00603  -0.06357  -0.04400  -0.00716
  0-1A  -> 19-1A    5.446095   43925.7   227.7   0.002935963   0.00088  -0.01987   0.01878  -0.01158
  0-1A  -> 20-1A    5.495094   44320.9   225.6   0.135570747   0.04107  -0.12300   0.16102   0.00300
  0-1A  -> 21-1A    5.606437   45219.0   221.1   0.004523504   0.00140  -0.01515   0.00401   0.03395
  0-1A  -> 22-1A    5.633267   45435.4   220.1   0.000590167   0.00018  -0.01113   0.00484  -0.00598
  0-1A  -> 23-1A    5.717195   46112.3   216.9   0.005691187   0.00179   0.00708   0.04158  -0.00379
  0-1A  -> 24-1A    5.788419   46686.8   214.2   0.003647875   0.00116   0.02444  -0.02380  -0.00016
  0-1A  -> 25-1A    5.847466   47163.0   212.0   0.000541195   0.00017  -0.00531   0.00949  -0.00750
  0-1A  -> 26-1A    5.875963   47392.8   211.0   0.028834738   0.00934   0.06112  -0.07392  -0.01181
  0-1A  -> 27-1A    6.031660   48648.6   205.6   0.006556162   0.00218  -0.02945  -0.02864   0.02218
  0-1A  -> 28-1A    6.074648   48995.3   204.1   0.002050220   0.00069   0.02493  -0.00806  -0.00048
  0-1A  -> 29-1A    6.110198   49282.1   202.9   0.005731870   0.00193   0.02430  -0.03660   0.00089
  0-1A  -> 30-1A    6.147716   49584.7   201.7   0.002548914   0.00086  -0.01982   0.02162  -0.00184

------------------------------------------------------------------------------------------
                     CD SPECTRUM VIA TRANSITION ELECTRIC DIPOLE MOMENTS    
------------------------------------------------------------------------------------------
     Transition      Energy     Energy  Wavelength    R        MX        MY        MZ   
                      (eV)      (cm-1)    (nm)   (1e40*cgs)   (au)      (au)      (au)  
------------------------------------------------------------------------------------------
  0-1A  ->  1-1A    2.171074   17510.9   571.1    1.44132   0.06719   0.06760  -0.98956
  0-1A  ->  2-1A    2.520349   20328.0   491.9   -0.70741   0.02245  -0.03189   0.00509
  0-1A  ->  3-1A    3.336800   26913.1   371.6  -20.02590   0.18618  -0.25531   0.00523
  0-1A  ->  4-1A    3.520182   28392.2   352.2    3.45072   0.27854   0.21822   0.06659
  0-1A  ->  5-1A    4.056951   32721.5   305.6   -3.03571  -0.02006   0.00801  -0.69590
  0-1A  ->  6-1A    4.157853   33535.3   298.2   -1.16672  -0.06091   0.08460   0.01829
  0-1A  ->  7-1A    4.530764   36543.1   273.6   -4.47684  -0.06665   0.10434  -0.02528
  0-1A  ->  8-1A    4.731711   38163.8   262.0   -3.25492  -0.10978  -0.07896   0.47892
  0-1A  ->  9-1A    4.758969   38383.7   260.5   14.84712   0.15679  -0.22240  -0.01981
  0-1A  -> 10-1A    4.925157   39724.1   251.7    9.32682  -0.01372  -0.01899  -0.26012
  0-1A  -> 11-1A    4.993211   40273.0   248.3   -3.37080   0.11427   0.06527   0.65813
  0-1A  -> 12-1A    5.033889   40601.1   246.3    9.49081   0.00399  -0.02020  -0.35031
  0-1A  -> 13-1A    5.070862   40899.3   244.5   -9.15390  -0.01816   0.03953  -0.17518
  0-1A  -> 14-1A    5.241925   42279.0   236.5   15.03219   0.15047   0.08772   0.11352
  0-1A  -> 15-1A    5.253596   42373.1   236.0  -16.45953   0.03775   0.10259   0.06116
  0-1A  -> 16-1A    5.273409   42532.9   235.1    2.59375  -0.00047  -0.06998  -0.10643
  0-1A  -> 17-1A    5.319324   42903.2   233.1   -2.14545   0.14984   0.08701   0.36267
  0-1A  -> 18-1A    5.368250   43297.9   231.0    1.36162  -0.03370   0.03349   0.01353
  0-1A  -> 19-1A    5.446095   43925.7   227.7   -0.57041  -0.02711  -0.07295  -0.04955
  0-1A  -> 20-1A    5.495094   44320.9   225.6    3.64979   0.10005   0.09158  -0.28176
  0-1A  -> 21-1A    5.606437   45219.0   221.1   -0.91707  -0.01912   0.04034  -0.02672
  0-1A  -> 22-1A    5.633267   45435.4   220.1    0.11992   0.01029  -0.00558  -0.03525
  0-1A  -> 23-1A    5.717195   46112.3   216.9    4.20692  -0.05193   0.05838   0.04889
  0-1A  -> 24-1A    5.788419   46686.8   214.2   -1.10296  -0.09071  -0.07277   0.01228
  0-1A  -> 25-1A    5.847466   47163.0   212.0   -0.29616  -0.02068  -0.00266   0.03205
  0-1A  -> 26-1A    5.875963   47392.8   211.0    1.51376  -0.10165  -0.04291  -0.31589
  0-1A  -> 27-1A    6.031660   48648.6   205.6   -0.96878   0.03112  -0.00658   0.01052
  0-1A  -> 28-1A    6.074648   48995.3   204.1    0.79432   0.04166   0.06984   0.11988
  0-1A  -> 29-1A    6.110198   49282.1   202.9   -1.92740  -0.05444  -0.01573  -0.16649
  0-1A  -> 30-1A    6.147716   49584.7   201.7   -0.79807  -0.01252  -0.01636   0.14816

------------------------------------------------------------------------------------------
                     CD SPECTRUM VIA TRANSITION VELOCITY DIPOLE MOMENTS    
------------------------------------------------------------------------------------------
     Transition      Energy     Energy  Wavelength    R        MX        MY        MZ   
                      (eV)      (cm-1)    (nm)   (1e40*cgs)   (au)      (au)      (au)  
------------------------------------------------------------------------------------------
  0-1A  ->  1-1A    2.171074   17510.9   571.1    1.83947   0.06719   0.06760  -0.98956
  0-1A  ->  2-1A    2.520349   20328.0   491.9   -0.70100   0.02245  -0.03189   0.00509
  0-1A  ->  3-1A    3.336800   26913.1   371.6  -19.92249   0.18618  -0.25531   0.00523
  0-1A  ->  4-1A    3.520182   28392.2   352.2    3.42733   0.27854   0.21822   0.06659
  0-1A  ->  5-1A    4.056951   32721.5   305.6   -3.09965  -0.02006   0.00801  -0.69590
  0-1A  ->  6-1A    4.157853   33535.3   298.2   -1.15822  -0.06091   0.08460   0.01829
  0-1A  ->  7-1A    4.530764   36543.1   273.6   -4.49352  -0.06665   0.10434  -0.02528
  0-1A  ->  8-1A    4.731711   38163.8   262.0   -3.27935  -0.10978  -0.07896   0.47892
  0-1A  ->  9-1A    4.758969   38383.7   260.5   14.87707   0.15679  -0.22240  -0.01981
  0-1A  -> 10-1A    4.925157   39724.1   251.7    9.41646  -0.01372  -0.01899  -0.26012
  0-1A  -> 11-1A    4.993211   40273.0   248.3   -3.08799   0.11427   0.06527   0.65813
  0-1A  -> 12-1A    5.033889   40601.1   246.3    9.25185   0.00399  -0.02020  -0.35031
  0-1A  -> 13-1A    5.070862   40899.3   244.5   -9.07425  -0.01816   0.03953  -0.17518
  0-1A  -> 14-1A    5.241925   42279.0   236.5   14.98340   0.15047   0.08772   0.11352
  0-1A  -> 15-1A    5.253596   42373.1   236.0  -16.46360   0.03775   0.10259   0.06116
  0-1A  -> 16-1A    5.273409   42532.9   235.1    2.19933  -0.00047  -0.06998  -0.10643
  0-1A  -> 17-1A    5.319324   42903.2   233.1   -1.61139   0.14984   0.08701   0.36267
  0-1A  -> 18-1A    5.368250   43297.9   231.0    1.36747  -0.03370   0.03349   0.01353
  0-1A  -> 19-1A    5.446095   43925.7   227.7   -0.60728  -0.02711  -0.07295  -0.04955
  0-1A  -> 20-1A    5.495094   44320.9   225.6    3.72489   0.10005   0.09158  -0.28176
  0-1A  -> 21-1A    5.606437   45219.0   221.1   -1.04199  -0.01912   0.04034  -0.02672
  0-1A  -> 22-1A    5.633267   45435.4   220.1    0.15795   0.01029  -0.00558  -0.03525
  0-1A  -> 23-1A    5.717195   46112.3   216.9    4.20652  -0.05193   0.05838   0.04889
  0-1A  -> 24-1A    5.788419   46686.8   214.2   -1.08001  -0.09071  -0.07277   0.01228
  0-1A  -> 25-1A    5.847466   47163.0   212.0   -0.34147  -0.02068  -0.00266   0.03205
  0-1A  -> 26-1A    5.875963   47392.8   211.0    1.50967  -0.10165  -0.04291  -0.31589
  0-1A  -> 27-1A    6.031660   48648.6   205.6   -1.05164   0.03112  -0.00658   0.01052
  0-1A  -> 28-1A    6.074648   48995.3   204.1    0.88192   0.04166   0.06984   0.11988
  0-1A  -> 29-1A    6.110198   49282.1   202.9   -1.87944  -0.05444  -0.01573  -0.16649
  0-1A  -> 30-1A    6.147716   49584.7   201.7   -0.78867  -0.01252  -0.01636   0.14816

Total run time:     7168.492 sec

           *** ORCA-CIS/TD-DFT FINISHED WITHOUT ERROR ***
-----------------------
CIS/TD-DFT TOTAL ENERGY
-----------------------

    E(SCF)  =  -1415.856063110 Eh
    DE(CIS) =      0.079785492 Eh (Root  1)
    ----------------------------- ---------
    E(tot)  =  -1415.776277617 Eh


Maximum memory used throughout the entire CIS-calculation: 2665.4 MB
=> NOW LEAVING ORCA_CIS

-------------------------   --------------------
FINAL SINGLE POINT ENERGY     -1415.776277617240
-------------------------   --------------------



           ************************************************************
           *        Program running with 4 parallel MPI-processes     *
           *              working on a common directory               *
           ************************************************************

------------------------------------------------------------------------------
                              ORCA PROPERTY CALCULATIONS
------------------------------------------------------------------------------

GBWName                                 ... tddft.gbw
Number of atoms                         ...     48
Number of basis functions               ...   1039
Max core memory                         ...   3000 MB

Electric properties:
Dipole moment                           ... YES
Quadrupole moment                       ...  NO
Static polarizability (Dipole/Dipole)   ...  NO
Static polarizability (Dipole/Quad.)    ...  NO
Static polarizability (Quad./Quad.)     ...  NO
Static polarizability (Velocity)        ...  NO
Static hyperpolarizability              ...  NO

Atomic electric properties:
Dipole moment                           ...  NO
Quadrupole moment                       ...  NO
Static polarizability                   ...  NO

Choice of electric origin               ... Center of mass
Position of electric origin             ...     0.103281     0.078834     1.097617

General magnetic properties:
Magnetizability                         ...  NO

EPR properties:
g-Tensor (aka g-matrix)                 ...  NO
Zero-Field splitting spin-orbit         ...  NO
Zero-field splitting spin-spin          ...  NO
Hyperfine couplings                     ...  NO (   0 nuclei)
Quadrupole couplings                    ...  NO (   0 nuclei)
Contact density                         ...  NO (   0 nuclei)

NMR properties:
Chemical shifts                         ...  NO (   0 nuclei)
Spin-rotation constants                 ...  NO (   0 nuclei)
Spin-spin couplings                     ...  NO (   0 nuclei,    0 pairs)

Choice of magnetic origin               ... GIAO
Position of magnetic origin             ...     0.000000     0.000000     0.000000

Properties with geometric perturbations:
SCF Hessian                             ...  NO
IR spectrum                             ...  NO
VCD spectrum                            ...  NO
X-ray spectroscopy properties:
SCF XES/XAS/RIXS spectra                ...  NO

SCF SOC stabilization energy            ...  NO
Diagonal Born-Oppenheimer correction    ...  NO

-------------
DIPOLE MOMENT
-------------

Method             : SCF
Type of density    : Electron Density
Multiplicity       :   1
Irrep              :   0
Energy             : -1415.8560631097254827 Eh
Basis              : AO
                                X                 Y                 Z
Electronic contribution:     -5.719632280      -3.806957621      -1.290642921
Nuclear contribution   :      6.342772600       5.187774044       4.341567363
                        -----------------------------------------
Total Dipole Moment    :      0.623140319       1.380816423       3.050924442
                        -----------------------------------------
Magnitude (a.u.)       :      3.406332016
Magnitude (Debye)      :      8.658207906



--------------------
Rotational spectrum 
--------------------
 
Rotational constants in cm-1:             0.006132             0.006084             0.004304 
Rotational constants in MHz :           183.841401           182.386496           129.043387 

Dipole components along the rotational axes: 
x,y,z [a.u.] :     1.258574     0.864991     3.044812 
x,y,z [Debye]:     3.199041     2.198633     7.739297 

 

Dipole moment calculation done in   0.0 sec 

Maximum memory used throughout the entire PROP-calculation: 125.1 MB

--------------------------------
SUGGESTED CITATIONS FOR THIS RUN
--------------------------------

Below you find a list of papers that are relevant to this ORCA run
We neither can nor want to force you to cite these papers, but we appreciate if you do
You receive ORCA, which is the product of decades of hard work by many enthusiastic individuals, for free
The only thing we kindly ask in return is that you cite our papers,
We deeply appreciate it, if you show your appreciation for ORCA by not just citing the generic ORCA reference.

Please note that relegating all ORCA citations to the supporting information does *not* help us.
SI sections are not indexed - citations you put there will not count into any citation statistics
But we need these citations in order to attract the funding resources that allow us to do what we are doing

Therefore, if you are a happy ORCA user, please consider citing a few of the papers listed below in the main body of your paper

In addition to the list printed below, the program has created the file tddft.bibtex that contains the list in bibtex format
You can import this file easily into all common literature databanks and citation aid programs

It goes without saying that in many instances, there are alternative algorithms to achieve similar
results as the ones you have gotten from ORCA. It is, of course, also the case that in some instances
ORCA just re-implements algorithms worked out by others. We are fully aware of that and we are also
fully appreciative of our colleagues work. Hence this citation list should not be read as indicating
that the listed papers, which are focused on our own work, are the only ones worth citing. It simply
meant to make it easier for users to cite ORCA specific papers. It is not a substitute for doing your
own literature research and citing the relevant literature in a scientifically appropriate manner.

List of essential papers. We consider these as the minimum necessary citations

  1. Neese, F.
     Software update: the ORCA program system, version 6.0
     WIRES Comput. Molec. Sci. 2025 15(1), e70019
     doi.org/10.1002/wcms.70019

List of papers to cite with high priority. The work reported in these papers was absolutely
necessary for this run to complete.
Our perspective: the developers of density functionals and basis sets usually get cited in chemistry papers
Good! But without the algorithms to do something with them, the functionals or basis sets would not do anything.
Hence, in our opinion, the algorithm design and method developments papers are equally worthy of getting cited

  1. Neese, F.; Olbrich, G.
     Efficient use of the resolution of the identity approximation in time-dependent density functional calculations with hybrid density functionals
     Chem. Phys. Lett. 2002 362 , 170-178
     doi.org/10.1016/s0009-2614(02)01053-9
  2. Neese, F.
     An improvement of the resolution of the identity approximation for the formation of the Coulomb matrix
     J. Comp. Chem. 2003 24(14), 1740-1747
     doi.org/10.1002/jcc.10318
  3. Neese, F.; Wennmohs, F.; Hansen, A.; Becker, U.
     Efficient, approximate and parallel Hartree-Fock and hybrid DFT calculations. A 'chain-of-spheres' algorithm for the Hartree-Fock exchange
     Chem. Phys. 2009 356(1-3), 98-109
     doi.org/10.1016/j.chemphys.2008.10.036
  4. Garcia-Rates, M.; Neese, F.
     Effect of the Solute Cavity on the Solvation Energy and its Derivatives within the Framework of the Gaussian Charge Scheme
     J. Comput. Chem. 2020 41 , 922-939
     doi.org/10.1002/jcc.26139
  5. Helmich-Paris, B.; de Souza, B.; Neese, F.; Izsák, R.
     An improved chain of spheres for exchange algorithm
     J. Chem. Phys. 2021 155(10), 104109
     doi.org/10.1063/5.0058766
  6. Neese, F.
     The SHARK Integral Generation and Digestion System
     J. Comp. Chem. 2022 44(3), 381
     doi.org/10.1002/jcc.26942

List of suggested additional citations. These are papers that are important in the 'surrounding' of 
of this run, or papers that preceded the highly important papers. If you like your results we are grateful for a citation.

  1. Izsak, R.; Neese, F.
     An overlap fitted chain of spheres exchange method
     J. Chem. Phys. 2011 135 , 144105
     doi.org/10.1063/1.3646921
  2. Izsak, R.; Hansen, A.; Neese, F.
     The resolution of identity and chain of spheres approximations for the LPNO-CCSD singles Fock term
     Molec. Phys. 2012 110 , 2413-2417
     doi.org/10.1080/00268976.2012.687466
  3. Neese, F.
     The ORCA program system
     WIRES Comput. Molec. Sci. 2012 2(1), 73-78
     doi.org/10.1002/wcms.81
  4. Izsak, R.; Neese, F.; Klopper, W.
     Robust fitting techniques in the chain of spheres approximation to the Fock exchange: The role of the complementary space
     J. Chem. Phys. 2013 139 , 
     doi.org/10.1063/1.4819264
  5. Neese, F.
     Software update: the ORCA program system, version 4.0
     WIRES Comput. Molec. Sci. 2018 8(1), 1-6
     doi.org/10.1002/wcms.1327
  6. Neese, F.; Wennmohs, F.; Becker, U.; Riplinger, C.
     The ORCA quantum chemistry program package
     J. Chem. Phys. 2020 152(22), 224108
     doi.org/10.1063/5.0004608
  7. Neese, F.
     Software update: The ORCA program system—Version 5.0
     WIRES Comput. Molec. Sci. 2022 12(1), e1606
     doi.org/10.1002/wcms.1606

List of optional additional citations

  1. Neese, F.
     Approximate second-order SCF convergence for spin unrestricted wavefunctions
     Chem. Phys. Lett. 2000 325(1-3), 93-98
     doi.org/10.1016/s0009-2614(00)00662-x

Timings for individual modules:

Sum of individual times          ...    10485.699 sec (= 174.762 min)
Startup calculation              ...       43.490 sec (=   0.725 min)   0.4 %
SCF iterations                   ...     3269.889 sec (=  54.498 min)  31.2 %
Property integrals               ...        2.278 sec (=   0.038 min)   0.0 %
Property calculations            ...        0.694 sec (=   0.012 min)   0.0 %
CIS module                       ...     7169.349 sec (= 119.489 min)  68.4 %
                             ****ORCA TERMINATED NORMALLY****
TOTAL RUN TIME: 0 days 2 hours 54 minutes 46 seconds 102 msec
