
                                 *****************
                                 * O   R   C   A *
                                 *****************

                                            #,                                       
                                            ###                                      
                                            ####                                     
                                            #####                                    
                                            ######                                   
                                           ########,                                 
                                     ,,################,,,,,                         
                               ,,#################################,,                 
                          ,,##########################################,,             
                       ,#########################################, ''#####,          
                    ,#############################################,,   '####,        
                  ,##################################################,,,,####,       
                ,###########''''           ''''###############################       
              ,#####''   ,,,,##########,,,,          '''####'''          '####       
            ,##' ,,,,###########################,,,                        '##       
           ' ,,###''''                  '''############,,,                           
         ,,##''                                '''############,,,,        ,,,,,,###''
      ,#''                                            '''#######################'''  
     '                                                          ''''####''''         
             ,#######,   #######,   ,#######,      ##                                
            ,#'     '#,  ##    ##  ,#'     '#,    #''#        ,####,    ,#,          
            ##       ##  ##   ,#'  ##            #'  '#       #'       ,# #          
            ##       ##  #######   ##           ,######,      #####,      #          
            '#,     ,#'  ##    ##  '#,     ,#' ,#      #,     #,   #      #          
             '#######'   ##     ##  '#######'  #'      '#     '####' #    #          



                #########################################################
                #                        -***-                          #
                #          Department of theory and spectroscopy        #
                #                                                       #
                #                      Frank Neese                      #
                #                                                       #
                #     Directorship, Architecture, Infrastructure        #
                #                    SHARK, DRIVERS                     #
                #        Core code/Algorithms in most modules           #
                #                                                       #
                #        Max Planck Institute fuer Kohlenforschung      #
                #                Kaiser Wilhelm Platz 1                 #
                #                 D-45470 Muelheim/Ruhr                 #
                #                      Germany                          #
                #                                                       #
                #                  All rights reserved                  #
                #                        -***-                          #
                #########################################################


                         Program Version 6.1.1  -  RELEASE   -
                                (GIT: $487d211c$)
                          ($2025-11-21 10:33:24 +0100$)


 With contributions from (in alphabetic order):
[Max-Planck-Institut fuer Kohlenforschung]                               
  Daniel Aravena         : Magnetic Suceptibility                        
  Michael Atanasov       : Ab Initio Ligand Field Theory (pilot matlab implementation)
  Alexander A. Auer      : GIAO ZORA, VPT2 properties, NMR spectrum      
  Ute Becker             : All parallelization in ORCA, NUMFREQ, NUMCALC 
  Giovanni Bistoni       : ED, misc. LED, open-shell LED, HFLD           
  Dmytro Bykov           : pre 5.0 version of the SCF Hessian            
  Marcos Casanova-Páez   : Triplet and SCS-CIS(D). UHF-(DLPNO)-IP/EA/STEOM-CCSD. UHF-CVS-IP/STEOM-CCSD   
  Vijay G. Chilkuri      : MRCI spin determinant printing, contributions to CSF-ICE 
  Pauline Colinet        : FMM embedding                                 
  Dipayan Datta          : RHF DLPNO-CCSD density                        
  Achintya Kumar Dutta   : EOM-CC, STEOM-CC                              
  Nicolas Foglia         : Exact transition moments, OPA infrastructure, MCD improvements    
  Dmitry Ganyushin       : Spin-Orbit,Spin-Spin,Magnetic field MRCI      
  Miquel Garcia-Rates    : C-PCM and meta-GGA Hessian, CCSD/C-PCM, Gaussian charge scheme 
  Tiago L. C. Gouveia    : GS-ROHF, GS-ROCIS                             
  Yang Guo               : DLPNO-NEVPT2, F12-NEVPT2, CIM, IAO-localization        
  Andreas Hansen         : Spin unrestricted coupled pair/coupled cluster methods 
  Ingolf Harden          : AUTO-CI MPn and infrastructure                
  Benjamin Helmich-Paris : MC-RPA, TRAH-(SCF,CASSCF), AVAS, COSX integrals, SCF dyn. polar., MC-PDFT, srDFT 
  Lee Huntington         : MR-EOM, pCC                                   
  Robert Izsak           : Overlap fitted RIJCOSX, COSX-SCS-MP3, EOM     
  Riya Kayal             : Wick's Theorem for AUTO-CI, AUTO-CI UHF-CCSDT 
  Emily Kempfer          : AUTO-CI RHF CISDT and CCSDT, approximate NEVPT4
  Christian Kollmar      : KDIIS, OOCD, Brueckner-CCSD(T), CCSD density, CASPT2, CASPT2-K, improved NEVPT2 
  Axel Koslowski         : Symmetry handling                             
  Simone Kossmann        : meta-GGA functionals, TD-DFT gradient, OOMP2, (MP2 Hessian; deprecated post 5.0) 
  Lucas Lang             : DCDCAS, Hyperfine gauge corrections, ICE-SOC+SSC
  Marvin Lechner         : AUTO-CI (C++ implementation), FIC-MRCC        
  Spencer Leger          : CASSCF response                               
  Dagmar Lenk            : GEPOL surface, SMD, ORCA-2-JSON               
  Dimitrios Liakos       : Extrapolation schemes; Compound Job, Property file
  Dimitrios Manganas     : Further ROCIS development; embedding schemes. LFT, Crystal Embedding 
  Dimitrios Pantazis     : SARC Basis sets                               
  Anastasios Papadopoulos: AUTO-CI, single reference methods and gradients 
  Taras Petrenko         : pre 6.0 DFT Hessian and TD-DFT gradient,  ECA, NRVS 
  Petra Pikulova         : Analytic Raman intensities                    
  Peter Pinski           : DLPNO-MP2, DLPNO-MP2 Gradient                 
  Shashank Vittal Rao    : ES-AILFT, MagRelax                            
  Christoph Reimann      : Effective Core Potentials                     
  Marius Retegan         : Local ZFS, SOC                                
  Christoph Riplinger    : Optimizer, TS searches, QM/MM, DLPNO-CCSD(T), (RO)-DLPNO pert. Triples 
  Michael Roemelt        : Original ROCIS implementation, recursive CI coupling coefficients
  Masaaki Saitow         : Open-shell DLPNO-CCSD energy and density      
  Barbara Sandhoefer     : DKH picture change effects                    
  Yorick L. A. Schmerwitz: GMF and freeze-and-release deltaSCF, NEB S-IDPP initial path                    
  Kantharuban Sivalingam : CASSCF convergence/infrastructure, NEVPT2, NEVPT3, NEVPT4(SD), FIC-MRCI and CEPA variants
  Bernardo de Souza      : ESD, SOC TD-DFT                               
  Georgi L. Stoychev     : AutoAux, RI-MP2 NMR, DLPNO-MP2 response, X2C  
  Van Anh Tran           : RI-MP2 g-tensors                              
  Willem Van den Heuvel  : Paramagnetic NMR                              
  Zikuan Wang            : NOTCH, Electric field optimization            
  Frank Wennmohs         : Technical directorship and infrastructure     
  Hang Xu                : AUTO-CI-Response properties                   
                                                                         
[FACCTs GmbH]                                                            
  Markus Bursch, Nicolas Foglia, Miquel Garcia-Rates, Ingolf Harden, Hagen Neugebauer, Anastasios Papadopoulos, 
  Christoph Riplinger, Bernardo de Souza, Georgi L. Stoychev                                                    
                                                                 
  APM, various basis sets, CI-OPT, improved COSX, DLPNO-Multilevel,           
  DOCKER, DRACO, updates on ESD, Fragmentator, GOAT, IRC, LR-CPCM, L-BFGS, MBIS, meta-GGA TD-DFT gradient, ML-optimized integration grids, 
  MM, NACMEs, nearIR, NEB, NEB-TS, NL-DFT gradient (VV10), 2- and 3-layer-ONIOM, interface openCOSMO-RS, QMMM,   
  Crystal-QMMM, RESP, rigid body optimization, SF, symmetry and pop. for TD-DFT, various functionals, SOLVATOR                                   
                                                                         
[Other institutions]                                                     
  V. Asgeirsson          : NEB                                           
  Christoph Bannwarth    : sTDA-DFT, sTD-DFT, PBEh-3c, B97-3c, D3        
  Giovanni Bistoni       : ETS/NOCV, ADLD/ADEX, COVALED                  
  Martin Brehm           : Molecular dynamics                            
  Ronald Cardenas        : ETS/NOCV                                      
  Martina Colucci        : COVALED                                       
  Sebastian Ehlert       : rSCAN, r2SCAN, r2SCAN-3c, D4, dhf basis sets  
  Marvin Friede          : D4 for Fr, Ra, Ac-Lr                          
  Lars Goerigk           : TD-DFT with DH, B97 family of functionals     
  Stefan Grimme          : VdW corrections, initial TS optimization, DFT functionals, gCP, sTDA/sTD-DF 
  Waldemar Hujo          : DFT-NL                                        
  H. Jonsson             : NEB                                           
  Holger Kruse           : gCP                                           
  Marcel Mueller         : wB97X-3c, vDZP basis set                      
  Hagen Neugebauer       : wr2SCAN, Native XTB                           
  Gianluca Regni         : ADLD/ADEX                                     
  Tobias Risthaus        : pre 6.0 range-separated hybrid DFT and stability analysis
  Lukas Wittmann         : regularized MP2, r2SCAN double-hybrids, wr2SCAN        
                                                                         
We gratefully acknowledge several colleagues who have allowed us to      
interface, adapt or use parts of their codes:                            
  Ed Valeev, F. Pavosevic, A. Kumar             : LibInt (2-el integral package), F12 methods 
  Garnet Chan, S. Sharma, J. Yang, R. Olivares  : DMRG                   
  Ulf Ekstrom                                   : XCFun DFT Library      
  Mihaly Kallay                                 : mrcc  (arbitrary order and MRCC methods)
  Frank Weinhold                                : gennbo (NPA and NBO analysis)           
  Simon Mueller                                 : openCOSMO-RS                            
  Christopher J. Cramer and Donald G. Truhlar   : smd solvation model                     
  S Lehtola, MJT Oliveira, MAL Marques          : LibXC Library                           
  Liviu Ungur et al                             : ANISO software                          


 Your calculation uses the libint2 library for the computation of 2-el integrals
 For citations please refer to: http://libint.valeyev.net

 Your ORCA version has been built with support for libXC version: 7.0.0
 For citations please refer to: https://libxc.gitlab.io

 This ORCA versions uses:
   CBLAS   interface :  Fast vector & matrix operations
   LAPACKE interface :  Fast linear algebra routines
   SCALAPACK package :  Parallel linear algebra routines
   Shared memory     :  Shared parallel matrices
   BLAS/LAPACK       :  OpenBLAS 0.3.29  USE64BITINT DYNAMIC_ARCH NO_AFFINITY Haswell SINGLE_THREADED
        Core in use  :  Haswell
   Copyright (c) 2011-2014, The OpenBLAS Project


  ***********************************
  * Starting time: Fri Jul 10 23:15:51 2026
  * Host name:     steezy
  * Process ID:    2078406
  * Working dir.:  /home/jannes/chlorophyll-ladder/009-mgchlorin-axial-ligation/mgchlorin_imidazole/03_tddft_ch2cl2/m062x
  ***********************************

NOTE: MaxCore=3000 MB was set to SCF,MP2,MDCI,CIPSI,MRCI,RASCI and CIS
      => If you want to overwrite this, your respective input block should be placed after the MaxCore statement


***************************************
The coordinates will be read from file: /home/jannes/chlorophyll-ladder/009-mgchlorin-axial-ligation/mgchlorin_imidazole/01_opt/mgchlorin_imidazole_opt_b3lypd4_tzvp.xyz
***************************************


XCFun DFT library Copyright 2009-2010 Ulf Ekstrom and contributors.
See http://admol.org/xcfun for more information.
This is free software; see the source code for copying conditions.
There is ABSOLUTELY NO WARRANTY; not even for MERCHANTABILITY or FITNESS FOR A PARTICULAR PURPOSE.
For details see the documentation.
Scientific users of this library should cite U. Ekstrom, L. Visscher, R. Bast, A. J. Thorvaldsen and K. Ruud;
J.Chem.Theor.Comp. 2010, DOI: 10.1021/ct100117s
XCFun Version 0.99 

================================================================================

----- Orbital basis set information -----
Your calculation utilizes the basis: def2-TZVP
   F. Weigend and R. Ahlrichs, Phys. Chem. Chem. Phys. 7, 3297 (2005).

----- AuxJ basis set information -----
Your calculation utilizes the auxiliary basis: def2/J
   H-Rn: F. Weigend, Phys. Chem. Chem. Phys. 8, 1057 (2006).
   Fr-Lr: K. Eichkorn, F. Weigend, O. Treutler, R. Ahlrichs; Theor. Chem. Acc. 97, 119 (1997).

================================================================================
                                        WARNINGS
                       Please study these warnings very carefully!
================================================================================

WARNING: Functional chosen is sensitive to the integration grid.
         DEFGRID3 seems to be a minimum grid for robust results!

WARNING: CIS/ROCIS methods need fully converged wavefunctions
  ===> : Setting SCFConvForced true
         You can overwrite this default with %scf ConvForced false 


================================================================================
                                       INPUT FILE
================================================================================
NAME = tddft.inp
|  1> %pal nprocs 4 end
|  2> %maxcore 3000
|  3> ! M062X def2-TZVP def2/J RIJCOSX DefGrid3 TightSCF CPCM(CH2Cl2)
|  4> %tddft
|  5>   nroots 30
|  6>   tda false
|  7>   triplets false
|  8> end
|  9> * xyzfile 0 1 /home/jannes/chlorophyll-ladder/009-mgchlorin-axial-ligation/mgchlorin_imidazole/01_opt/mgchlorin_imidazole_opt_b3lypd4_tzvp.xyz
| 10> 
| 11>                          ****END OF INPUT****
================================================================================

                       ****************************
                       * Single Point Calculation *
                       ****************************

---------------------------------
CARTESIAN COORDINATES (ANGSTROEM)
---------------------------------
  N      1.686977    1.314594   -0.070141
  N     -1.244066    1.614892    0.010363
  N      1.296068   -1.605044   -0.041730
  N     -1.595971   -1.274834   -0.003516
  C      2.970609    3.301555   -0.232211
  C      3.922431    2.104910   -0.102015
  C      1.597742    2.664663   -0.109541
  C      2.979759    0.914541   -0.093658
  C      0.434405    3.400412   -0.067464
  C      3.423560   -0.389267   -0.088962
  C     -0.889070    2.920137   -0.019573
  C      2.647232   -1.563978   -0.082176
  C     -2.620848    1.565510    0.027377
  C      0.926464   -2.931741   -0.066724
  C     -2.069437    3.748719   -0.008343
  C      3.177401   -2.905444   -0.124641
  C     -3.141080    2.907354    0.021299
  C      2.110072   -3.750696   -0.115251
  C     -3.378288    0.405243    0.033372
  C     -0.376898   -3.398678   -0.057022
  C     -2.911256   -0.915786    0.006138
  C     -1.553694   -2.636326   -0.036770
  C     -3.735300   -2.091666   -0.021863
  C     -2.889482   -3.163600   -0.049382
  H      3.066735    3.799064   -1.200440
  H      3.128997    4.062511    0.533242
  H      4.496140    2.134826    0.827766
  H      4.642784    2.039364   -0.918402
  H      0.544588    4.477580   -0.101599
  H      4.497149   -0.531874   -0.111807
  H     -2.073111    4.827608   -0.035091
  H      4.225360   -3.159508   -0.167527
  H     -4.188580    3.167597    0.023519
  H      2.117427   -4.829413   -0.148927
  H     -4.454237    0.532723    0.041623
  H     -0.502711   -4.474509   -0.080584
  H     -4.814489   -2.097809   -0.027947
  H     -3.147034   -4.211120   -0.081508
  Mg     0.030982    0.001266    0.263024
  N      0.086343    0.074074    2.409607
  C     -0.591908    0.918226    3.154555
  N     -0.375326    0.667276    4.465350
  C      0.491190   -0.400629    4.556276
  C      0.766939   -0.755449    3.268883
  H     -1.233194    1.701213    2.785884
  H      0.818760   -0.797491    5.500144
  H      1.398114   -1.545010    2.899381
  H     -0.782140    1.170094    5.235166

----------------------------
CARTESIAN COORDINATES (A.U.)
----------------------------
  NO LB      ZA    FRAG     MASS         X           Y           Z
   0 N     7.0000    0    14.007    3.187925    2.484222   -0.132548
   1 N     7.0000    0    14.007   -2.350945    3.051704    0.019584
   2 N     7.0000    0    14.007    2.449213   -3.033094   -0.078857
   3 N     7.0000    0    14.007   -3.015948   -2.409087   -0.006645
   4 C     6.0000    0    12.011    5.613637    6.239035   -0.438816
   5 C     6.0000    0    12.011    7.412321    3.977704   -0.192780
   6 C     6.0000    0    12.011    3.019295    5.035483   -0.207002
   7 C     6.0000    0    12.011    5.630929    1.728231   -0.176987
   8 C     6.0000    0    12.011    0.820907    6.425848   -0.127488
   9 C     6.0000    0    12.011    6.469590   -0.735609   -0.168113
  10 C     6.0000    0    12.011   -1.680100    5.518259   -0.036987
  11 C     6.0000    0    12.011    5.002544   -2.955489   -0.155291
  12 C     6.0000    0    12.011   -4.952684    2.958385    0.051734
  13 C     6.0000    0    12.011    1.750763   -5.540187   -0.126089
  14 C     6.0000    0    12.011   -3.910669    7.084053   -0.015767
  15 C     6.0000    0    12.011    6.004418   -5.490494   -0.235538
  16 C     6.0000    0    12.011   -5.935782    5.494104    0.040249
  17 C     6.0000    0    12.011    3.987459   -7.087787   -0.217793
  18 C     6.0000    0    12.011   -6.384039    0.765799    0.063063
  19 C     6.0000    0    12.011   -0.712233   -6.422570   -0.107755
  20 C     6.0000    0    12.011   -5.501477   -1.730584    0.011599
  21 C     6.0000    0    12.011   -2.936056   -4.981934   -0.069486
  22 C     6.0000    0    12.011   -7.058695   -3.952677   -0.041315
  23 C     6.0000    0    12.011   -5.460329   -5.978338   -0.093318
  24 H     1.0000    0     1.008    5.795289    7.179191   -2.268502
  25 H     1.0000    0     1.008    5.912948    7.677034    1.007682
  26 H     1.0000    0     1.008    8.496473    4.034237    1.564250
  27 H     1.0000    0     1.008    8.773590    3.853840   -1.735529
  28 H     1.0000    0     1.008    1.029122    8.461399   -0.191994
  29 H     1.0000    0     1.008    8.498380   -1.005095   -0.211285
  30 H     1.0000    0     1.008   -3.917613    9.122856   -0.066312
  31 H     1.0000    0     1.008    7.984774   -5.970606   -0.316580
  32 H     1.0000    0     1.008   -7.915269    5.985892    0.044444
  33 H     1.0000    0     1.008    4.001357   -9.126268   -0.281431
  34 H     1.0000    0     1.008   -8.417288    1.006701    0.078656
  35 H     1.0000    0     1.008   -0.949986   -8.455596   -0.152281
  36 H     1.0000    0     1.008   -9.098067   -3.964284   -0.052812
  37 H     1.0000    0     1.008   -5.947032   -7.957863   -0.154028
  38 Mg   12.0000    0    24.305    0.058547    0.002392    0.497043
  39 N     7.0000    0    14.007    0.163166    0.139979    4.553497
  40 C     6.0000    0    12.011   -1.118545    1.735195    5.961246
  41 N     7.0000    0    14.007   -0.709264    1.260969    8.438289
  42 C     6.0000    0    12.011    0.928215   -0.757080    8.610113
  43 C     6.0000    0    12.011    1.449305   -1.427593    6.177293
  44 H     1.0000    0     1.008   -2.330398    3.214827    5.264558
  45 H     1.0000    0     1.008    1.547233   -1.507039   10.393766
  46 H     1.0000    0     1.008    2.642052   -2.919646    5.479036
  47 H     1.0000    0     1.008   -1.478030    2.211158    9.893029

--------------------------------
INTERNAL COORDINATES (ANGSTROEM)
--------------------------------
 N      0   0   0     0.000000000000     0.00000000     0.00000000
 N      1   0   0     2.947486350172     0.00000000     0.00000000
 N      1   2   0     2.945828126371    88.20947573     0.00000000
 N      3   1   2     2.911079671341    91.11929974     0.80715272
 C      1   2   3     2.371073823090   117.05466142   176.90212528
 C      5   1   2     1.534560609903    71.12653572   176.43333539
 C      1   2   3     1.353588294752    80.42259655   178.54766819
 C      1   2   3     1.353470340789   168.64364198   357.76596920
 C      7   1   2     1.377116749417   125.99258173     1.50888961
 C      8   1   7     1.377278543597   125.98196374   181.20281987
 C      2   1   3     1.352990322192    80.60546467   180.52233867
 C      3   1   2     1.352393820728    80.62107172   179.90284917
 C      2   1   3     1.377771680673   172.05125211   353.39051782
 C      3   1   2     1.377445050622   171.90094100    12.88565013
 C     11   2   1     1.442199392872   109.83646179   179.55494343
 C     12   3   1     1.443057439826   109.85925776   181.45151808
 C     15  11   2     1.362788822813   106.80176759   359.65838229
 C     16  12   3     1.361517385722   106.79204084     0.29156805
 C     13   2  11     1.385630030716   125.19159905   178.69666656
 C     14   3  12     1.384512915517   125.26106051   180.89130603
 C      4   3   1     1.363446139236   171.23871913     1.67942532
 C      4   3   1     1.362553852118    81.69232101   178.15836169
 C     21   4  22     1.436150364206   109.74083976     0.00000000
 C     23  21   4     1.365726298515   106.71891006   359.96199257
 H      5   1   2     1.092804505014   119.32013955   281.69849699
 H      5   1   2     1.090899211643   127.96557171    71.25187495
 H      6   5   1     1.092944859141   112.11195893   244.98233562
 H      6   5   1     1.090730038156   113.14102048   123.91365165
 H      9   7   1     1.083325722172   116.38172549   179.54988406
 H     10   8   1     1.083260292684   116.35322274   179.92679746
 H     15  11   2     1.079226072128   125.23565366   180.54529963
 H     16  12   3     1.079169192758   125.22500344   179.61585041
 H     17  15  11     1.079345565166   127.90436383   180.91093752
 H     18  16  12     1.079267751577   127.94770026   179.30461915
 H     19  13   2     1.083506306146   116.38115741   180.32684545
 H     20  14   3     1.083418999991   116.36337595   179.96740579
 H     23  21   4     1.079223838068   125.34778292   180.43565273
 H     24  23  21     1.079195358710   127.92598576   180.44323431
 Mg     3   1   2     2.067256417027    46.56842154   349.30073568
 N     39   3   1     2.148530675946    99.08201017   263.50222852
 C     40  39   3     1.314369549312   125.08046622   181.84455130
 N     41  40  39     1.352060218300   110.34113851   177.63312489
 C     42  41  40     1.378238138060   107.96786427   359.94580940
 C     43  42  41     1.363566932247   105.45482476     0.03663726
 H     41  40  39     1.077141930779   125.45699601   357.72628083
 H     43  42  41     1.075029386219   122.38035120   180.17627298
 H     44  43  42     1.076252281312   129.31909261   180.29177562
 H     42  41  40     1.005454808586   125.77750555   180.32691267

---------------------------
INTERNAL COORDINATES (A.U.)
---------------------------
 N      0   0   0     0.000000000000     0.00000000     0.00000000
 N      1   0   0     5.569941985296     0.00000000     0.00000000
 N      1   2   0     5.566808396444    88.20947573     0.00000000
 N      3   1   2     5.501143332861    91.11929974     0.80715272
 C      1   2   3     4.480680168949   117.05466142   176.90212528
 C      5   1   2     2.899899288620    71.12653572   176.43333539
 C      1   2   3     2.557911175162    80.42259655   178.54766819
 C      1   2   3     2.557688274476   168.64364198   357.76596920
 C      7   1   2     2.602373510833   125.99258173     1.50888961
 C      8   1   7     2.602679257524   125.98196374   181.20281987
 C      2   1   3     2.556781170788    80.60546467   180.52233867
 C      3   1   2     2.555653946383    80.62107172   179.90284917
 C      2   1   3     2.603611151544   172.05125211   353.39051782
 C      3   1   2     2.602993910201   171.90094100    12.88565013
 C     11   2   1     2.725361883035   109.83646179   179.55494343
 C     12   3   1     2.726983356789   109.85925776   181.45151808
 C     15  11   2     2.575297653485   106.80176759   359.65838229
 C     16  12   3     2.572894985586   106.79204084     0.29156805
 C     13   2  11     2.618461280991   125.19159905   178.69666656
 C     14   3  12     2.616350239204   125.26106051   180.89130603
 C      4   3   1     2.576539801508   171.23871913     1.67942532
 C      4   3   1     2.574853623222    81.69232101   178.15836169
 C     21   4  22     2.713930875481   109.74083976     0.00000000
 C     23  21   4     2.580848678087   106.71891006   359.96199257
 H      5   1   2     2.065101232393   119.32013955   281.69849699
 H      5   1   2     2.061500749715   127.96557171    71.25187495
 H      6   5   1     2.065366463254   112.11195893   244.98233562
 H      6   5   1     2.061181058156   113.14102048   123.91365165
 H      9   7   1     2.047188928737   116.38172549   179.54988406
 H     10   8   1     2.047065284924   116.35322274   179.92679746
 H     15  11   2     2.039441712909   125.23565366   180.54529963
 H     16  12   3     2.039334226478   125.22500344   179.61585041
 H     17  15  11     2.039667522027   127.90436383   180.91093752
 H     18  16  12     2.039520475653   127.94770026   179.30461915
 H     19  13   2     2.047530182992   116.38115741   180.32684545
 H     20  14   3     2.047365198269   116.36337595   179.96740579
 H     23  21   4     2.039437491148   125.34778292   180.43565273
 H     24  23  21     2.039383672962   127.92598576   180.44323431
 Mg     3   1   2     3.906548476773    46.56842154   349.30073568
 N     39   3   1     4.060134567867    99.08201017   263.50222852
 C     40  39   3     2.483798486965   125.08046622   181.84455130
 N     41  40  39     2.555023529158   110.34113851   177.63312489
 C     42  41  40     2.604492628258   107.96786427   359.94580940
 C     43  42  41     2.576768067218   105.45482476     0.03663726
 H     41  40  39     2.035503256535   125.45699601   357.72628083
 H     43  42  41     2.031511125870   122.38035120   180.17627298
 H     44  43  42     2.033822062687   129.31909261   180.29177562
 H     42  41  40     1.900034228263   125.77750555   180.32691267

---------------------
BASIS SET INFORMATION
---------------------
There are 4 groups of distinct atoms

 Group   1 Type N   : 11s6p2d1f contracted to 5s3p2d1f pattern {62111/411/11/1}
 Group   2 Type C   : 11s6p2d1f contracted to 5s3p2d1f pattern {62111/411/11/1}
 Group   3 Type H   : 5s1p contracted to 3s1p pattern {311/1}
 Group   4 Type Mg  : 14s8p3d contracted to 5s4p3d pattern {73211/5111/111}

Atom   0N    basis set group =>   1
Atom   1N    basis set group =>   1
Atom   2N    basis set group =>   1
Atom   3N    basis set group =>   1
Atom   4C    basis set group =>   2
Atom   5C    basis set group =>   2
Atom   6C    basis set group =>   2
Atom   7C    basis set group =>   2
Atom   8C    basis set group =>   2
Atom   9C    basis set group =>   2
Atom  10C    basis set group =>   2
Atom  11C    basis set group =>   2
Atom  12C    basis set group =>   2
Atom  13C    basis set group =>   2
Atom  14C    basis set group =>   2
Atom  15C    basis set group =>   2
Atom  16C    basis set group =>   2
Atom  17C    basis set group =>   2
Atom  18C    basis set group =>   2
Atom  19C    basis set group =>   2
Atom  20C    basis set group =>   2
Atom  21C    basis set group =>   2
Atom  22C    basis set group =>   2
Atom  23C    basis set group =>   2
Atom  24H    basis set group =>   3
Atom  25H    basis set group =>   3
Atom  26H    basis set group =>   3
Atom  27H    basis set group =>   3
Atom  28H    basis set group =>   3
Atom  29H    basis set group =>   3
Atom  30H    basis set group =>   3
Atom  31H    basis set group =>   3
Atom  32H    basis set group =>   3
Atom  33H    basis set group =>   3
Atom  34H    basis set group =>   3
Atom  35H    basis set group =>   3
Atom  36H    basis set group =>   3
Atom  37H    basis set group =>   3
Atom  38Mg   basis set group =>   4
Atom  39N    basis set group =>   1
Atom  40C    basis set group =>   2
Atom  41N    basis set group =>   1
Atom  42C    basis set group =>   2
Atom  43C    basis set group =>   2
Atom  44H    basis set group =>   3
Atom  45H    basis set group =>   3
Atom  46H    basis set group =>   3
Atom  47H    basis set group =>   3
---------------------------------
AUXILIARY/J BASIS SET INFORMATION
---------------------------------
There are 4 groups of distinct atoms

 Group   1 Type N   : 12s5p4d2f1g contracted to 6s4p3d1f1g pattern {711111/2111/211/2/1}
 Group   2 Type C   : 12s5p4d2f1g contracted to 6s4p3d1f1g pattern {711111/2111/211/2/1}
 Group   3 Type H   : 5s2p1d contracted to 3s1p1d pattern {311/2/1}
 Group   4 Type Mg  : 14s5p5d2f1g contracted to 8s4p4d1f1g pattern {71111111/2111/2111/2/1}

Atom   0N    basis set group =>   1
Atom   1N    basis set group =>   1
Atom   2N    basis set group =>   1
Atom   3N    basis set group =>   1
Atom   4C    basis set group =>   2
Atom   5C    basis set group =>   2
Atom   6C    basis set group =>   2
Atom   7C    basis set group =>   2
Atom   8C    basis set group =>   2
Atom   9C    basis set group =>   2
Atom  10C    basis set group =>   2
Atom  11C    basis set group =>   2
Atom  12C    basis set group =>   2
Atom  13C    basis set group =>   2
Atom  14C    basis set group =>   2
Atom  15C    basis set group =>   2
Atom  16C    basis set group =>   2
Atom  17C    basis set group =>   2
Atom  18C    basis set group =>   2
Atom  19C    basis set group =>   2
Atom  20C    basis set group =>   2
Atom  21C    basis set group =>   2
Atom  22C    basis set group =>   2
Atom  23C    basis set group =>   2
Atom  24H    basis set group =>   3
Atom  25H    basis set group =>   3
Atom  26H    basis set group =>   3
Atom  27H    basis set group =>   3
Atom  28H    basis set group =>   3
Atom  29H    basis set group =>   3
Atom  30H    basis set group =>   3
Atom  31H    basis set group =>   3
Atom  32H    basis set group =>   3
Atom  33H    basis set group =>   3
Atom  34H    basis set group =>   3
Atom  35H    basis set group =>   3
Atom  36H    basis set group =>   3
Atom  37H    basis set group =>   3
Atom  38Mg   basis set group =>   4
Atom  39N    basis set group =>   1
Atom  40C    basis set group =>   2
Atom  41N    basis set group =>   1
Atom  42C    basis set group =>   2
Atom  43C    basis set group =>   2
Atom  44H    basis set group =>   3
Atom  45H    basis set group =>   3
Atom  46H    basis set group =>   3
Atom  47H    basis set group =>   3


           ************************************************************
           *        Program running with 4 parallel MPI-processes     *
           *              working on a common directory               *
           ************************************************************
------------------------------------------------------------------------------
                             ORCA STARTUP CALCULATIONS
                           -- RI-GTO INTEGRALS CHOSEN --
------------------------------------------------------------------------------
------------------------------------------------------------------------------
                   ___                                                        
                  /   \      - P O W E R E D   B Y -                         
                 /     \                                                     
                 |  |  |   _    _      __       _____    __    __             
                 |  |  |  | |  | |    /  \     |  _  \  |  |  /  |          
                  \  \/   | |  | |   /    \    | | | |  |  | /  /          
                 / \  \   | |__| |  /  /\  \   | |_| |  |  |/  /          
                |  |  |   |  __  | /  /__\  \  |    /   |      \           
                |  |  |   | |  | | |   __   |  |    \   |  |\   \          
                \     /   | |  | | |  |  |  |  | |\  \  |  | \   \       
                 \___/    |_|  |_| |__|  |__|  |_| \__\ |__|  \__/        
                                                                              
                      - O R C A' S   B I G   F R I E N D -                    
                                      &                                       
                       - I N T E G R A L  F E E D E R -                       
                                                                              
 v1 FN, 2020, v2 2021, v3 2022-2024                                           
------------------------------------------------------------------------------


----------------------
SHARK INTEGRAL PACKAGE
----------------------

Number of atoms                             ...     48
Number of basis functions                   ...   1039
Number of shells                            ...    403
Maximum angular momentum                    ...      3
Integral batch strategy                     ... SHARK/LIBINT Hybrid
RI-J (if used) integral strategy            ... SPLIT-RIJ (Revised 2003 algorithm where possible)
Printlevel                                  ...      1
Contraction scheme used                     ... SEGMENTED contraction
Prescreening option                         ... SCHWARTZ
   Thresh                                   ... 2.500e-11
   Tcut                                     ... 2.500e-12
   Tpresel                                  ... 2.500e-12 
Coulomb Range Separation                    ... NOT USED
Exchange Range Separation                   ... NOT USED
Multipole approximations                    ... NOT USED
Finite Nucleus Model                        ... NOT USED
CABS basis                                  ... NOT available
Auxiliary Coulomb fitting basis             ... AVAILABLE
   # of basis functions in Aux-J            ...   1675
   # of shells in Aux-J                     ...    543
   Maximum angular momentum in Aux-J        ...      4
Auxiliary J/K fitting basis                 ... NOT available
Auxiliary Correlation fitting basis         ... NOT available
Auxiliary 'external' fitting basis          ... NOT available

Checking pre-screening integrals            ... done (  0.0 sec) Dimension = 403
   => SHARK Basis and OBASIS are compatible. Storing Pre-screening
Shell pair information
Shell pair cut-off parameter TPreSel        ...   2.5e-12
Total number of shell pairs                 ...     81406
Shell pairs after pre-screening             ...     56511
Total number of primitive shell pairs       ...    255268
Primitive shell pairs kept                  ...    113104
          la=0 lb=0:  13747 shell pairs
          la=1 lb=0:  16197 shell pairs
          la=1 lb=1:   4776 shell pairs
          la=2 lb=0:   8278 shell pairs
          la=2 lb=1:   5060 shell pairs
          la=2 lb=2:   1377 shell pairs
          la=3 lb=0:   3500 shell pairs
          la=3 lb=1:   2211 shell pairs
          la=3 lb=2:   1136 shell pairs
          la=3 lb=3:    229 shell pairs

Checking whether 4 symmetric matrices of dimension 1039 fit in memory
:Max Core in MB      =   3000.00
 MB in use           =     71.41
 MB left             =   2928.59
 MB needed           =     16.49
 Data fit in memory  = YES
Calculating RI/J V-Matrix + Cholesky decomp.... done (  0.3 sec)
Calculating Nuclear repulsion               ... done (  0.0 sec) ENN=   3002.845142179156 Eh

Diagonalization of the overlap matrix:
Smallest eigenvalue                        ... 1.011e-05
Time for diagonalization                   ...    0.663 sec
Threshold for overlap eigenvalues          ... 1.000e-07
Number of eigenvalues below threshold      ... 0
Time for construction of square roots      ...    0.666 sec
Total time needed                          ...    1.346 sec

-------------------
DFT GRID GENERATION
-------------------

General Integration Accuracy     IntAcc      ... 4.959
Radial Grid Type                 RadialGrid  ... OptM3 with GC (2021)
Angular Grid (max. ang.)         AngularGrid ... 6 (Lebedev-590)
Angular grid pruning method      GridPruning ... 4 (adaptive)
Weight generation scheme         WeightScheme... mBecke (2022)
Basis function cutoff            BFCut       ... 1.0000e-11
Integration weight cutoff        WCut        ... 1.0000e-14
Partially contracted basis set               ... off
Rotationally invariant grid construction     ... off
Angular grids for H and He will be reduced by one unit

Total number of grid points                  ...   575843
Total number of batches                      ...     9021
Average number of points per batch           ...       63
Average number of grid points per atom       ...    11997

--------------------
COSX GRID GENERATION
--------------------

GRIDX 1
-------
General Integration Accuracy     IntAcc      ... 4.020
Radial Grid Type                 RadialGrid  ... OptM3 with GC (2021)
Angular Grid (max. ang.)         AngularGrid ... 2 (Lebedev-110)
Angular grid pruning method      GridPruning ... 4 (adaptive)
Weight generation scheme         WeightScheme... mBecke (2022)
Basis function cutoff            BFCut       ... 1.0000e-11
Integration weight cutoff        WCut        ... 1.0000e-14
Partially contracted basis set               ... on
Rotationally invariant grid construction     ... off
Angular grids for H and He will be reduced by one unit

Total number of grid points                  ...    65260
Total number of batches                      ...      533
Average number of points per batch           ...      122
Average number of grid points per atom       ...     1360
UseSFitting                                  ... on

GRIDX 2
-------
General Integration Accuracy     IntAcc      ... 4.338
Radial Grid Type                 RadialGrid  ... OptM3 with GC (2021)
Angular Grid (max. ang.)         AngularGrid ... 3 (Lebedev-194)
Angular grid pruning method      GridPruning ... 4 (adaptive)
Weight generation scheme         WeightScheme... mBecke (2022)
Basis function cutoff            BFCut       ... 1.0000e-11
Integration weight cutoff        WCut        ... 1.0000e-14
Partially contracted basis set               ... on
Rotationally invariant grid construction     ... off
Angular grids for H and He will be reduced by one unit

Total number of grid points                  ...   143029
Total number of batches                      ...     1139
Average number of points per batch           ...      125
Average number of grid points per atom       ...     2980
UseSFitting                                  ... on

GRIDX 3
-------
General Integration Accuracy     IntAcc      ... 4.871
Radial Grid Type                 RadialGrid  ... OptM3 with GC (2021)
Angular Grid (max. ang.)         AngularGrid ... 4 (Lebedev-302)
Angular grid pruning method      GridPruning ... 4 (adaptive)
Weight generation scheme         WeightScheme... mBecke (2022)
Basis function cutoff            BFCut       ... 1.0000e-11
Integration weight cutoff        WCut        ... 1.0000e-14
Partially contracted basis set               ... on
Rotationally invariant grid construction     ... off
Angular grids for H and He will be reduced by one unit

Total number of grid points                  ...   263544
Total number of batches                      ...     2084
Average number of points per batch           ...      126
Average number of grid points per atom       ...     5490
UseSFitting                                  ... on
Grids setup in  39.4 sec
Initializing property integral containers    ... done (  0.0 sec)

SHARK setup successfully completed in  44.2 seconds

Maximum memory used throughout the entire STARTUP-calculation: 201.6 MB


           ************************************************************
           *        Program running with 4 parallel MPI-processes     *
           *              working on a common directory               *
           ************************************************************
-------------------------------------------------------------------------------
                                 ORCA GUESS
                   Start orbitals & Density for SCF / CASSCF
-------------------------------------------------------------------------------

------------
SCF SETTINGS
------------
Hamiltonian:
 Density Functional     Method          .... DFT(GTOs)
 Exchange Functional    Exchange        .... M062X
 Correlation Functional Correlation     .... M062X
 Gradients option       PostSCFGGA      .... off
 Hybrid DFT is turned on
   Fraction HF Exchange ScalHFX         ....  0.540000
   Scaling of DF-GGA-X  ScalDFX         ....  0.460000
   Scaling of DF-GGA-C  ScalDFC         ....  1.000000
   Scaling of DF-LDA-C  ScalLDAC        ....  1.000000
   Perturbative correction              ....  0.000000
 RI-approximation to the Coulomb term is turned on
   Number of AuxJ basis functions       .... 1675
   RIJ-COSX (HFX calculated with COS-X)).... on


General Settings:
 Integral files         IntName         .... tddft
 Hartree-Fock type      HFTyp           .... RHF
 Total Charge           Charge          ....    0
 Multiplicity           Mult            ....    1
 Number of Electrons    NEL             ....  210
 Basis Dimension        Dim             .... 1039
 Nuclear Repulsion      ENuc            ....   3002.8451421792 Eh

Convergence Acceleration:
 AO-DIIS                CNVDIIS         .... on
   Start iteration      DIISMaxIt       ....    12
   Startup error        DIISStart       ....  0.200000
   # of expansion vecs  DIISMaxEq       ....     5
   Bias factor          DIISBfac        ....   1.050
   Max. coefficient     DIISMaxC        ....  10.000
 MO-DIIS                CNVKDIIS        .... off
 Trust-Rad. Augm. Hess. CNVTRAH         .... auto
   Auto Start mean grad. ratio tolernc. ....  1.125000
   Auto Start start iteration           ....    50
   Auto Start num. interpolation iter.  ....    10
   Max. Number of Micro iterations      ....    24
   Max. Number of Macro iterations      .... Maxiter - #DIIS iter
   Number of Davidson start vectors     ....     2
   Converg. threshold    (grad. norm)   ....   1.000e-05
   Grad. Scal. Fac. for Micro threshold ....   0.100
   Minimum threshold for Micro iter.    ....   1.000e-02
   NR start threshold (gradient norm)   ....   1.000e-04
   Initial trust radius                 ....   0.400
   Minimum AH scaling param. (alpha)    ....   1.000
   Maximum AH scaling param. (alpha)    .... 1000.000
   Quad. conv. algorithm                .... NR
   White noise on init. David. guess    .... on
   Maximum white noise                  ....   0.010
   Pseudo random numbers                .... off
   Inactive MOs                         .... canonical
   Orbital update algorithm             .... Taylor
   Preconditioner                       .... Diag
   Full preconditioner red. dimension   ....   250
 SOSCF                 CNVSOSCF           .... on
   Start iteration     SOSCFMaxIt         ....   150
   Startup grad/error  SOSCFStart         ....  0.003300
   Hessian update      SOSCFHessUp        .... L-BFGS
   Autom. constraints  SOSCFAutoConstrain .... off
 Level Shifting         CNVShift        .... on
   Level shift para.    LevelShift      ....    0.2500
   Turn off err/grad.   ShiftErr        ....    0.0010
 Zerner damping         CNVZerner       .... off
 Static damping         CNVDamp         .... on
   Fraction old density DampFac         ....    0.7000
   Max. Damping (<1)    DampMax         ....    0.9800
   Min. Damping (>=0)   DampMin         ....    0.0000
   Turn off err/grad.   DampErr         ....    0.1000

SCF Procedure:
 Maximum # iterations   MaxIter         ....   125
 SCF integral mode      SCFMode         .... Direct
   Integral package                     .... SHARK and LIBINT hybrid scheme
 Reset frequency        DirectResetFreq ....    20
 Integral Threshold     Thresh          ....  2.500e-11 Eh
 Primitive CutOff       TCut            ....  2.500e-12 Eh

Convergence Tolerance:
 Convergence Check Mode ConvCheckMode   .... Total+1el-Energy
 Convergence forced     ConvForced      .... 1
 Energy Change          TolE            ....  1.000e-08 Eh
 1-El. energy change                    ....  1.000e-05 Eh
 Orbital Gradient       TolG            ....  1.000e-05
 Orbital Rotation angle TolX            ....  1.000e-05
 DIIS Error             TolErr          ....  5.000e-07

------------------------------
INITIAL GUESS: MODEL POTENTIAL
------------------------------
Loading Hartree-Fock densities                     ... done
Calculating cut-offs                               ... done
Initializing the effective Hamiltonian             ... done
Setting up the integral package (SHARK)            ... done
Starting the Coulomb interaction                   ... done (   3.5 sec)
Making the grid                                    ... done (   1.8 sec)
Mapping shells                                     ... done
Starting the XC term evaluation                    ... done (   6.1 sec)
  promolecular density results
     # of electrons  =    209.992473701
     EX              =   -178.372332091
     EC              =     -7.137356798
     EX+EC           =   -185.509688890
Transforming the Hamiltonian                       ... done (   0.5 sec)
Diagonalizing the Hamiltonian                      ... done (   0.4 sec)
Back transforming the eigenvectors                 ... done (   0.2 sec)
Now organizing SCF variables                       ... done
                      ------------------
                      INITIAL GUESS DONE (  12.6 sec)
                      ------------------
             **** ENERGY FILE WAS UPDATED (tddft.en.tmp) ****
Finished Guess after  13.6 sec
Maximum memory used throughout the entire GUESS-calculation: 121.3 MB


           ************************************************************
           *        Program running with 4 parallel MPI-processes     *
           *              working on a common directory               *
           ************************************************************

-------------------------------------------------------------------------------------------
                                      ORCA LEAN-SCF
                              memory conserving SCF solver
-------------------------------------------------------------------------------------------

--------------------
CPCM SOLVATION MODEL
--------------------
CPCM parameters:
  Epsilon                                         ...       8.9990
  Refrac                                          ...       1.4242
  Rsolv                                           ...       1.3000
  Surface type                                    ... GAUSSIAN VDW
  Discretization scheme                           ... Constant charge density
    Threshold for H atoms                         ...       5.0000 (charges/Ang^2)
    Threshold for non-H atoms                     ...       5.0000 (charges/Ang^2)
  Epsilon function type                           ...         CPCM
Solvent:                                          ... DICHLOROMETHANE
Radii:
  Scheme                                          ... Element-dependent radii
  Radius for N  used is    3.5149 Bohr (=   1.8600 Ang.)
  Radius for C  used is    3.8550 Bohr (=   2.0400 Ang.)
  Radius for H  used is    2.4944 Bohr (=   1.3200 Ang.)
  Radius for Mg used is    3.9231 Bohr (=   2.0760 Ang.)
Calculating surface                               ...        done! (  0.0s)
Cavity surface points                             ...         4266
Cavity Volume                                     ...    3053.5298
Cavity Surface-area                               ...    1451.2358
Calculating surface distance matrix               ...        done! (  0.6s)
Performing Cholesky decomposition & store         ...        done! (  1.4s)
Overall time for CPCM initialization              ...                 2.1s

----------------------------------------D-I-I-S--------------------------------------------
Iteration    Energy (Eh)           Delta-E    RMSDP     MaxDP     DIISErr   Damp  Time(sec)
-------------------------------------------------------------------------------------------
               ***  Starting incremental Fock matrix formation  ***
    1    -1415.2897486179767839     0.00e+00  2.09e-03  5.30e-02  2.36e-01  0.700 248.5
    2    -1415.5891368598063309    -2.99e-01  1.70e-03  4.11e-02  1.26e-01  0.700 117.0
                               ***Turning on AO-DIIS***
    3    -1415.7380136868391673    -1.49e-01  1.13e-03  2.94e-02  5.42e-02  0.700  97.7
    4    -1415.8261436575853622    -8.81e-02  2.56e-03  6.81e-02  3.71e-02  0.000  98.7
    5    -1416.0140406092855301    -1.88e-01  2.12e-04  4.21e-03  5.30e-03  0.000 101.6
                              *** Initializing SOSCF ***
---------------------------------------S-O-S-C-F--------------------------------------
Iteration    Energy (Eh)           Delta-E    RMSDP     MaxDP     MaxGrad    Time(sec)
--------------------------------------------------------------------------------------
    6    -1416.0145914540767080    -5.51e-04  8.51e-05  1.91e-03  2.30e-03    94.5
               *** Restarting incremental Fock matrix formation ***
    7    -1416.0146727931501118    -8.13e-05  6.39e-05  1.18e-03  1.02e-03   203.4
    8    -1416.0147156455864206    -4.29e-05  6.18e-05  1.41e-03  4.02e-04   130.5
    9    -1416.0147270202428444    -1.14e-05  2.55e-05  4.75e-04  3.23e-04   132.5
   10    -1416.0147326378132675    -5.62e-06  8.84e-06  2.78e-04  9.00e-05   135.7
   11    -1416.0147331100956762    -4.72e-07  2.48e-06  5.05e-05  3.62e-05   120.0
   12    -1416.0147332923729664    -1.82e-07  1.56e-06  3.55e-05  1.99e-05    93.6
   13    -1416.0147332872797961     5.09e-09  9.66e-07  1.97e-05  5.30e-06    79.7
                 **** Energy Check signals convergence ****

               *****************************************************
               *                     SUCCESS                       *
               *           SCF CONVERGED AFTER  13 CYCLES          *
               *****************************************************

Recomputing exchange energy using gridx3       ... done (  280.280 sec)
Old exchange energy                            :    -98.105498080 Eh
New exchange energy                            :    -98.105489883 Eh
Exchange energy change after final integration :      0.000008197 Eh
Total energy after final integration           :  -1416.014725142 Eh
             **** ENERGY FILE WAS UPDATED (tddft.en.tmp) ****

----------------
TOTAL SCF ENERGY
----------------

Total Energy       :      -1416.01472514247939 Eh          -38531.71959 eV

Components:
Nuclear Repulsion  :       3002.84514217915557 Eh           81711.57045 eV
Electronic Energy  :      -4418.83093195145557 Eh         -120242.50267 eV
One Electron Energy:      -7906.55068709162515 Eh         -215148.18212 eV
Two Electron Energy:       3487.71975514016958 Eh           94905.67945 eV
CPCM Dielectric    :         -0.02894356735651 Eh              -0.78759 eV

Virial components:
Potential Energy   :      -2825.23231203982277 Eh          -76878.47964 eV
Kinetic Energy     :       1409.21758689734338 Eh           38346.76005 eV
Virial Ratio       :          2.00482334190854

DFT components:
N(Alpha)           :      105.000000647867 electrons
N(Beta)            :      105.000000647867 electrons
N(Total)           :      210.000001295735 electrons
E(XC)              :      -91.388695333929 Eh       

CPCM Solvation Model Properties:
Surface-charge          :         -0.03829206615418
Corrected charge        :          0.00000000000000
Outlying charge corr.   :          0.00006569582033 Eh               0.00179 eV
Free-energy (cav+disp)  :  This term is not implemented in the current solvation scheme

---------------
SCF CONVERGENCE
---------------

  Last Energy change         ...   -5.0932e-09  Tolerance :   1.0000e-08
  Last MAX-Density change    ...    1.9695e-05  Tolerance :   1.0000e-07
  Last RMS-Density change    ...    9.6589e-07  Tolerance :   5.0000e-09
  Last DIIS Error            ...    2.2963e-03  Tolerance :   5.0000e-07
  Last Orbital Gradient      ...    5.2962e-06  Tolerance :   1.0000e-05
  Last Orbital Rotation      ...    2.1217e-05  Tolerance :   1.0000e-05


----------------
ORBITAL ENERGIES
----------------

  NO   OCC          E(Eh)            E(eV) 
   0   2.0000     -47.487071     -1292.1889 
   1   2.0000     -14.815026      -403.1373 
   2   2.0000     -14.759191      -401.6180 
   3   2.0000     -14.749224      -401.3468 
   4   2.0000     -14.730966      -400.8500 
   5   2.0000     -14.729180      -400.8014 
   6   2.0000     -14.729085      -400.7988 
   7   2.0000     -10.610451      -288.7251 
   8   2.0000     -10.581932      -287.9490 
   9   2.0000     -10.581871      -287.9474 
  10   2.0000     -10.577332      -287.8238 
  11   2.0000     -10.574056      -287.7347 
  12   2.0000     -10.573996      -287.7331 
  13   2.0000     -10.565350      -287.4978 
  14   2.0000     -10.565229      -287.4945 
  15   2.0000     -10.564314      -287.4696 
  16   2.0000     -10.563332      -287.4429 
  17   2.0000     -10.563235      -287.4402 
  18   2.0000     -10.548394      -287.0364 
  19   2.0000     -10.547778      -287.0196 
  20   2.0000     -10.538442      -286.7656 
  21   2.0000     -10.538037      -286.7546 
  22   2.0000     -10.537782      -286.7476 
  23   2.0000     -10.537419      -286.7378 
  24   2.0000     -10.533385      -286.6280 
  25   2.0000     -10.533057      -286.6190 
  26   2.0000     -10.530914      -286.5607 
  27   2.0000     -10.529970      -286.5351 
  28   2.0000     -10.528479      -286.4945 
  29   2.0000     -10.528210      -286.4872 
  30   2.0000      -3.241295       -88.2001 
  31   2.0000      -1.935154       -52.6582 
  32   2.0000      -1.933815       -52.6218 
  33   2.0000      -1.933757       -52.6202 
  34   2.0000      -1.147596       -31.2277 
  35   2.0000      -1.069176       -29.0938 
  36   2.0000      -1.059943       -28.8425 
  37   2.0000      -1.059255       -28.8238 
  38   2.0000      -1.049233       -28.5511 
  39   2.0000      -0.993711       -27.0402 
  40   2.0000      -0.910863       -24.7858 
  41   2.0000      -0.883526       -24.0420 
  42   2.0000      -0.880383       -23.9565 
  43   2.0000      -0.864941       -23.5362 
  44   2.0000      -0.858667       -23.3655 
  45   2.0000      -0.857533       -23.3347 
  46   2.0000      -0.855492       -23.2791 
  47   2.0000      -0.851142       -23.1607 
  48   2.0000      -0.824849       -22.4453 
  49   2.0000      -0.805484       -21.9183 
  50   2.0000      -0.740096       -20.1390 
  51   2.0000      -0.734946       -19.9989 
  52   2.0000      -0.712334       -19.3836 
  53   2.0000      -0.689604       -18.7651 
  54   2.0000      -0.686453       -18.6793 
  55   2.0000      -0.656599       -17.8670 
  56   2.0000      -0.654774       -17.8173 
  57   2.0000      -0.646640       -17.5960 
  58   2.0000      -0.644521       -17.5383 
  59   2.0000      -0.642317       -17.4783 
  60   2.0000      -0.625278       -17.0147 
  61   2.0000      -0.608792       -16.5661 
  62   2.0000      -0.593854       -16.1596 
  63   2.0000      -0.586059       -15.9475 
  64   2.0000      -0.571837       -15.5605 
  65   2.0000      -0.566354       -15.4113 
  66   2.0000      -0.557340       -15.1660 
  67   2.0000      -0.544771       -14.8240 
  68   2.0000      -0.529747       -14.4151 
  69   2.0000      -0.525361       -14.2958 
  70   2.0000      -0.514209       -13.9923 
  71   2.0000      -0.504685       -13.7332 
  72   2.0000      -0.497645       -13.5416 
  73   2.0000      -0.495952       -13.4955 
  74   2.0000      -0.493683       -13.4338 
  75   2.0000      -0.481729       -13.1085 
  76   2.0000      -0.481271       -13.0961 
  77   2.0000      -0.477825       -13.0023 
  78   2.0000      -0.469767       -12.7830 
  79   2.0000      -0.467063       -12.7094 
  80   2.0000      -0.466674       -12.6988 
  81   2.0000      -0.446154       -12.1405 
  82   2.0000      -0.443277       -12.0622 
  83   2.0000      -0.438019       -11.9191 
  84   2.0000      -0.434424       -11.8213 
  85   2.0000      -0.432017       -11.7558 
  86   2.0000      -0.428480       -11.6595 
  87   2.0000      -0.425556       -11.5800 
  88   2.0000      -0.422796       -11.5049 
  89   2.0000      -0.416052       -11.3213 
  90   2.0000      -0.412069       -11.2130 
  91   2.0000      -0.389921       -10.6103 
  92   2.0000      -0.376785       -10.2529 
  93   2.0000      -0.374597       -10.1933 
  94   2.0000      -0.370431       -10.0799 
  95   2.0000      -0.361652        -9.8411 
  96   2.0000      -0.339247        -9.2314 
  97   2.0000      -0.331668        -9.0251 
  98   2.0000      -0.322762        -8.7828 
  99   2.0000      -0.310046        -8.4368 
 100   2.0000      -0.303578        -8.2608 
 101   2.0000      -0.300469        -8.1762 
 102   2.0000      -0.298241        -8.1156 
 103   2.0000      -0.231157        -6.2901 
 104   2.0000      -0.217711        -5.9242 
 105   0.0000      -0.068846        -1.8734 
 106   0.0000      -0.043925        -1.1953 
 107   0.0000       0.029918         0.8141 
 108   0.0000       0.034997         0.9523 
 109   0.0000       0.044462         1.2099 
 110   0.0000       0.064844         1.7645 
 111   0.0000       0.070392         1.9155 
 112   0.0000       0.074334         2.0227 
 113   0.0000       0.077929         2.1206 
 114   0.0000       0.084659         2.3037 
 115   0.0000       0.090612         2.4657 
*Only the first 10 virtual orbitals were printed.

                    ********************************
                    * MULLIKEN POPULATION ANALYSIS *
                    ********************************

-----------------------
MULLIKEN ATOMIC CHARGES
-----------------------
   0 N :   -0.342866
   1 N :   -0.422638
   2 N :   -0.406438
   3 N :   -0.367283
   4 C :   -0.311690
   5 C :   -0.311220
   6 C :    0.165871
   7 C :    0.165496
   8 C :   -0.298299
   9 C :   -0.300446
  10 C :    0.192411
  11 C :    0.193919
  12 C :    0.161963
  13 C :    0.166191
  14 C :   -0.239762
  15 C :   -0.239962
  16 C :   -0.230972
  17 C :   -0.234576
  18 C :   -0.239507
  19 C :   -0.240764
  20 C :    0.175227
  21 C :    0.172662
  22 C :   -0.251273
  23 C :   -0.249685
  24 H :    0.167301
  25 H :    0.169935
  26 H :    0.166588
  27 H :    0.171188
  28 H :    0.175792
  29 H :    0.175311
  30 H :    0.173430
  31 H :    0.173487
  32 H :    0.174719
  33 H :    0.175022
  34 H :    0.180694
  35 H :    0.180679
  36 H :    0.171829
  37 H :    0.171787
  38 Mg:    0.671741
  39 N :   -0.279234
  40 C :    0.051732
  41 N :   -0.254659
  42 C :   -0.094224
  43 C :   -0.151413
  44 H :    0.221425
  45 H :    0.204211
  46 H :    0.194657
  47 H :    0.301644
Sum of atomic charges:   -0.0000000

--------------------------------
MULLIKEN REDUCED ORBITAL CHARGES
--------------------------------
  0 N s       :     3.651503  s :     3.651503
      pz      :     1.279604  p :     3.635680
      px      :     1.216350
      py      :     1.139727
      dz2     :     0.003875  d :     0.052192
      dxz     :     0.009320
      dyz     :     0.010637
      dx2y2   :     0.015049
      dxy     :     0.013310
      f0      :     0.000674  f :     0.003490
      f+1     :     0.000350
      f-1     :     0.000390
      f+2     :     0.000417
      f-2     :     0.000129
      f+3     :     0.000844
      f-3     :     0.000686

  1 N s       :     3.691773  s :     3.691773
      pz      :     1.363472  p :     3.676039
      px      :     1.125483
      py      :     1.187084
      dz2     :     0.004239  d :     0.051281
      dxz     :     0.010024
      dyz     :     0.009378
      dx2y2   :     0.014636
      dxy     :     0.013004
      f0      :     0.000713  f :     0.003544
      f+1     :     0.000432
      f-1     :     0.000390
      f+2     :     0.000511
      f-2     :     0.000109
      f+3     :     0.000658
      f-3     :     0.000732

  2 N s       :     3.682391  s :     3.682391
      pz      :     1.359171  p :     3.669291
      px      :     1.118339
      py      :     1.191781
      dz2     :     0.004169  d :     0.051210
      dxz     :     0.010872
      dyz     :     0.008477
      dx2y2   :     0.014323
      dxy     :     0.013369
      f0      :     0.000711  f :     0.003546
      f+1     :     0.000425
      f-1     :     0.000401
      f+2     :     0.000502
      f-2     :     0.000117
      f+3     :     0.000618
      f-3     :     0.000772

  3 N s       :     3.665118  s :     3.665118
      pz      :     1.328752  p :     3.645539
      px      :     1.190679
      py      :     1.126108
      dz2     :     0.004237  d :     0.053063
      dxz     :     0.009486
      dyz     :     0.011379
      dx2y2   :     0.014650
      dxy     :     0.013311
      f0      :     0.000692  f :     0.003562
      f+1     :     0.000385
      f-1     :     0.000418
      f+2     :     0.000562
      f-2     :     0.000113
      f+3     :     0.000754
      f-3     :     0.000638

  4 C s       :     3.290330  s :     3.290330
      pz      :     1.094638  p :     2.942473
      px      :     0.889322
      py      :     0.958513
      dz2     :     0.004967  d :     0.073811
      dxz     :     0.014915
      dyz     :     0.015900
      dx2y2   :     0.022106
      dxy     :     0.015923
      f0      :     0.000553  f :     0.005076
      f+1     :     0.000327
      f-1     :     0.000879
      f+2     :     0.000464
      f-2     :     0.000697
      f+3     :     0.001006
      f-3     :     0.001149

  5 C s       :     3.291585  s :     3.291585
      pz      :     1.093844  p :     2.940640
      px      :     0.955326
      py      :     0.891470
      dz2     :     0.004371  d :     0.073917
      dxz     :     0.016293
      dyz     :     0.015296
      dx2y2   :     0.020315
      dxy     :     0.017640
      f0      :     0.000487  f :     0.005078
      f+1     :     0.000975
      f-1     :     0.000311
      f+2     :     0.000462
      f-2     :     0.000681
      f+3     :     0.000824
      f-3     :     0.001338

  6 C s       :     3.165131  s :     3.165131
      pz      :     0.859652  p :     2.525821
      px      :     0.903545
      py      :     0.762624
      dz2     :     0.002044  d :     0.130641
      dxz     :     0.025509
      dyz     :     0.039208
      dx2y2   :     0.032250
      dxy     :     0.031629
      f0      :     0.001752  f :     0.012537
      f+1     :     0.000909
      f-1     :     0.001173
      f+2     :     0.001536
      f-2     :     0.000969
      f+3     :     0.004609
      f-3     :     0.001590

  7 C s       :     3.164074  s :     3.164074
      pz      :     0.859588  p :     2.526895
      px      :     0.767866
      py      :     0.899442
      dz2     :     0.001383  d :     0.130983
      dxz     :     0.033701
      dyz     :     0.031551
      dx2y2   :     0.036333
      dxy     :     0.028014
      f0      :     0.001767  f :     0.012553
      f+1     :     0.001134
      f-1     :     0.000923
      f+2     :     0.001257
      f-2     :     0.001258
      f+3     :     0.003138
      f-3     :     0.003077

  8 C s       :     3.162723  s :     3.162723
      pz      :     1.110189  p :     3.077872
      px      :     0.898429
      py      :     1.069254
      dz2     :     0.003751  d :     0.050985
      dxz     :     0.021503
      dyz     :     0.003229
      dx2y2   :     0.012870
      dxy     :     0.009632
      f0      :     0.001324  f :     0.006720
      f+1     :     0.000892
      f-1     :     0.000755
      f+2     :     0.000412
      f-2     :     0.000621
      f+3     :     0.001693
      f-3     :     0.001024

  9 C s       :     3.166194  s :     3.166194
      pz      :     1.111635  p :     3.076841
      px      :     1.063770
      py      :     0.901435
      dz2     :     0.003640  d :     0.050693
      dxz     :     0.003097
      dyz     :     0.021706
      dx2y2   :     0.012563
      dxy     :     0.009687
      f0      :     0.001332  f :     0.006718
      f+1     :     0.000773
      f-1     :     0.000868
      f+2     :     0.000444
      f-2     :     0.000578
      f+3     :     0.001141
      f-3     :     0.001581

 10 C s       :     3.156511  s :     3.156511
      pz      :     0.888363  p :     2.512895
      px      :     0.860889
      py      :     0.763643
      dz2     :     0.002599  d :     0.125230
      dxz     :     0.033185
      dyz     :     0.035560
      dx2y2   :     0.029115
      dxy     :     0.024771
      f0      :     0.001916  f :     0.012953
      f+1     :     0.001045
      f-1     :     0.001168
      f+2     :     0.001601
      f-2     :     0.000994
      f+3     :     0.003434
      f-3     :     0.002795

 11 C s       :     3.155093  s :     3.155093
      pz      :     0.884305  p :     2.512197
      px      :     0.761115
      py      :     0.866777
      dz2     :     0.002548  d :     0.125822
      dxz     :     0.038775
      dyz     :     0.030391
      dx2y2   :     0.026841
      dxy     :     0.027266
      f0      :     0.001916  f :     0.012969
      f+1     :     0.001236
      f-1     :     0.000979
      f+2     :     0.002047
      f-2     :     0.000555
      f+3     :     0.001577
      f-3     :     0.004661

 12 C s       :     3.145594  s :     3.145594
      pz      :     0.961918  p :     2.564974
      px      :     0.745341
      py      :     0.857715
      dz2     :     0.002630  d :     0.114731
      dxz     :     0.036672
      dyz     :     0.026403
      dx2y2   :     0.025546
      dxy     :     0.023479
      f0      :     0.002037  f :     0.012738
      f+1     :     0.001209
      f-1     :     0.000987
      f+2     :     0.001983
      f-2     :     0.000456
      f+3     :     0.001473
      f-3     :     0.004594

 13 C s       :     3.143999  s :     3.143999
      pz      :     0.957147  p :     2.561771
      px      :     0.847710
      py      :     0.756914
      dz2     :     0.002751  d :     0.115285
      dxz     :     0.028681
      dyz     :     0.034664
      dx2y2   :     0.027141
      dxy     :     0.022048
      f0      :     0.002025  f :     0.012753
      f+1     :     0.001038
      f-1     :     0.001166
      f+2     :     0.001483
      f-2     :     0.000960
      f+3     :     0.003379
      f-3     :     0.002700

 14 C s       :     3.239582  s :     3.239582
      pz      :     1.020877  p :     2.929501
      px      :     0.894985
      py      :     1.013639
      dz2     :     0.005135  d :     0.063802
      dxz     :     0.019291
      dyz     :     0.007220
      dx2y2   :     0.017741
      dxy     :     0.014416
      f0      :     0.001291  f :     0.006876
      f+1     :     0.000577
      f-1     :     0.000986
      f+2     :     0.000060
      f-2     :     0.001033
      f+3     :     0.001841
      f-3     :     0.001088

 15 C s       :     3.240401  s :     3.240401
      pz      :     1.020256  p :     2.928836
      px      :     1.016248
      py      :     0.892333
      dz2     :     0.005168  d :     0.063853
      dxz     :     0.009098
      dyz     :     0.017406
      dx2y2   :     0.021344
      dxy     :     0.010837
      f0      :     0.001292  f :     0.006872
      f+1     :     0.000931
      f-1     :     0.000629
      f+2     :     0.000344
      f-2     :     0.000749
      f+3     :     0.001660
      f-3     :     0.001267

 16 C s       :     3.255388  s :     3.255388
      pz      :     0.980594  p :     2.901547
      px      :     1.023223
      py      :     0.897730
      dz2     :     0.005168  d :     0.067162
      dxz     :     0.009721
      dyz     :     0.021027
      dx2y2   :     0.020305
      dxy     :     0.010941
      f0      :     0.001229  f :     0.006875
      f+1     :     0.000916
      f-1     :     0.000607
      f+2     :     0.000442
      f-2     :     0.000740
      f+3     :     0.001682
      f-3     :     0.001259

 17 C s       :     3.256987  s :     3.256987
      pz      :     0.979999  p :     2.903499
      px      :     0.900739
      py      :     1.022761
      dz2     :     0.005187  d :     0.067216
      dxz     :     0.023556
      dyz     :     0.007229
      dx2y2   :     0.016817
      dxy     :     0.014427
      f0      :     0.001231  f :     0.006875
      f+1     :     0.000561
      f-1     :     0.000959
      f+2     :     0.000084
      f-2     :     0.001101
      f+3     :     0.001835
      f-3     :     0.001105

 18 C s       :     3.183290  s :     3.183290
      pz      :     0.978040  p :     2.985479
      px      :     1.078103
      py      :     0.929336
      dz2     :     0.003899  d :     0.064298
      dxz     :     0.003034
      dyz     :     0.030451
      dx2y2   :     0.015287
      dxy     :     0.011627
      f0      :     0.001097  f :     0.006440
      f+1     :     0.000674
      f-1     :     0.000818
      f+2     :     0.000403
      f-2     :     0.000631
      f+3     :     0.001143
      f-3     :     0.001673

 19 C s       :     3.181341  s :     3.181341
      pz      :     0.980008  p :     2.988918
      px      :     0.927906
      py      :     1.081004
      dz2     :     0.003897  d :     0.064068
      dxz     :     0.030212
      dyz     :     0.003162
      dx2y2   :     0.014536
      dxy     :     0.012261
      f0      :     0.001099  f :     0.006437
      f+1     :     0.000810
      f-1     :     0.000684
      f+2     :     0.000421
      f-2     :     0.000610
      f+3     :     0.001652
      f-3     :     0.001161

 20 C s       :     3.137634  s :     3.137634
      pz      :     0.953571  p :     2.557096
      px      :     0.766617
      py      :     0.836908
      dz2     :     0.002881  d :     0.117142
      dxz     :     0.034936
      dyz     :     0.027840
      dx2y2   :     0.028504
      dxy     :     0.022981
      f0      :     0.002018  f :     0.012901
      f+1     :     0.001186
      f-1     :     0.001070
      f+2     :     0.001478
      f-2     :     0.000988
      f+3     :     0.002756
      f-3     :     0.003406

 21 C s       :     3.138701  s :     3.138701
      pz      :     0.950730  p :     2.558261
      px      :     0.849341
      py      :     0.758189
      dz2     :     0.002831  d :     0.117469
      dxz     :     0.026958
      dyz     :     0.035985
      dx2y2   :     0.025524
      dxy     :     0.026170
      f0      :     0.002012  f :     0.012908
      f+1     :     0.001005
      f-1     :     0.001258
      f+2     :     0.001990
      f-2     :     0.000479
      f+3     :     0.004665
      f-3     :     0.001498

 22 C s       :     3.245608  s :     3.245608
      pz      :     1.016367  p :     2.932261
      px      :     1.017416
      py      :     0.898477
      dz2     :     0.005310  d :     0.066440
      dxz     :     0.007030
      dyz     :     0.022654
      dx2y2   :     0.017134
      dxy     :     0.014313
      f0      :     0.001279  f :     0.006963
      f+1     :     0.000992
      f-1     :     0.000580
      f+2     :     0.000060
      f-2     :     0.001141
      f+3     :     0.001077
      f-3     :     0.001835

 23 C s       :     3.244602  s :     3.244602
      pz      :     1.016765  p :     2.931709
      px      :     0.896612
      py      :     1.018332
      dz2     :     0.005268  d :     0.066410
      dxz     :     0.020487
      dyz     :     0.009168
      dx2y2   :     0.020603
      dxy     :     0.010883
      f0      :     0.001283  f :     0.006964
      f+1     :     0.000625
      f-1     :     0.000945
      f+2     :     0.000403
      f-2     :     0.000799
      f+3     :     0.001273
      f-3     :     0.001636

 24 H s       :     0.813109  s :     0.813109
      pz      :     0.010212  p :     0.019590
      px      :     0.003648
      py      :     0.005730

 25 H s       :     0.810577  s :     0.810577
      pz      :     0.007571  p :     0.019489
      px      :     0.003767
      py      :     0.008151

 26 H s       :     0.813842  s :     0.813842
      pz      :     0.009635  p :     0.019570
      px      :     0.006396
      py      :     0.003540

 27 H s       :     0.809313  s :     0.809313
      pz      :     0.008176  p :     0.019499
      px      :     0.007734
      py      :     0.003589

 28 H s       :     0.803574  s :     0.803574
      pz      :     0.004925  p :     0.020634
      px      :     0.002781
      py      :     0.012928

 29 H s       :     0.804049  s :     0.804049
      pz      :     0.004923  p :     0.020640
      px      :     0.012894
      py      :     0.002824

 30 H s       :     0.806314  s :     0.806314
      pz      :     0.004124  p :     0.020256
      px      :     0.002772
      py      :     0.013360

 31 H s       :     0.806264  s :     0.806264
      pz      :     0.004123  p :     0.020249
      px      :     0.012717
      py      :     0.003409

 32 H s       :     0.805108  s :     0.805108
      pz      :     0.003899  p :     0.020173
      px      :     0.012807
      py      :     0.003467

 33 H s       :     0.804807  s :     0.804807
      pz      :     0.003898  p :     0.020172
      px      :     0.002799
      py      :     0.013474

 34 H s       :     0.798842  s :     0.798842
      pz      :     0.004174  p :     0.020464
      px      :     0.013415
      py      :     0.002875

 35 H s       :     0.798851  s :     0.798851
      pz      :     0.004188  p :     0.020470
      px      :     0.002855
      py      :     0.013427

 36 H s       :     0.807997  s :     0.807997
      pz      :     0.004098  p :     0.020174
      px      :     0.013283
      py      :     0.002793

 37 H s       :     0.808038  s :     0.808038
      pz      :     0.004109  p :     0.020174
      px      :     0.003432
      py      :     0.012633

 38 Mgs       :     4.519811  s :     4.519811
      pz      :     2.196786  p :     6.549486
      px      :     2.175516
      py      :     2.177184
      dz2     :     0.031736  d :     0.258962
      dxz     :     0.043906
      dyz     :     0.045132
      dx2y2   :     0.043956
      dxy     :     0.094233

 39 N s       :     3.635985  s :     3.635985
      pz      :     1.316157  p :     3.582638
      px      :     1.159224
      py      :     1.107258
      dz2     :     0.011224  d :     0.056774
      dxz     :     0.011316
      dyz     :     0.012698
      dx2y2   :     0.015824
      dxy     :     0.005713
      f0      :     0.000277  f :     0.003837
      f+1     :     0.000397
      f-1     :     0.000526
      f+2     :     0.000788
      f-2     :     0.000653
      f+3     :     0.000534
      f-3     :     0.000661

 40 C s       :     3.156895  s :     3.156895
      pz      :     0.756869  p :     2.651227
      px      :     0.945325
      py      :     0.949034
      dz2     :     0.035774  d :     0.126099
      dxz     :     0.033173
      dyz     :     0.030559
      dx2y2   :     0.016618
      dxy     :     0.009975
      f0      :     0.001633  f :     0.014048
      f+1     :     0.002855
      f-1     :     0.003253
      f+2     :     0.001612
      f-2     :     0.001534
      f+3     :     0.001583
      f-3     :     0.001578

 41 N s       :     3.475592  s :     3.475592
      pz      :     1.118343  p :     3.716563
      px      :     1.335578
      py      :     1.262642
      dz2     :     0.010353  d :     0.057759
      dxz     :     0.012477
      dyz     :     0.014311
      dx2y2   :     0.013976
      dxy     :     0.006642
      f0      :     0.000837  f :     0.004744
      f+1     :     0.000805
      f-1     :     0.000800
      f+2     :     0.000062
      f-2     :     0.000738
      f+3     :     0.000706
      f-3     :     0.000796

 42 C s       :     3.184494  s :     3.184494
      pz      :     1.017615  p :     2.820565
      px      :     0.931213
      py      :     0.871738
      dz2     :     0.017158  d :     0.079345
      dxz     :     0.013141
      dyz     :     0.013432
      dx2y2   :     0.025310
      dxy     :     0.010303
      f0      :     0.001852  f :     0.009820
      f+1     :     0.001408
      f-1     :     0.001294
      f+2     :     0.000242
      f-2     :     0.001329
      f+3     :     0.001534
      f-3     :     0.002161

 43 C s       :     3.188070  s :     3.188070
      pz      :     0.882073  p :     2.858706
      px      :     0.996587
      py      :     0.980047
      dz2     :     0.022995  d :     0.094192
      dxz     :     0.024061
      dyz     :     0.023509
      dx2y2   :     0.012879
      dxy     :     0.010749
      f0      :     0.001130  f :     0.010444
      f+1     :     0.001683
      f-1     :     0.001919
      f+2     :     0.001539
      f-2     :     0.001527
      f+3     :     0.001417
      f-3     :     0.001230

 44 H s       :     0.757680  s :     0.757680
      pz      :     0.003737  p :     0.020895
      px      :     0.007628
      py      :     0.009531

 45 H s       :     0.775187  s :     0.775187
      pz      :     0.011428  p :     0.020602
      px      :     0.004532
      py      :     0.004642

 46 H s       :     0.784641  s :     0.784641
      pz      :     0.003728  p :     0.020702
      px      :     0.007529
      py      :     0.009446

 47 H s       :     0.662523  s :     0.662523
      pz      :     0.014703  p :     0.035832
      px      :     0.010271
      py      :     0.010858



                     *******************************
                     * LOEWDIN POPULATION ANALYSIS *
                     *******************************

----------------------
LOEWDIN ATOMIC CHARGES
----------------------
   0 N :    0.202244
   1 N :    0.177828
   2 N :    0.179121
   3 N :    0.188660
   4 C :   -0.193846
   5 C :   -0.193637
   6 C :   -0.193746
   7 C :   -0.193235
   8 C :   -0.143834
   9 C :   -0.143320
  10 C :   -0.210885
  11 C :   -0.207861
  12 C :   -0.226025
  13 C :   -0.222809
  14 C :   -0.130208
  15 C :   -0.128760
  16 C :   -0.115806
  17 C :   -0.114494
  18 C :   -0.079477
  19 C :   -0.079602
  20 C :   -0.225654
  21 C :   -0.224989
  22 C :   -0.134232
  23 C :   -0.134337
  24 H :    0.152753
  25 H :    0.149633
  26 H :    0.152595
  27 H :    0.149866
[...]
  0-1A  ->  1-1A    2.227861   17968.9   556.5   0.222705857   0.02735   0.10113  -0.13084  -0.00173
  0-1A  ->  2-1A    2.559288   20642.1   484.4   0.018549782   0.00262  -0.03965  -0.03232   0.00065
  0-1A  ->  3-1A    3.347538   26999.7   370.4   1.401478352   0.25861   0.40165   0.31185  -0.00622
  0-1A  ->  4-1A    3.507838   28292.6   353.4   1.083083342   0.20943   0.27949  -0.36231  -0.00712
  0-1A  ->  5-1A    4.107318   33127.8   301.9   0.000784534   0.00018  -0.00681   0.01141  -0.00103
  0-1A  ->  6-1A    4.204606   33912.4   294.9   0.028401985   0.00658  -0.06358  -0.05036   0.00193
  0-1A  ->  7-1A    4.560827   36785.6   271.8   0.161603189   0.04063  -0.16043  -0.12157  -0.01055
  0-1A  ->  8-1A    4.756849   38366.6   260.6   0.073638693   0.01931  -0.08111   0.11280   0.00255
  0-1A  ->  9-1A    4.833004   38980.8   256.5   0.001911279   0.00051   0.00914  -0.01987  -0.00555
  0-1A  -> 10-1A    4.836030   39005.2   256.4   0.004154461   0.00111   0.03063  -0.00178  -0.01288
  0-1A  -> 11-1A    4.893872   39471.7   253.3   0.000232460   0.00006  -0.00069   0.00775  -0.00149
  0-1A  -> 12-1A    5.000354   40330.6   248.0   0.112694865   0.03106   0.10946  -0.13804  -0.00508
  0-1A  -> 13-1A    5.068673   40881.6   244.6   0.013168640   0.00368   0.04206   0.04175  -0.01294
  0-1A  -> 14-1A    5.140747   41462.9   241.2   0.002274075   0.00064  -0.00221   0.00933  -0.02351
  0-1A  -> 15-1A    5.260562   42429.3   235.7   0.012500965   0.00363   0.04890   0.03411  -0.00840
  0-1A  -> 16-1A    5.322889   42932.0   232.9   0.001020812   0.00030   0.00865  -0.01488   0.00179
  0-1A  -> 17-1A    5.341138   43079.2   232.1   0.115553596   0.03402   0.11476  -0.14435  -0.00391
  0-1A  -> 18-1A    5.354634   43188.0   231.5   0.036034537   0.01064  -0.08373  -0.05999  -0.00525
  0-1A  -> 19-1A    5.467123   44095.3   226.8   0.139060794   0.04191   0.12625  -0.16115   0.00078
  0-1A  -> 20-1A    5.512377   44460.3   224.9   0.008067407   0.00245   0.02323  -0.04230  -0.01106
  0-1A  -> 21-1A    5.522751   44544.0   224.5   0.006739505   0.00205   0.03253  -0.03134  -0.00337
  0-1A  -> 22-1A    5.585423   45049.5   222.0   0.004783813   0.00147  -0.01315   0.00248   0.03597
  0-1A  -> 23-1A    5.767385   46517.1   215.0   0.006571417   0.00209  -0.00286  -0.04559   0.00168
  0-1A  -> 24-1A    5.819434   46936.9   213.1   0.001061237   0.00034  -0.00527   0.01592  -0.00771
  0-1A  -> 25-1A    5.865072   47305.0   211.4   0.001110548   0.00036  -0.01548   0.01073   0.00209
  0-1A  -> 26-1A    5.884161   47459.0   210.7   0.033295316   0.01080  -0.06524   0.07994   0.01233
  0-1A  -> 27-1A    6.010948   48481.6   206.3   0.006218191   0.00206  -0.01682  -0.02238   0.03573
  0-1A  -> 28-1A    6.057577   48857.7   204.7   0.005269076   0.00176  -0.03523   0.02225   0.00479
  0-1A  -> 29-1A    6.101653   49213.2   203.2   0.006580973   0.00221   0.02976  -0.03629   0.00334
  0-1A  -> 30-1A    6.184327   49880.0   200.5   0.000106546   0.00004  -0.00523  -0.00084  -0.00287

------------------------------------------------------------------------------------------
                     CD SPECTRUM VIA TRANSITION ELECTRIC DIPOLE MOMENTS    
------------------------------------------------------------------------------------------
     Transition      Energy     Energy  Wavelength    R        MX        MY        MZ   
                      (eV)      (cm-1)    (nm)   (1e40*cgs)   (au)      (au)      (au)  
------------------------------------------------------------------------------------------
  0-1A  ->  1-1A    2.227861   17968.9   556.5    1.05194  -0.07397  -0.07239   0.98658
  0-1A  ->  2-1A    2.559288   20642.1   484.4   -0.76909  -0.02432   0.03461  -0.00678
  0-1A  ->  3-1A    3.347538   26999.7   370.4  -22.36082   0.19379  -0.26883   0.00625
  0-1A  ->  4-1A    3.507838   28292.6   353.4    3.63841  -0.28951  -0.22510  -0.05447
  0-1A  ->  5-1A    4.107318   33127.8   301.9   -2.69220   0.01295  -0.01339   0.67432
  0-1A  ->  6-1A    4.204606   33912.4   294.9   -0.90147  -0.05595   0.07726   0.01671
  0-1A  ->  7-1A    4.560827   36785.6   271.8   -4.36578  -0.07051   0.10858  -0.02531
  0-1A  ->  8-1A    4.756849   38366.6   260.6   -0.12357   0.10049   0.08233  -0.46410
  0-1A  ->  9-1A    4.833004   38980.8   256.5   18.60660   0.18888  -0.26207  -0.06924
  0-1A  -> 10-1A    4.836030   39005.2   256.4    3.32496  -0.00914   0.01169  -0.12666
  0-1A  -> 11-1A    4.893872   39471.7   253.3    0.41005   0.04911   0.02434  -0.02077
  0-1A  -> 12-1A    5.000354   40330.6   248.0   -0.37198  -0.11420  -0.05904  -0.83800
  0-1A  -> 13-1A    5.068673   40881.6   244.6   -2.99817   0.01930  -0.03192   0.05400
  0-1A  -> 14-1A    5.140747   41462.9   241.2    0.58616  -0.03119   0.04926   0.01270
  0-1A  -> 15-1A    5.260562   42429.3   235.7    2.07289   0.03567  -0.02123   0.01621
  0-1A  -> 16-1A    5.322889   42932.0   232.9   -0.68749   0.17542   0.13981   0.14385
  0-1A  -> 17-1A    5.341138   43079.2   232.1   -1.83362  -0.12947  -0.08941  -0.31621
  0-1A  -> 18-1A    5.354634   43188.0   231.5   -2.19735  -0.03439   0.06201   0.02037
  0-1A  -> 19-1A    5.467123   44095.3   226.8   -1.83514  -0.10446  -0.07562   0.24714
  0-1A  -> 20-1A    5.512377   44460.3   224.9    6.82479  -0.06165  -0.10743   0.00811
  0-1A  -> 21-1A    5.522751   44544.0   224.5    0.05653  -0.02704  -0.03718   0.07231
  0-1A  -> 22-1A    5.585423   45049.5   222.0    0.07600  -0.02684   0.04676  -0.01339
  0-1A  -> 23-1A    5.767385   46517.1   215.0    4.90796   0.05180  -0.05609  -0.06449
  0-1A  -> 24-1A    5.819434   46936.9   213.1    0.11357  -0.00420   0.01733   0.03053
  0-1A  -> 25-1A    5.865072   47305.0   211.4   -1.50484   0.09884   0.07507  -0.01382
  0-1A  -> 26-1A    5.884161   47459.0   210.7    3.24547   0.13307   0.05687   0.45895
  0-1A  -> 27-1A    6.010948   48481.6   206.3   -0.39626   0.05838  -0.04962  -0.00931
  0-1A  -> 28-1A    6.057577   48857.7   204.7   -1.82881  -0.03157  -0.06778  -0.08883
  0-1A  -> 29-1A    6.101653   49213.2   203.2   -3.57625  -0.02223   0.01293  -0.17748
  0-1A  -> 30-1A    6.184327   49880.0   200.5    0.45340  -0.06906  -0.04453   0.05962

------------------------------------------------------------------------------------------
                     CD SPECTRUM VIA TRANSITION VELOCITY DIPOLE MOMENTS    
------------------------------------------------------------------------------------------
     Transition      Energy     Energy  Wavelength    R        MX        MY        MZ   
                      (eV)      (cm-1)    (nm)   (1e40*cgs)   (au)      (au)      (au)  
------------------------------------------------------------------------------------------
  0-1A  ->  1-1A    2.227861   17968.9   556.5    1.63611  -0.07397  -0.07239   0.98658
  0-1A  ->  2-1A    2.559288   20642.1   484.4   -0.79336  -0.02432   0.03461  -0.00678
  0-1A  ->  3-1A    3.347538   26999.7   370.4  -23.13123   0.19379  -0.26883   0.00625
  0-1A  ->  4-1A    3.507838   28292.6   353.4    3.75698  -0.28951  -0.22510  -0.05447
  0-1A  ->  5-1A    4.107318   33127.8   301.9   -2.92064   0.01295  -0.01339   0.67432
  0-1A  ->  6-1A    4.204606   33912.4   294.9   -0.92078  -0.05595   0.07726   0.01671
  0-1A  ->  7-1A    4.560827   36785.6   271.8   -4.56261  -0.07051   0.10858  -0.02531
  0-1A  ->  8-1A    4.756849   38366.6   260.6   -0.12310   0.10049   0.08233  -0.46410
  0-1A  ->  9-1A    4.833004   38980.8   256.5   19.42564   0.18888  -0.26207  -0.06924
  0-1A  -> 10-1A    4.836030   39005.2   256.4    3.52974  -0.00914   0.01169  -0.12666
  0-1A  -> 11-1A    4.893872   39471.7   253.3    0.48597   0.04911   0.02434  -0.02077
  0-1A  -> 12-1A    5.000354   40330.6   248.0   -0.22964  -0.11420  -0.05904  -0.83800
  0-1A  -> 13-1A    5.068673   40881.6   244.6   -3.08721   0.01930  -0.03192   0.05400
  0-1A  -> 14-1A    5.140747   41462.9   241.2    0.57408  -0.03119   0.04926   0.01270
  0-1A  -> 15-1A    5.260562   42429.3   235.7    2.15531   0.03567  -0.02123   0.01621
  0-1A  -> 16-1A    5.322889   42932.0   232.9   -0.73861   0.17542   0.13981   0.14385
  0-1A  -> 17-1A    5.341138   43079.2   232.1   -1.72219  -0.12947  -0.08941  -0.31621
  0-1A  -> 18-1A    5.354634   43188.0   231.5   -2.26844  -0.03439   0.06201   0.02037
  0-1A  -> 19-1A    5.467123   44095.3   226.8   -1.90411  -0.10446  -0.07562   0.24714
  0-1A  -> 20-1A    5.512377   44460.3   224.9    7.03532  -0.06165  -0.10743   0.00811
  0-1A  -> 21-1A    5.522751   44544.0   224.5    0.09652  -0.02704  -0.03718   0.07231
  0-1A  -> 22-1A    5.585423   45049.5   222.0   -0.02920  -0.02684   0.04676  -0.01339
  0-1A  -> 23-1A    5.767385   46517.1   215.0    5.11684   0.05180  -0.05609  -0.06449
  0-1A  -> 24-1A    5.819434   46936.9   213.1    0.13812  -0.00420   0.01733   0.03053
  0-1A  -> 25-1A    5.865072   47305.0   211.4   -1.64684   0.09884   0.07507  -0.01382
  0-1A  -> 26-1A    5.884161   47459.0   210.7    3.32093   0.13307   0.05687   0.45895
  0-1A  -> 27-1A    6.010948   48481.6   206.3   -0.43606   0.05838  -0.04962  -0.00931
  0-1A  -> 28-1A    6.057577   48857.7   204.7   -1.74004  -0.03157  -0.06778  -0.08883
  0-1A  -> 29-1A    6.101653   49213.2   203.2   -3.62475  -0.02223   0.01293  -0.17748
  0-1A  -> 30-1A    6.184327   49880.0   200.5    0.47264  -0.06906  -0.04453   0.05962

Total run time:     9232.176 sec

           *** ORCA-CIS/TD-DFT FINISHED WITHOUT ERROR ***
-----------------------
CIS/TD-DFT TOTAL ENERGY
-----------------------

    E(SCF)  =  -1416.014725142 Eh
    DE(CIS) =      0.081872378 Eh (Root  1)
    ----------------------------- ---------
    E(tot)  =  -1415.932852764 Eh


Maximum memory used throughout the entire CIS-calculation: 2665.4 MB
=> NOW LEAVING ORCA_CIS

-------------------------   --------------------
FINAL SINGLE POINT ENERGY     -1415.932852764144
-------------------------   --------------------



           ************************************************************
           *        Program running with 4 parallel MPI-processes     *
           *              working on a common directory               *
           ************************************************************

------------------------------------------------------------------------------
                              ORCA PROPERTY CALCULATIONS
------------------------------------------------------------------------------

GBWName                                 ... tddft.gbw
Number of atoms                         ...     48
Number of basis functions               ...   1039
Max core memory                         ...   3000 MB

Electric properties:
Dipole moment                           ... YES
Quadrupole moment                       ...  NO
Static polarizability (Dipole/Dipole)   ...  NO
Static polarizability (Dipole/Quad.)    ...  NO
Static polarizability (Quad./Quad.)     ...  NO
Static polarizability (Velocity)        ...  NO
Static hyperpolarizability              ...  NO

Atomic electric properties:
Dipole moment                           ...  NO
Quadrupole moment                       ...  NO
Static polarizability                   ...  NO

Choice of electric origin               ... Center of mass
Position of electric origin             ...     0.103281     0.078834     1.097617

General magnetic properties:
Magnetizability                         ...  NO

EPR properties:
g-Tensor (aka g-matrix)                 ...  NO
Zero-Field splitting spin-orbit         ...  NO
Zero-field splitting spin-spin          ...  NO
Hyperfine couplings                     ...  NO (   0 nuclei)
Quadrupole couplings                    ...  NO (   0 nuclei)
Contact density                         ...  NO (   0 nuclei)

NMR properties:
Chemical shifts                         ...  NO (   0 nuclei)
Spin-rotation constants                 ...  NO (   0 nuclei)
Spin-spin couplings                     ...  NO (   0 nuclei,    0 pairs)

Choice of magnetic origin               ... GIAO
Position of magnetic origin             ...     0.000000     0.000000     0.000000

Properties with geometric perturbations:
SCF Hessian                             ...  NO
IR spectrum                             ...  NO
VCD spectrum                            ...  NO
X-ray spectroscopy properties:
SCF XES/XAS/RIXS spectra                ...  NO

SCF SOC stabilization energy            ...  NO
Diagonal Born-Oppenheimer correction    ...  NO

-------------
DIPOLE MOMENT
-------------

Method             : SCF
Type of density    : Electron Density
Multiplicity       :   1
Irrep              :   0
Energy             : -1416.0147251424793922 Eh
Basis              : AO
                                X                 Y                 Z
Electronic contribution:     -5.697156372      -3.799933741      -1.298531263
Nuclear contribution   :      6.342772600       5.187774044       4.341567363
                        -----------------------------------------
Total Dipole Moment    :      0.645616228       1.387840303       3.043036100
                        -----------------------------------------
Magnitude (a.u.)       :      3.406316152
Magnitude (Debye)      :      8.658167582



--------------------
Rotational spectrum 
--------------------
 
Rotational constants in cm-1:             0.006132             0.006084             0.004304 
Rotational constants in MHz :           183.841401           182.386496           129.043387 

Dipole components along the rotational axes: 
x,y,z [a.u.] :     1.281090     0.857466     3.037523 
x,y,z [Debye]:     3.256273     2.179506     7.720771 

 

Dipole moment calculation done in   0.0 sec 

Maximum memory used throughout the entire PROP-calculation: 125.1 MB

--------------------------------
SUGGESTED CITATIONS FOR THIS RUN
--------------------------------

Below you find a list of papers that are relevant to this ORCA run
We neither can nor want to force you to cite these papers, but we appreciate if you do
You receive ORCA, which is the product of decades of hard work by many enthusiastic individuals, for free
The only thing we kindly ask in return is that you cite our papers,
We deeply appreciate it, if you show your appreciation for ORCA by not just citing the generic ORCA reference.

Please note that relegating all ORCA citations to the supporting information does *not* help us.
SI sections are not indexed - citations you put there will not count into any citation statistics
But we need these citations in order to attract the funding resources that allow us to do what we are doing

Therefore, if you are a happy ORCA user, please consider citing a few of the papers listed below in the main body of your paper

In addition to the list printed below, the program has created the file tddft.bibtex that contains the list in bibtex format
You can import this file easily into all common literature databanks and citation aid programs

It goes without saying that in many instances, there are alternative algorithms to achieve similar
results as the ones you have gotten from ORCA. It is, of course, also the case that in some instances
ORCA just re-implements algorithms worked out by others. We are fully aware of that and we are also
fully appreciative of our colleagues work. Hence this citation list should not be read as indicating
that the listed papers, which are focused on our own work, are the only ones worth citing. It simply
meant to make it easier for users to cite ORCA specific papers. It is not a substitute for doing your
own literature research and citing the relevant literature in a scientifically appropriate manner.

List of essential papers. We consider these as the minimum necessary citations

  1. Neese, F.
     Software update: the ORCA program system, version 6.0
     WIRES Comput. Molec. Sci. 2025 15(1), e70019
     doi.org/10.1002/wcms.70019

List of papers to cite with high priority. The work reported in these papers was absolutely
necessary for this run to complete.
Our perspective: the developers of density functionals and basis sets usually get cited in chemistry papers
Good! But without the algorithms to do something with them, the functionals or basis sets would not do anything.
Hence, in our opinion, the algorithm design and method developments papers are equally worthy of getting cited

  1. Neese, F.; Olbrich, G.
     Efficient use of the resolution of the identity approximation in time-dependent density functional calculations with hybrid density functionals
     Chem. Phys. Lett. 2002 362 , 170-178
     doi.org/10.1016/s0009-2614(02)01053-9
  2. Neese, F.
     An improvement of the resolution of the identity approximation for the formation of the Coulomb matrix
     J. Comp. Chem. 2003 24(14), 1740-1747
     doi.org/10.1002/jcc.10318
  3. Neese, F.; Wennmohs, F.; Hansen, A.; Becker, U.
     Efficient, approximate and parallel Hartree-Fock and hybrid DFT calculations. A 'chain-of-spheres' algorithm for the Hartree-Fock exchange
     Chem. Phys. 2009 356(1-3), 98-109
     doi.org/10.1016/j.chemphys.2008.10.036
  4. Garcia-Rates, M.; Neese, F.
     Effect of the Solute Cavity on the Solvation Energy and its Derivatives within the Framework of the Gaussian Charge Scheme
     J. Comput. Chem. 2020 41 , 922-939
     doi.org/10.1002/jcc.26139
  5. Helmich-Paris, B.; de Souza, B.; Neese, F.; Izsák, R.
     An improved chain of spheres for exchange algorithm
     J. Chem. Phys. 2021 155(10), 104109
     doi.org/10.1063/5.0058766
  6. Neese, F.
     The SHARK Integral Generation and Digestion System
     J. Comp. Chem. 2022 44(3), 381
     doi.org/10.1002/jcc.26942

List of suggested additional citations. These are papers that are important in the 'surrounding' of 
of this run, or papers that preceded the highly important papers. If you like your results we are grateful for a citation.

  1. Izsak, R.; Neese, F.
     An overlap fitted chain of spheres exchange method
     J. Chem. Phys. 2011 135 , 144105
     doi.org/10.1063/1.3646921
  2. Izsak, R.; Hansen, A.; Neese, F.
     The resolution of identity and chain of spheres approximations for the LPNO-CCSD singles Fock term
     Molec. Phys. 2012 110 , 2413-2417
     doi.org/10.1080/00268976.2012.687466
  3. Neese, F.
     The ORCA program system
     WIRES Comput. Molec. Sci. 2012 2(1), 73-78
     doi.org/10.1002/wcms.81
  4. Izsak, R.; Neese, F.; Klopper, W.
     Robust fitting techniques in the chain of spheres approximation to the Fock exchange: The role of the complementary space
     J. Chem. Phys. 2013 139 , 
     doi.org/10.1063/1.4819264
  5. Neese, F.
     Software update: the ORCA program system, version 4.0
     WIRES Comput. Molec. Sci. 2018 8(1), 1-6
     doi.org/10.1002/wcms.1327
  6. Neese, F.; Wennmohs, F.; Becker, U.; Riplinger, C.
     The ORCA quantum chemistry program package
     J. Chem. Phys. 2020 152(22), 224108
     doi.org/10.1063/5.0004608
  7. Neese, F.
     Software update: The ORCA program system—Version 5.0
     WIRES Comput. Molec. Sci. 2022 12(1), e1606
     doi.org/10.1002/wcms.1606

List of optional additional citations

  1. Neese, F.
     Approximate second-order SCF convergence for spin unrestricted wavefunctions
     Chem. Phys. Lett. 2000 325(1-3), 93-98
     doi.org/10.1016/s0009-2614(00)00662-x

Timings for individual modules:

Sum of individual times          ...    11310.563 sec (= 188.509 min)
Startup calculation              ...       44.772 sec (=   0.746 min)   0.4 %
SCF iterations                   ...     2027.669 sec (=  33.794 min)  17.9 %
Property integrals               ...        4.914 sec (=   0.082 min)   0.0 %
Property calculations            ...        0.584 sec (=   0.010 min)   0.0 %
CIS module                       ...     9232.624 sec (= 153.877 min)  81.6 %
                             ****ORCA TERMINATED NORMALLY****
TOTAL RUN TIME: 0 days 3 hours 8 minutes 31 seconds 160 msec
