
                                 *****************
                                 * O   R   C   A *
                                 *****************

                                            #,                                       
                                            ###                                      
                                            ####                                     
                                            #####                                    
                                            ######                                   
                                           ########,                                 
                                     ,,################,,,,,                         
                               ,,#################################,,                 
                          ,,##########################################,,             
                       ,#########################################, ''#####,          
                    ,#############################################,,   '####,        
                  ,##################################################,,,,####,       
                ,###########''''           ''''###############################       
              ,#####''   ,,,,##########,,,,          '''####'''          '####       
            ,##' ,,,,###########################,,,                        '##       
           ' ,,###''''                  '''############,,,                           
         ,,##''                                '''############,,,,        ,,,,,,###''
      ,#''                                            '''#######################'''  
     '                                                          ''''####''''         
             ,#######,   #######,   ,#######,      ##                                
            ,#'     '#,  ##    ##  ,#'     '#,    #''#        ,####,    ,#,          
            ##       ##  ##   ,#'  ##            #'  '#       #'       ,# #          
            ##       ##  #######   ##           ,######,      #####,      #          
            '#,     ,#'  ##    ##  '#,     ,#' ,#      #,     #,   #      #          
             '#######'   ##     ##  '#######'  #'      '#     '####' #    #          



                #########################################################
                #                        -***-                          #
                #          Department of theory and spectroscopy        #
                #                                                       #
                #                      Frank Neese                      #
                #                                                       #
                #     Directorship, Architecture, Infrastructure        #
                #                    SHARK, DRIVERS                     #
                #        Core code/Algorithms in most modules           #
                #                                                       #
                #        Max Planck Institute fuer Kohlenforschung      #
                #                Kaiser Wilhelm Platz 1                 #
                #                 D-45470 Muelheim/Ruhr                 #
                #                      Germany                          #
                #                                                       #
                #                  All rights reserved                  #
                #                        -***-                          #
                #########################################################


                         Program Version 6.1.1  -  RELEASE   -
                                (GIT: $487d211c$)
                          ($2025-11-21 10:33:24 +0100$)


 With contributions from (in alphabetic order):
[Max-Planck-Institut fuer Kohlenforschung]                               
  Daniel Aravena         : Magnetic Suceptibility                        
  Michael Atanasov       : Ab Initio Ligand Field Theory (pilot matlab implementation)
  Alexander A. Auer      : GIAO ZORA, VPT2 properties, NMR spectrum      
  Ute Becker             : All parallelization in ORCA, NUMFREQ, NUMCALC 
  Giovanni Bistoni       : ED, misc. LED, open-shell LED, HFLD           
  Dmytro Bykov           : pre 5.0 version of the SCF Hessian            
  Marcos Casanova-Páez   : Triplet and SCS-CIS(D). UHF-(DLPNO)-IP/EA/STEOM-CCSD. UHF-CVS-IP/STEOM-CCSD   
  Vijay G. Chilkuri      : MRCI spin determinant printing, contributions to CSF-ICE 
  Pauline Colinet        : FMM embedding                                 
  Dipayan Datta          : RHF DLPNO-CCSD density                        
  Achintya Kumar Dutta   : EOM-CC, STEOM-CC                              
  Nicolas Foglia         : Exact transition moments, OPA infrastructure, MCD improvements    
  Dmitry Ganyushin       : Spin-Orbit,Spin-Spin,Magnetic field MRCI      
  Miquel Garcia-Rates    : C-PCM and meta-GGA Hessian, CCSD/C-PCM, Gaussian charge scheme 
  Tiago L. C. Gouveia    : GS-ROHF, GS-ROCIS                             
  Yang Guo               : DLPNO-NEVPT2, F12-NEVPT2, CIM, IAO-localization        
  Andreas Hansen         : Spin unrestricted coupled pair/coupled cluster methods 
  Ingolf Harden          : AUTO-CI MPn and infrastructure                
  Benjamin Helmich-Paris : MC-RPA, TRAH-(SCF,CASSCF), AVAS, COSX integrals, SCF dyn. polar., MC-PDFT, srDFT 
  Lee Huntington         : MR-EOM, pCC                                   
  Robert Izsak           : Overlap fitted RIJCOSX, COSX-SCS-MP3, EOM     
  Riya Kayal             : Wick's Theorem for AUTO-CI, AUTO-CI UHF-CCSDT 
  Emily Kempfer          : AUTO-CI RHF CISDT and CCSDT, approximate NEVPT4
  Christian Kollmar      : KDIIS, OOCD, Brueckner-CCSD(T), CCSD density, CASPT2, CASPT2-K, improved NEVPT2 
  Axel Koslowski         : Symmetry handling                             
  Simone Kossmann        : meta-GGA functionals, TD-DFT gradient, OOMP2, (MP2 Hessian; deprecated post 5.0) 
  Lucas Lang             : DCDCAS, Hyperfine gauge corrections, ICE-SOC+SSC
  Marvin Lechner         : AUTO-CI (C++ implementation), FIC-MRCC        
  Spencer Leger          : CASSCF response                               
  Dagmar Lenk            : GEPOL surface, SMD, ORCA-2-JSON               
  Dimitrios Liakos       : Extrapolation schemes; Compound Job, Property file
  Dimitrios Manganas     : Further ROCIS development; embedding schemes. LFT, Crystal Embedding 
  Dimitrios Pantazis     : SARC Basis sets                               
  Anastasios Papadopoulos: AUTO-CI, single reference methods and gradients 
  Taras Petrenko         : pre 6.0 DFT Hessian and TD-DFT gradient,  ECA, NRVS 
  Petra Pikulova         : Analytic Raman intensities                    
  Peter Pinski           : DLPNO-MP2, DLPNO-MP2 Gradient                 
  Shashank Vittal Rao    : ES-AILFT, MagRelax                            
  Christoph Reimann      : Effective Core Potentials                     
  Marius Retegan         : Local ZFS, SOC                                
  Christoph Riplinger    : Optimizer, TS searches, QM/MM, DLPNO-CCSD(T), (RO)-DLPNO pert. Triples 
  Michael Roemelt        : Original ROCIS implementation, recursive CI coupling coefficients
  Masaaki Saitow         : Open-shell DLPNO-CCSD energy and density      
  Barbara Sandhoefer     : DKH picture change effects                    
  Yorick L. A. Schmerwitz: GMF and freeze-and-release deltaSCF, NEB S-IDPP initial path                    
  Kantharuban Sivalingam : CASSCF convergence/infrastructure, NEVPT2, NEVPT3, NEVPT4(SD), FIC-MRCI and CEPA variants
  Bernardo de Souza      : ESD, SOC TD-DFT                               
  Georgi L. Stoychev     : AutoAux, RI-MP2 NMR, DLPNO-MP2 response, X2C  
  Van Anh Tran           : RI-MP2 g-tensors                              
  Willem Van den Heuvel  : Paramagnetic NMR                              
  Zikuan Wang            : NOTCH, Electric field optimization            
  Frank Wennmohs         : Technical directorship and infrastructure     
  Hang Xu                : AUTO-CI-Response properties                   
                                                                         
[FACCTs GmbH]                                                            
  Markus Bursch, Nicolas Foglia, Miquel Garcia-Rates, Ingolf Harden, Hagen Neugebauer, Anastasios Papadopoulos, 
  Christoph Riplinger, Bernardo de Souza, Georgi L. Stoychev                                                    
                                                                 
  APM, various basis sets, CI-OPT, improved COSX, DLPNO-Multilevel,           
  DOCKER, DRACO, updates on ESD, Fragmentator, GOAT, IRC, LR-CPCM, L-BFGS, MBIS, meta-GGA TD-DFT gradient, ML-optimized integration grids, 
  MM, NACMEs, nearIR, NEB, NEB-TS, NL-DFT gradient (VV10), 2- and 3-layer-ONIOM, interface openCOSMO-RS, QMMM,   
  Crystal-QMMM, RESP, rigid body optimization, SF, symmetry and pop. for TD-DFT, various functionals, SOLVATOR                                   
                                                                         
[Other institutions]                                                     
  V. Asgeirsson          : NEB                                           
  Christoph Bannwarth    : sTDA-DFT, sTD-DFT, PBEh-3c, B97-3c, D3        
  Giovanni Bistoni       : ETS/NOCV, ADLD/ADEX, COVALED                  
  Martin Brehm           : Molecular dynamics                            
  Ronald Cardenas        : ETS/NOCV                                      
  Martina Colucci        : COVALED                                       
  Sebastian Ehlert       : rSCAN, r2SCAN, r2SCAN-3c, D4, dhf basis sets  
  Marvin Friede          : D4 for Fr, Ra, Ac-Lr                          
  Lars Goerigk           : TD-DFT with DH, B97 family of functionals     
  Stefan Grimme          : VdW corrections, initial TS optimization, DFT functionals, gCP, sTDA/sTD-DF 
  Waldemar Hujo          : DFT-NL                                        
  H. Jonsson             : NEB                                           
  Holger Kruse           : gCP                                           
  Marcel Mueller         : wB97X-3c, vDZP basis set                      
  Hagen Neugebauer       : wr2SCAN, Native XTB                           
  Gianluca Regni         : ADLD/ADEX                                     
  Tobias Risthaus        : pre 6.0 range-separated hybrid DFT and stability analysis
  Lukas Wittmann         : regularized MP2, r2SCAN double-hybrids, wr2SCAN        
                                                                         
We gratefully acknowledge several colleagues who have allowed us to      
interface, adapt or use parts of their codes:                            
  Ed Valeev, F. Pavosevic, A. Kumar             : LibInt (2-el integral package), F12 methods 
  Garnet Chan, S. Sharma, J. Yang, R. Olivares  : DMRG                   
  Ulf Ekstrom                                   : XCFun DFT Library      
  Mihaly Kallay                                 : mrcc  (arbitrary order and MRCC methods)
  Frank Weinhold                                : gennbo (NPA and NBO analysis)           
  Simon Mueller                                 : openCOSMO-RS                            
  Christopher J. Cramer and Donald G. Truhlar   : smd solvation model                     
  S Lehtola, MJT Oliveira, MAL Marques          : LibXC Library                           
  Liviu Ungur et al                             : ANISO software                          


 Your calculation uses the libint2 library for the computation of 2-el integrals
 For citations please refer to: http://libint.valeyev.net

 Your ORCA version has been built with support for libXC version: 7.0.0
 For citations please refer to: https://libxc.gitlab.io

 This ORCA versions uses:
   CBLAS   interface :  Fast vector & matrix operations
   LAPACKE interface :  Fast linear algebra routines
   SCALAPACK package :  Parallel linear algebra routines
   Shared memory     :  Shared parallel matrices
   BLAS/LAPACK       :  OpenBLAS 0.3.29  USE64BITINT DYNAMIC_ARCH NO_AFFINITY Haswell SINGLE_THREADED
        Core in use  :  Haswell
   Copyright (c) 2011-2014, The OpenBLAS Project


  ***********************************
  * Starting time: Fri Jul 10 21:51:03 2026
  * Host name:     steezy
  * Process ID:    2070080
  * Working dir.:  /home/jannes/chlorophyll-ladder/009-mgchlorin-axial-ligation/mgchlorin_imidazole/03_tddft_ch2cl2/pbe0
  ***********************************

NOTE: MaxCore=3000 MB was set to SCF,MP2,MDCI,CIPSI,MRCI,RASCI and CIS
      => If you want to overwrite this, your respective input block should be placed after the MaxCore statement


***************************************
The coordinates will be read from file: /home/jannes/chlorophyll-ladder/009-mgchlorin-axial-ligation/mgchlorin_imidazole/01_opt/mgchlorin_imidazole_opt_b3lypd4_tzvp.xyz
***************************************


================================================================================

----- Orbital basis set information -----
Your calculation utilizes the basis: def2-TZVP
   F. Weigend and R. Ahlrichs, Phys. Chem. Chem. Phys. 7, 3297 (2005).

----- AuxJ basis set information -----
Your calculation utilizes the auxiliary basis: def2/J
   H-Rn: F. Weigend, Phys. Chem. Chem. Phys. 8, 1057 (2006).
   Fr-Lr: K. Eichkorn, F. Weigend, O. Treutler, R. Ahlrichs; Theor. Chem. Acc. 97, 119 (1997).

================================================================================
                                        WARNINGS
                       Please study these warnings very carefully!
================================================================================


WARNING: CIS/ROCIS methods need fully converged wavefunctions
  ===> : Setting SCFConvForced true
         You can overwrite this default with %scf ConvForced false 


================================================================================
                                       INPUT FILE
================================================================================
NAME = tddft.inp
|  1> %pal nprocs 4 end
|  2> %maxcore 3000
|  3> ! PBE0 def2-TZVP def2/J RIJCOSX DefGrid3 TightSCF CPCM(CH2Cl2)
|  4> %tddft
|  5>   nroots 30
|  6>   tda false
|  7>   triplets false
|  8> end
|  9> * xyzfile 0 1 /home/jannes/chlorophyll-ladder/009-mgchlorin-axial-ligation/mgchlorin_imidazole/01_opt/mgchlorin_imidazole_opt_b3lypd4_tzvp.xyz
| 10> 
| 11>                          ****END OF INPUT****
================================================================================

                       ****************************
                       * Single Point Calculation *
                       ****************************

---------------------------------
CARTESIAN COORDINATES (ANGSTROEM)
---------------------------------
  N      1.686977    1.314594   -0.070141
  N     -1.244066    1.614892    0.010363
  N      1.296068   -1.605044   -0.041730
  N     -1.595971   -1.274834   -0.003516
  C      2.970609    3.301555   -0.232211
  C      3.922431    2.104910   -0.102015
  C      1.597742    2.664663   -0.109541
  C      2.979759    0.914541   -0.093658
  C      0.434405    3.400412   -0.067464
  C      3.423560   -0.389267   -0.088962
  C     -0.889070    2.920137   -0.019573
  C      2.647232   -1.563978   -0.082176
  C     -2.620848    1.565510    0.027377
  C      0.926464   -2.931741   -0.066724
  C     -2.069437    3.748719   -0.008343
  C      3.177401   -2.905444   -0.124641
  C     -3.141080    2.907354    0.021299
  C      2.110072   -3.750696   -0.115251
  C     -3.378288    0.405243    0.033372
  C     -0.376898   -3.398678   -0.057022
  C     -2.911256   -0.915786    0.006138
  C     -1.553694   -2.636326   -0.036770
  C     -3.735300   -2.091666   -0.021863
  C     -2.889482   -3.163600   -0.049382
  H      3.066735    3.799064   -1.200440
  H      3.128997    4.062511    0.533242
  H      4.496140    2.134826    0.827766
  H      4.642784    2.039364   -0.918402
  H      0.544588    4.477580   -0.101599
  H      4.497149   -0.531874   -0.111807
  H     -2.073111    4.827608   -0.035091
  H      4.225360   -3.159508   -0.167527
  H     -4.188580    3.167597    0.023519
  H      2.117427   -4.829413   -0.148927
  H     -4.454237    0.532723    0.041623
  H     -0.502711   -4.474509   -0.080584
  H     -4.814489   -2.097809   -0.027947
  H     -3.147034   -4.211120   -0.081508
  Mg     0.030982    0.001266    0.263024
  N      0.086343    0.074074    2.409607
  C     -0.591908    0.918226    3.154555
  N     -0.375326    0.667276    4.465350
  C      0.491190   -0.400629    4.556276
  C      0.766939   -0.755449    3.268883
  H     -1.233194    1.701213    2.785884
  H      0.818760   -0.797491    5.500144
  H      1.398114   -1.545010    2.899381
  H     -0.782140    1.170094    5.235166

----------------------------
CARTESIAN COORDINATES (A.U.)
----------------------------
  NO LB      ZA    FRAG     MASS         X           Y           Z
   0 N     7.0000    0    14.007    3.187925    2.484222   -0.132548
   1 N     7.0000    0    14.007   -2.350945    3.051704    0.019584
   2 N     7.0000    0    14.007    2.449213   -3.033094   -0.078857
   3 N     7.0000    0    14.007   -3.015948   -2.409087   -0.006645
   4 C     6.0000    0    12.011    5.613637    6.239035   -0.438816
   5 C     6.0000    0    12.011    7.412321    3.977704   -0.192780
   6 C     6.0000    0    12.011    3.019295    5.035483   -0.207002
   7 C     6.0000    0    12.011    5.630929    1.728231   -0.176987
   8 C     6.0000    0    12.011    0.820907    6.425848   -0.127488
   9 C     6.0000    0    12.011    6.469590   -0.735609   -0.168113
  10 C     6.0000    0    12.011   -1.680100    5.518259   -0.036987
  11 C     6.0000    0    12.011    5.002544   -2.955489   -0.155291
  12 C     6.0000    0    12.011   -4.952684    2.958385    0.051734
  13 C     6.0000    0    12.011    1.750763   -5.540187   -0.126089
  14 C     6.0000    0    12.011   -3.910669    7.084053   -0.015767
  15 C     6.0000    0    12.011    6.004418   -5.490494   -0.235538
  16 C     6.0000    0    12.011   -5.935782    5.494104    0.040249
  17 C     6.0000    0    12.011    3.987459   -7.087787   -0.217793
  18 C     6.0000    0    12.011   -6.384039    0.765799    0.063063
  19 C     6.0000    0    12.011   -0.712233   -6.422570   -0.107755
  20 C     6.0000    0    12.011   -5.501477   -1.730584    0.011599
  21 C     6.0000    0    12.011   -2.936056   -4.981934   -0.069486
  22 C     6.0000    0    12.011   -7.058695   -3.952677   -0.041315
  23 C     6.0000    0    12.011   -5.460329   -5.978338   -0.093318
  24 H     1.0000    0     1.008    5.795289    7.179191   -2.268502
  25 H     1.0000    0     1.008    5.912948    7.677034    1.007682
  26 H     1.0000    0     1.008    8.496473    4.034237    1.564250
  27 H     1.0000    0     1.008    8.773590    3.853840   -1.735529
  28 H     1.0000    0     1.008    1.029122    8.461399   -0.191994
  29 H     1.0000    0     1.008    8.498380   -1.005095   -0.211285
  30 H     1.0000    0     1.008   -3.917613    9.122856   -0.066312
  31 H     1.0000    0     1.008    7.984774   -5.970606   -0.316580
  32 H     1.0000    0     1.008   -7.915269    5.985892    0.044444
  33 H     1.0000    0     1.008    4.001357   -9.126268   -0.281431
  34 H     1.0000    0     1.008   -8.417288    1.006701    0.078656
  35 H     1.0000    0     1.008   -0.949986   -8.455596   -0.152281
  36 H     1.0000    0     1.008   -9.098067   -3.964284   -0.052812
  37 H     1.0000    0     1.008   -5.947032   -7.957863   -0.154028
  38 Mg   12.0000    0    24.305    0.058547    0.002392    0.497043
  39 N     7.0000    0    14.007    0.163166    0.139979    4.553497
  40 C     6.0000    0    12.011   -1.118545    1.735195    5.961246
  41 N     7.0000    0    14.007   -0.709264    1.260969    8.438289
  42 C     6.0000    0    12.011    0.928215   -0.757080    8.610113
  43 C     6.0000    0    12.011    1.449305   -1.427593    6.177293
  44 H     1.0000    0     1.008   -2.330398    3.214827    5.264558
  45 H     1.0000    0     1.008    1.547233   -1.507039   10.393766
  46 H     1.0000    0     1.008    2.642052   -2.919646    5.479036
  47 H     1.0000    0     1.008   -1.478030    2.211158    9.893029

--------------------------------
INTERNAL COORDINATES (ANGSTROEM)
--------------------------------
 N      0   0   0     0.000000000000     0.00000000     0.00000000
 N      1   0   0     2.947486350172     0.00000000     0.00000000
 N      1   2   0     2.945828126371    88.20947573     0.00000000
 N      3   1   2     2.911079671341    91.11929974     0.80715272
 C      1   2   3     2.371073823090   117.05466142   176.90212528
 C      5   1   2     1.534560609903    71.12653572   176.43333539
 C      1   2   3     1.353588294752    80.42259655   178.54766819
 C      1   2   3     1.353470340789   168.64364198   357.76596920
 C      7   1   2     1.377116749417   125.99258173     1.50888961
 C      8   1   7     1.377278543597   125.98196374   181.20281987
 C      2   1   3     1.352990322192    80.60546467   180.52233867
 C      3   1   2     1.352393820728    80.62107172   179.90284917
 C      2   1   3     1.377771680673   172.05125211   353.39051782
 C      3   1   2     1.377445050622   171.90094100    12.88565013
 C     11   2   1     1.442199392872   109.83646179   179.55494343
 C     12   3   1     1.443057439826   109.85925776   181.45151808
 C     15  11   2     1.362788822813   106.80176759   359.65838229
 C     16  12   3     1.361517385722   106.79204084     0.29156805
 C     13   2  11     1.385630030716   125.19159905   178.69666656
 C     14   3  12     1.384512915517   125.26106051   180.89130603
 C      4   3   1     1.363446139236   171.23871913     1.67942532
 C      4   3   1     1.362553852118    81.69232101   178.15836169
 C     21   4  22     1.436150364206   109.74083976     0.00000000
 C     23  21   4     1.365726298515   106.71891006   359.96199257
 H      5   1   2     1.092804505014   119.32013955   281.69849699
 H      5   1   2     1.090899211643   127.96557171    71.25187495
 H      6   5   1     1.092944859141   112.11195893   244.98233562
 H      6   5   1     1.090730038156   113.14102048   123.91365165
 H      9   7   1     1.083325722172   116.38172549   179.54988406
 H     10   8   1     1.083260292684   116.35322274   179.92679746
 H     15  11   2     1.079226072128   125.23565366   180.54529963
 H     16  12   3     1.079169192758   125.22500344   179.61585041
 H     17  15  11     1.079345565166   127.90436383   180.91093752
 H     18  16  12     1.079267751577   127.94770026   179.30461915
 H     19  13   2     1.083506306146   116.38115741   180.32684545
 H     20  14   3     1.083418999991   116.36337595   179.96740579
 H     23  21   4     1.079223838068   125.34778292   180.43565273
 H     24  23  21     1.079195358710   127.92598576   180.44323431
 Mg     3   1   2     2.067256417027    46.56842154   349.30073568
 N     39   3   1     2.148530675946    99.08201017   263.50222852
 C     40  39   3     1.314369549312   125.08046622   181.84455130
 N     41  40  39     1.352060218300   110.34113851   177.63312489
 C     42  41  40     1.378238138060   107.96786427   359.94580940
 C     43  42  41     1.363566932247   105.45482476     0.03663726
 H     41  40  39     1.077141930779   125.45699601   357.72628083
 H     43  42  41     1.075029386219   122.38035120   180.17627298
 H     44  43  42     1.076252281312   129.31909261   180.29177562
 H     42  41  40     1.005454808586   125.77750555   180.32691267

---------------------------
INTERNAL COORDINATES (A.U.)
---------------------------
 N      0   0   0     0.000000000000     0.00000000     0.00000000
 N      1   0   0     5.569941985296     0.00000000     0.00000000
 N      1   2   0     5.566808396444    88.20947573     0.00000000
 N      3   1   2     5.501143332861    91.11929974     0.80715272
 C      1   2   3     4.480680168949   117.05466142   176.90212528
 C      5   1   2     2.899899288620    71.12653572   176.43333539
 C      1   2   3     2.557911175162    80.42259655   178.54766819
 C      1   2   3     2.557688274476   168.64364198   357.76596920
 C      7   1   2     2.602373510833   125.99258173     1.50888961
 C      8   1   7     2.602679257524   125.98196374   181.20281987
 C      2   1   3     2.556781170788    80.60546467   180.52233867
 C      3   1   2     2.555653946383    80.62107172   179.90284917
 C      2   1   3     2.603611151544   172.05125211   353.39051782
 C      3   1   2     2.602993910201   171.90094100    12.88565013
 C     11   2   1     2.725361883035   109.83646179   179.55494343
 C     12   3   1     2.726983356789   109.85925776   181.45151808
 C     15  11   2     2.575297653485   106.80176759   359.65838229
 C     16  12   3     2.572894985586   106.79204084     0.29156805
 C     13   2  11     2.618461280991   125.19159905   178.69666656
 C     14   3  12     2.616350239204   125.26106051   180.89130603
 C      4   3   1     2.576539801508   171.23871913     1.67942532
 C      4   3   1     2.574853623222    81.69232101   178.15836169
 C     21   4  22     2.713930875481   109.74083976     0.00000000
 C     23  21   4     2.580848678087   106.71891006   359.96199257
 H      5   1   2     2.065101232393   119.32013955   281.69849699
 H      5   1   2     2.061500749715   127.96557171    71.25187495
 H      6   5   1     2.065366463254   112.11195893   244.98233562
 H      6   5   1     2.061181058156   113.14102048   123.91365165
 H      9   7   1     2.047188928737   116.38172549   179.54988406
 H     10   8   1     2.047065284924   116.35322274   179.92679746
 H     15  11   2     2.039441712909   125.23565366   180.54529963
 H     16  12   3     2.039334226478   125.22500344   179.61585041
 H     17  15  11     2.039667522027   127.90436383   180.91093752
 H     18  16  12     2.039520475653   127.94770026   179.30461915
 H     19  13   2     2.047530182992   116.38115741   180.32684545
 H     20  14   3     2.047365198269   116.36337595   179.96740579
 H     23  21   4     2.039437491148   125.34778292   180.43565273
 H     24  23  21     2.039383672962   127.92598576   180.44323431
 Mg     3   1   2     3.906548476773    46.56842154   349.30073568
 N     39   3   1     4.060134567867    99.08201017   263.50222852
 C     40  39   3     2.483798486965   125.08046622   181.84455130
 N     41  40  39     2.555023529158   110.34113851   177.63312489
 C     42  41  40     2.604492628258   107.96786427   359.94580940
 C     43  42  41     2.576768067218   105.45482476     0.03663726
 H     41  40  39     2.035503256535   125.45699601   357.72628083
 H     43  42  41     2.031511125870   122.38035120   180.17627298
 H     44  43  42     2.033822062687   129.31909261   180.29177562
 H     42  41  40     1.900034228263   125.77750555   180.32691267

---------------------
BASIS SET INFORMATION
---------------------
There are 4 groups of distinct atoms

 Group   1 Type N   : 11s6p2d1f contracted to 5s3p2d1f pattern {62111/411/11/1}
 Group   2 Type C   : 11s6p2d1f contracted to 5s3p2d1f pattern {62111/411/11/1}
 Group   3 Type H   : 5s1p contracted to 3s1p pattern {311/1}
 Group   4 Type Mg  : 14s8p3d contracted to 5s4p3d pattern {73211/5111/111}

Atom   0N    basis set group =>   1
Atom   1N    basis set group =>   1
Atom   2N    basis set group =>   1
Atom   3N    basis set group =>   1
Atom   4C    basis set group =>   2
Atom   5C    basis set group =>   2
Atom   6C    basis set group =>   2
Atom   7C    basis set group =>   2
Atom   8C    basis set group =>   2
Atom   9C    basis set group =>   2
Atom  10C    basis set group =>   2
Atom  11C    basis set group =>   2
Atom  12C    basis set group =>   2
Atom  13C    basis set group =>   2
Atom  14C    basis set group =>   2
Atom  15C    basis set group =>   2
Atom  16C    basis set group =>   2
Atom  17C    basis set group =>   2
Atom  18C    basis set group =>   2
Atom  19C    basis set group =>   2
Atom  20C    basis set group =>   2
Atom  21C    basis set group =>   2
Atom  22C    basis set group =>   2
Atom  23C    basis set group =>   2
Atom  24H    basis set group =>   3
Atom  25H    basis set group =>   3
Atom  26H    basis set group =>   3
Atom  27H    basis set group =>   3
Atom  28H    basis set group =>   3
Atom  29H    basis set group =>   3
Atom  30H    basis set group =>   3
Atom  31H    basis set group =>   3
Atom  32H    basis set group =>   3
Atom  33H    basis set group =>   3
Atom  34H    basis set group =>   3
Atom  35H    basis set group =>   3
Atom  36H    basis set group =>   3
Atom  37H    basis set group =>   3
Atom  38Mg   basis set group =>   4
Atom  39N    basis set group =>   1
Atom  40C    basis set group =>   2
Atom  41N    basis set group =>   1
Atom  42C    basis set group =>   2
Atom  43C    basis set group =>   2
Atom  44H    basis set group =>   3
Atom  45H    basis set group =>   3
Atom  46H    basis set group =>   3
Atom  47H    basis set group =>   3
---------------------------------
AUXILIARY/J BASIS SET INFORMATION
---------------------------------
There are 4 groups of distinct atoms

 Group   1 Type N   : 12s5p4d2f1g contracted to 6s4p3d1f1g pattern {711111/2111/211/2/1}
 Group   2 Type C   : 12s5p4d2f1g contracted to 6s4p3d1f1g pattern {711111/2111/211/2/1}
 Group   3 Type H   : 5s2p1d contracted to 3s1p1d pattern {311/2/1}
 Group   4 Type Mg  : 14s5p5d2f1g contracted to 8s4p4d1f1g pattern {71111111/2111/2111/2/1}

Atom   0N    basis set group =>   1
Atom   1N    basis set group =>   1
Atom   2N    basis set group =>   1
Atom   3N    basis set group =>   1
Atom   4C    basis set group =>   2
Atom   5C    basis set group =>   2
Atom   6C    basis set group =>   2
Atom   7C    basis set group =>   2
Atom   8C    basis set group =>   2
Atom   9C    basis set group =>   2
Atom  10C    basis set group =>   2
Atom  11C    basis set group =>   2
Atom  12C    basis set group =>   2
Atom  13C    basis set group =>   2
Atom  14C    basis set group =>   2
Atom  15C    basis set group =>   2
Atom  16C    basis set group =>   2
Atom  17C    basis set group =>   2
Atom  18C    basis set group =>   2
Atom  19C    basis set group =>   2
Atom  20C    basis set group =>   2
Atom  21C    basis set group =>   2
Atom  22C    basis set group =>   2
Atom  23C    basis set group =>   2
Atom  24H    basis set group =>   3
Atom  25H    basis set group =>   3
Atom  26H    basis set group =>   3
Atom  27H    basis set group =>   3
Atom  28H    basis set group =>   3
Atom  29H    basis set group =>   3
Atom  30H    basis set group =>   3
Atom  31H    basis set group =>   3
Atom  32H    basis set group =>   3
Atom  33H    basis set group =>   3
Atom  34H    basis set group =>   3
Atom  35H    basis set group =>   3
Atom  36H    basis set group =>   3
Atom  37H    basis set group =>   3
Atom  38Mg   basis set group =>   4
Atom  39N    basis set group =>   1
Atom  40C    basis set group =>   2
Atom  41N    basis set group =>   1
Atom  42C    basis set group =>   2
Atom  43C    basis set group =>   2
Atom  44H    basis set group =>   3
Atom  45H    basis set group =>   3
Atom  46H    basis set group =>   3
Atom  47H    basis set group =>   3


           ************************************************************
           *        Program running with 4 parallel MPI-processes     *
           *              working on a common directory               *
           ************************************************************
------------------------------------------------------------------------------
                             ORCA STARTUP CALCULATIONS
                           -- RI-GTO INTEGRALS CHOSEN --
------------------------------------------------------------------------------
------------------------------------------------------------------------------
                   ___                                                        
                  /   \      - P O W E R E D   B Y -                         
                 /     \                                                     
                 |  |  |   _    _      __       _____    __    __             
                 |  |  |  | |  | |    /  \     |  _  \  |  |  /  |          
                  \  \/   | |  | |   /    \    | | | |  |  | /  /          
                 / \  \   | |__| |  /  /\  \   | |_| |  |  |/  /          
                |  |  |   |  __  | /  /__\  \  |    /   |      \           
                |  |  |   | |  | | |   __   |  |    \   |  |\   \          
                \     /   | |  | | |  |  |  |  | |\  \  |  | \   \       
                 \___/    |_|  |_| |__|  |__|  |_| \__\ |__|  \__/        
                                                                              
                      - O R C A' S   B I G   F R I E N D -                    
                                      &                                       
                       - I N T E G R A L  F E E D E R -                       
                                                                              
 v1 FN, 2020, v2 2021, v3 2022-2024                                           
------------------------------------------------------------------------------


----------------------
SHARK INTEGRAL PACKAGE
----------------------

Number of atoms                             ...     48
Number of basis functions                   ...   1039
Number of shells                            ...    403
Maximum angular momentum                    ...      3
Integral batch strategy                     ... SHARK/LIBINT Hybrid
RI-J (if used) integral strategy            ... SPLIT-RIJ (Revised 2003 algorithm where possible)
Printlevel                                  ...      1
Contraction scheme used                     ... SEGMENTED contraction
Prescreening option                         ... SCHWARTZ
   Thresh                                   ... 2.500e-11
   Tcut                                     ... 2.500e-12
   Tpresel                                  ... 2.500e-12 
Coulomb Range Separation                    ... NOT USED
Exchange Range Separation                   ... NOT USED
Multipole approximations                    ... NOT USED
Finite Nucleus Model                        ... NOT USED
CABS basis                                  ... NOT available
Auxiliary Coulomb fitting basis             ... AVAILABLE
   # of basis functions in Aux-J            ...   1675
   # of shells in Aux-J                     ...    543
   Maximum angular momentum in Aux-J        ...      4
Auxiliary J/K fitting basis                 ... NOT available
Auxiliary Correlation fitting basis         ... NOT available
Auxiliary 'external' fitting basis          ... NOT available

Checking pre-screening integrals            ... done (  0.0 sec) Dimension = 403
   => SHARK Basis and OBASIS are compatible. Storing Pre-screening
Shell pair information
Shell pair cut-off parameter TPreSel        ...   2.5e-12
Total number of shell pairs                 ...     81406
Shell pairs after pre-screening             ...     56511
Total number of primitive shell pairs       ...    255268
Primitive shell pairs kept                  ...    113104
          la=0 lb=0:  13747 shell pairs
          la=1 lb=0:  16197 shell pairs
          la=1 lb=1:   4776 shell pairs
          la=2 lb=0:   8278 shell pairs
          la=2 lb=1:   5060 shell pairs
          la=2 lb=2:   1377 shell pairs
          la=3 lb=0:   3500 shell pairs
          la=3 lb=1:   2211 shell pairs
          la=3 lb=2:   1136 shell pairs
          la=3 lb=3:    229 shell pairs

Checking whether 4 symmetric matrices of dimension 1039 fit in memory
:Max Core in MB      =   3000.00
 MB in use           =     71.41
 MB left             =   2928.59
 MB needed           =     16.49
 Data fit in memory  = YES
Calculating RI/J V-Matrix + Cholesky decomp.... done (  0.6 sec)
Calculating Nuclear repulsion               ... done (  0.0 sec) ENN=   3002.845142179156 Eh

Diagonalization of the overlap matrix:
Smallest eigenvalue                        ... 1.011e-05
Time for diagonalization                   ...    0.327 sec
Threshold for overlap eigenvalues          ... 1.000e-07
Number of eigenvalues below threshold      ... 0
Time for construction of square roots      ...    0.282 sec
Total time needed                          ...    0.627 sec

-------------------
DFT GRID GENERATION
-------------------

General Integration Accuracy     IntAcc      ... 4.959
Radial Grid Type                 RadialGrid  ... OptM3 with GC (2021)
Angular Grid (max. ang.)         AngularGrid ... 6 (Lebedev-590)
Angular grid pruning method      GridPruning ... 4 (adaptive)
Weight generation scheme         WeightScheme... mBecke (2022)
Basis function cutoff            BFCut       ... 1.0000e-11
Integration weight cutoff        WCut        ... 1.0000e-14
Partially contracted basis set               ... off
Rotationally invariant grid construction     ... off
Angular grids for H and He will be reduced by one unit

Total number of grid points                  ...   575843
Total number of batches                      ...     9021
Average number of points per batch           ...       63
Average number of grid points per atom       ...    11997

--------------------
COSX GRID GENERATION
--------------------

GRIDX 1
-------
General Integration Accuracy     IntAcc      ... 4.020
Radial Grid Type                 RadialGrid  ... OptM3 with GC (2021)
Angular Grid (max. ang.)         AngularGrid ... 2 (Lebedev-110)
Angular grid pruning method      GridPruning ... 4 (adaptive)
Weight generation scheme         WeightScheme... mBecke (2022)
Basis function cutoff            BFCut       ... 1.0000e-11
Integration weight cutoff        WCut        ... 1.0000e-14
Partially contracted basis set               ... on
Rotationally invariant grid construction     ... off
Angular grids for H and He will be reduced by one unit

Total number of grid points                  ...    65260
Total number of batches                      ...      533
Average number of points per batch           ...      122
Average number of grid points per atom       ...     1360
UseSFitting                                  ... on

GRIDX 2
-------
General Integration Accuracy     IntAcc      ... 4.338
Radial Grid Type                 RadialGrid  ... OptM3 with GC (2021)
Angular Grid (max. ang.)         AngularGrid ... 3 (Lebedev-194)
Angular grid pruning method      GridPruning ... 4 (adaptive)
Weight generation scheme         WeightScheme... mBecke (2022)
Basis function cutoff            BFCut       ... 1.0000e-11
Integration weight cutoff        WCut        ... 1.0000e-14
Partially contracted basis set               ... on
Rotationally invariant grid construction     ... off
Angular grids for H and He will be reduced by one unit

Total number of grid points                  ...   143029
Total number of batches                      ...     1139
Average number of points per batch           ...      125
Average number of grid points per atom       ...     2980
UseSFitting                                  ... on

GRIDX 3
-------
General Integration Accuracy     IntAcc      ... 4.871
Radial Grid Type                 RadialGrid  ... OptM3 with GC (2021)
Angular Grid (max. ang.)         AngularGrid ... 4 (Lebedev-302)
Angular grid pruning method      GridPruning ... 4 (adaptive)
Weight generation scheme         WeightScheme... mBecke (2022)
Basis function cutoff            BFCut       ... 1.0000e-11
Integration weight cutoff        WCut        ... 1.0000e-14
Partially contracted basis set               ... on
Rotationally invariant grid construction     ... off
Angular grids for H and He will be reduced by one unit

Total number of grid points                  ...   263544
Total number of batches                      ...     2084
Average number of points per batch           ...      126
Average number of grid points per atom       ...     5490
UseSFitting                                  ... on
Grids setup in  41.7 sec
Initializing property integral containers    ... done (  0.0 sec)

SHARK setup successfully completed in  49.0 seconds

Maximum memory used throughout the entire STARTUP-calculation: 201.6 MB


           ************************************************************
           *        Program running with 4 parallel MPI-processes     *
           *              working on a common directory               *
           ************************************************************
-------------------------------------------------------------------------------
                                 ORCA GUESS
                   Start orbitals & Density for SCF / CASSCF
-------------------------------------------------------------------------------

------------
SCF SETTINGS
------------
Hamiltonian:
 Density Functional     Method          .... DFT(GTOs)
 Exchange Functional    Exchange        .... PBE
   PBE kappa parameter   XKappa         ....  0.804000
   PBE mue parameter    XMuePBE         ....  0.219520
 Correlation Functional Correlation     .... PBE
   PBE beta parameter  CBetaPBE         ....  0.066725
 LDA part of GGA corr.  LDAOpt          .... PW91-LDA
 Gradients option       PostSCFGGA      .... off
 Hybrid DFT is turned on
   Fraction HF Exchange ScalHFX         ....  0.250000
   Scaling of DF-GGA-X  ScalDFX         ....  0.750000
   Scaling of DF-GGA-C  ScalDFC         ....  1.000000
   Scaling of DF-LDA-C  ScalLDAC        ....  1.000000
   Perturbative correction              ....  0.000000
   NL short-range parameter             ....  6.900000
 RI-approximation to the Coulomb term is turned on
   Number of AuxJ basis functions       .... 1675
   RIJ-COSX (HFX calculated with COS-X)).... on


General Settings:
 Integral files         IntName         .... tddft
 Hartree-Fock type      HFTyp           .... RHF
 Total Charge           Charge          ....    0
 Multiplicity           Mult            ....    1
 Number of Electrons    NEL             ....  210
 Basis Dimension        Dim             .... 1039
 Nuclear Repulsion      ENuc            ....   3002.8451421792 Eh

Convergence Acceleration:
 AO-DIIS                CNVDIIS         .... on
   Start iteration      DIISMaxIt       ....    12
   Startup error        DIISStart       ....  0.200000
   # of expansion vecs  DIISMaxEq       ....     5
   Bias factor          DIISBfac        ....   1.050
   Max. coefficient     DIISMaxC        ....  10.000
 MO-DIIS                CNVKDIIS        .... off
 Trust-Rad. Augm. Hess. CNVTRAH         .... auto
   Auto Start mean grad. ratio tolernc. ....  1.125000
   Auto Start start iteration           ....    50
   Auto Start num. interpolation iter.  ....    10
   Max. Number of Micro iterations      ....    24
   Max. Number of Macro iterations      .... Maxiter - #DIIS iter
   Number of Davidson start vectors     ....     2
   Converg. threshold    (grad. norm)   ....   1.000e-05
   Grad. Scal. Fac. for Micro threshold ....   0.100
   Minimum threshold for Micro iter.    ....   1.000e-02
   NR start threshold (gradient norm)   ....   1.000e-04
   Initial trust radius                 ....   0.400
   Minimum AH scaling param. (alpha)    ....   1.000
   Maximum AH scaling param. (alpha)    .... 1000.000
   Quad. conv. algorithm                .... NR
   White noise on init. David. guess    .... on
   Maximum white noise                  ....   0.010
   Pseudo random numbers                .... off
   Inactive MOs                         .... canonical
   Orbital update algorithm             .... Taylor
   Preconditioner                       .... Diag
   Full preconditioner red. dimension   ....   250
 SOSCF                 CNVSOSCF           .... on
   Start iteration     SOSCFMaxIt         ....   150
   Startup grad/error  SOSCFStart         ....  0.003300
   Hessian update      SOSCFHessUp        .... L-BFGS
   Autom. constraints  SOSCFAutoConstrain .... off
 Level Shifting         CNVShift        .... on
   Level shift para.    LevelShift      ....    0.2500
   Turn off err/grad.   ShiftErr        ....    0.0010
 Zerner damping         CNVZerner       .... off
 Static damping         CNVDamp         .... on
   Fraction old density DampFac         ....    0.7000
   Max. Damping (<1)    DampMax         ....    0.9800
   Min. Damping (>=0)   DampMin         ....    0.0000
   Turn off err/grad.   DampErr         ....    0.1000

SCF Procedure:
 Maximum # iterations   MaxIter         ....   125
 SCF integral mode      SCFMode         .... Direct
   Integral package                     .... SHARK and LIBINT hybrid scheme
 Reset frequency        DirectResetFreq ....    20
 Integral Threshold     Thresh          ....  2.500e-11 Eh
 Primitive CutOff       TCut            ....  2.500e-12 Eh

Convergence Tolerance:
 Convergence Check Mode ConvCheckMode   .... Total+1el-Energy
 Convergence forced     ConvForced      .... 1
 Energy Change          TolE            ....  1.000e-08 Eh
 1-El. energy change                    ....  1.000e-05 Eh
 Orbital Gradient       TolG            ....  1.000e-05
 Orbital Rotation angle TolX            ....  1.000e-05
 DIIS Error             TolErr          ....  5.000e-07

------------------------------
INITIAL GUESS: MODEL POTENTIAL
------------------------------
Loading Hartree-Fock densities                     ... done
Calculating cut-offs                               ... done
Initializing the effective Hamiltonian             ... done
Setting up the integral package (SHARK)            ... done
Starting the Coulomb interaction                   ... done (   4.3 sec)
Making the grid                                    ... done (   1.8 sec)
Mapping shells                                     ... done
Starting the XC term evaluation                    ... done (   5.6 sec)
  promolecular density results
     # of electrons  =    209.992473701
     EX              =   -178.372332091
     EC              =     -7.137356798
     EX+EC           =   -185.509688890
Transforming the Hamiltonian                       ... done (   0.2 sec)
Diagonalizing the Hamiltonian                      ... done (   0.4 sec)
Back transforming the eigenvectors                 ... done (   0.2 sec)
Now organizing SCF variables                       ... done
                      ------------------
                      INITIAL GUESS DONE (  12.8 sec)
                      ------------------
             **** ENERGY FILE WAS UPDATED (tddft.en.tmp) ****
Finished Guess after  13.7 sec
Maximum memory used throughout the entire GUESS-calculation: 121.3 MB


           ************************************************************
           *        Program running with 4 parallel MPI-processes     *
           *              working on a common directory               *
           ************************************************************

-------------------------------------------------------------------------------------------
                                      ORCA LEAN-SCF
                              memory conserving SCF solver
-------------------------------------------------------------------------------------------

--------------------
CPCM SOLVATION MODEL
--------------------
CPCM parameters:
  Epsilon                                         ...       8.9990
  Refrac                                          ...       1.4242
  Rsolv                                           ...       1.3000
  Surface type                                    ... GAUSSIAN VDW
  Discretization scheme                           ... Constant charge density
    Threshold for H atoms                         ...       5.0000 (charges/Ang^2)
    Threshold for non-H atoms                     ...       5.0000 (charges/Ang^2)
  Epsilon function type                           ...         CPCM
Solvent:                                          ... DICHLOROMETHANE
Radii:
  Scheme                                          ... Element-dependent radii
  Radius for N  used is    3.5149 Bohr (=   1.8600 Ang.)
  Radius for C  used is    3.8550 Bohr (=   2.0400 Ang.)
  Radius for H  used is    2.4944 Bohr (=   1.3200 Ang.)
  Radius for Mg used is    3.9231 Bohr (=   2.0760 Ang.)
Calculating surface                               ...        done! (  0.0s)
Cavity surface points                             ...         4266
Cavity Volume                                     ...    3053.5298
Cavity Surface-area                               ...    1451.2358
Calculating surface distance matrix               ...        done! (  0.5s)
Performing Cholesky decomposition & store         ...        done! (  6.1s)
Overall time for CPCM initialization              ...                 6.7s

----------------------------------------D-I-I-S--------------------------------------------
Iteration    Energy (Eh)           Delta-E    RMSDP     MaxDP     DIISErr   Damp  Time(sec)
-------------------------------------------------------------------------------------------
               ***  Starting incremental Fock matrix formation  ***
    1    -1414.3360431109799720     0.00e+00  1.58e-03  4.22e-02  2.25e-01  0.700 222.5
    2    -1414.6249968442002682    -2.89e-01  1.21e-03  2.73e-02  1.08e-01  0.700 112.0
                               ***Turning on AO-DIIS***
    3    -1414.7531883301348898    -1.28e-01  6.18e-04  1.64e-02  4.25e-02  0.700 109.5
    4    -1414.8284503196368860    -7.53e-02  1.21e-03  3.38e-02  2.43e-02  0.000 113.6
    5    -1414.9891278367272207    -1.61e-01  1.93e-04  5.21e-03  6.22e-03  0.000 117.8
                              *** Initializing SOSCF ***
---------------------------------------S-O-S-C-F--------------------------------------
Iteration    Energy (Eh)           Delta-E    RMSDP     MaxDP     MaxGrad    Time(sec)
--------------------------------------------------------------------------------------
    6    -1414.9898903222042463    -7.62e-04  8.12e-05  1.67e-03  1.77e-03   100.5
               *** Restarting incremental Fock matrix formation ***
    7    -1414.9899364584730392    -4.61e-05  7.03e-05  1.68e-03  2.15e-04   235.4
    8    -1414.9899405222390669    -4.06e-06  2.98e-05  7.42e-04  2.43e-04   153.1
    9    -1414.9899429244374005    -2.40e-06  2.19e-05  4.86e-04  1.03e-04   135.3
   10    -1414.9899434839639980    -5.60e-07  6.11e-06  2.10e-04  2.65e-05   136.5
   11    -1414.9899436450500616    -1.61e-07  5.89e-06  2.49e-04  1.99e-05   110.2
   12    -1414.9899436415257696     3.52e-09  3.70e-06  1.08e-04  1.40e-05   123.4
                 **** Energy Check signals convergence ****

               *****************************************************
               *                     SUCCESS                       *
               *           SCF CONVERGED AFTER  12 CYCLES          *
               *****************************************************

Recomputing exchange energy using gridx3       ... done (  329.806 sec)
Old exchange energy                            :    -45.420507771 Eh
New exchange energy                            :    -45.420533509 Eh
Exchange energy change after final integration :     -0.000025738 Eh
Total energy after final integration           :  -1414.989969355 Eh
             **** ENERGY FILE WAS UPDATED (tddft.en.tmp) ****

----------------
TOTAL SCF ENERGY
----------------

Total Energy       :      -1414.98996935509786 Eh          -38503.83456 eV

Components:
Nuclear Repulsion  :       3002.84514217915557 Eh           81711.57045 eV
Electronic Energy  :      -4417.80754340909516 Eh         -120214.65485 eV
One Electron Energy:      -7907.34386889161215 Eh         -215169.76569 eV
Two Electron Energy:       3489.53632548251653 Eh           94955.11084 eV
CPCM Dielectric    :         -0.02754238700211 Eh              -0.74947 eV

Virial components:
Potential Energy   :      -2823.50482757720420 Eh          -76831.47239 eV
Kinetic Energy     :       1408.51485822210657 Eh           38327.63783 eV
Virial Ratio       :          2.00459711950867

DFT components:
N(Alpha)           :      105.000000807244 electrons
N(Beta)            :      105.000000807244 electrons
N(Total)           :      210.000001614488 electrons
E(X)               :     -135.922877747362 Eh       
E(C)               :       -7.147443393142 Eh       
E(XC)              :     -143.070321140504 Eh       

CPCM Solvation Model Properties:
Surface-charge          :         -0.03790943657980
Corrected charge        :         -0.00000000000000
Outlying charge corr.   :          0.00006438946233 Eh               0.00175 eV
Free-energy (cav+disp)  :  This term is not implemented in the current solvation scheme

---------------
SCF CONVERGENCE
---------------

  Last Energy change         ...   -3.5243e-09  Tolerance :   1.0000e-08
  Last MAX-Density change    ...    1.0785e-04  Tolerance :   1.0000e-07
  Last RMS-Density change    ...    3.6992e-06  Tolerance :   5.0000e-09
  Last DIIS Error            ...    1.7668e-03  Tolerance :   5.0000e-07
  Last Orbital Gradient      ...    1.3970e-05  Tolerance :   1.0000e-05
  Last Orbital Rotation      ...    6.5757e-05  Tolerance :   1.0000e-05


----------------
ORBITAL ENERGIES
----------------

  NO   OCC          E(Eh)            E(eV) 
   0   2.0000     -46.840428     -1274.5928 
   1   2.0000     -14.450506      -393.2183 
   2   2.0000     -14.392409      -391.6374 
   3   2.0000     -14.384122      -391.4118 
   4   2.0000     -14.362982      -390.8366 
   5   2.0000     -14.362002      -390.8099 
   6   2.0000     -14.361809      -390.8047 
   7   2.0000     -10.289952      -280.0038 
   8   2.0000     -10.264546      -279.3125 
   9   2.0000     -10.264519      -279.3118 
  10   2.0000     -10.259902      -279.1861 
  11   2.0000     -10.255834      -279.0754 
  12   2.0000     -10.255676      -279.0711 
  13   2.0000     -10.249457      -278.9019 
  14   2.0000     -10.249254      -278.8964 
  15   2.0000     -10.248014      -278.8626 
  16   2.0000     -10.247974      -278.8616 
  17   2.0000     -10.247311      -278.8435 
  18   2.0000     -10.229684      -278.3639 
  19   2.0000     -10.229197      -278.3506 
  20   2.0000     -10.223564      -278.1973 
  21   2.0000     -10.223325      -278.1908 
  22   2.0000     -10.221111      -278.1306 
  23   2.0000     -10.220677      -278.1188 
  24   2.0000     -10.217467      -278.0314 
  25   2.0000     -10.217086      -278.0211 
  26   2.0000     -10.215828      -277.9868 
  27   2.0000     -10.215072      -277.9662 
  28   2.0000     -10.214473      -277.9499 
  29   2.0000     -10.214218      -277.9430 
  30   2.0000      -3.063685       -83.3671 
  31   2.0000      -1.788366       -48.6639 
  32   2.0000      -1.786181       -48.6045 
  33   2.0000      -1.785901       -48.5968 
  34   2.0000      -1.062489       -28.9118 
  35   2.0000      -0.985670       -26.8214 
  36   2.0000      -0.977343       -26.5949 
  37   2.0000      -0.975894       -26.5554 
  38   2.0000      -0.967081       -26.3156 
  39   2.0000      -0.914438       -24.8831 
  40   2.0000      -0.833620       -22.6839 
  41   2.0000      -0.808230       -21.9931 
  42   2.0000      -0.804896       -21.9023 
  43   2.0000      -0.790529       -21.5114 
  44   2.0000      -0.783953       -21.3324 
  45   2.0000      -0.782862       -21.3028 
  46   2.0000      -0.781018       -21.2526 
  47   2.0000      -0.776950       -21.1419 
  48   2.0000      -0.753551       -20.5052 
  49   2.0000      -0.734020       -19.9737 
  50   2.0000      -0.672994       -18.3131 
  51   2.0000      -0.668114       -18.1803 
  52   2.0000      -0.647379       -17.6161 
  53   2.0000      -0.624542       -16.9947 
  54   2.0000      -0.623541       -16.9674 
  55   2.0000      -0.593785       -16.1577 
  56   2.0000      -0.591565       -16.0973 
  57   2.0000      -0.586058       -15.9474 
  58   2.0000      -0.581802       -15.8316 
  59   2.0000      -0.580555       -15.7977 
  60   2.0000      -0.563619       -15.3369 
  61   2.0000      -0.545693       -14.8491 
  62   2.0000      -0.532320       -14.4852 
  63   2.0000      -0.525549       -14.3009 
  64   2.0000      -0.512637       -13.9496 
  65   2.0000      -0.509683       -13.8692 
  66   2.0000      -0.500745       -13.6260 
  67   2.0000      -0.486295       -13.2328 
  68   2.0000      -0.471100       -12.8193 
  69   2.0000      -0.467896       -12.7321 
  70   2.0000      -0.460484       -12.5304 
  71   2.0000      -0.449124       -12.2213 
  72   2.0000      -0.446740       -12.1564 
  73   2.0000      -0.441055       -12.0017 
  74   2.0000      -0.434528       -11.8241 
  75   2.0000      -0.429007       -11.6739 
  76   2.0000      -0.425571       -11.5804 
  77   2.0000      -0.423809       -11.5324 
  78   2.0000      -0.414814       -11.2877 
  79   2.0000      -0.414640       -11.2829 
  80   2.0000      -0.411791       -11.2054 
  81   2.0000      -0.395024       -10.7491 
  82   2.0000      -0.392364       -10.6768 
  83   2.0000      -0.385594       -10.4925 
  84   2.0000      -0.382444       -10.4068 
  85   2.0000      -0.379047       -10.3144 
  86   2.0000      -0.376756       -10.2521 
  87   2.0000      -0.373568       -10.1653 
  88   2.0000      -0.373055       -10.1514 
  89   2.0000      -0.366972        -9.9858 
  90   2.0000      -0.363588        -9.8937 
  91   2.0000      -0.334240        -9.0951 
  92   2.0000      -0.327122        -8.9014 
  93   2.0000      -0.324280        -8.8241 
  94   2.0000      -0.316732        -8.6187 
  95   2.0000      -0.310875        -8.4593 
  96   2.0000      -0.287762        -7.8304 
  97   2.0000      -0.286685        -7.8011 
  98   2.0000      -0.278566        -7.5802 
  99   2.0000      -0.263836        -7.1793 
 100   2.0000      -0.260156        -7.0792 
 101   2.0000      -0.255240        -6.9454 
 102   2.0000      -0.253392        -6.8951 
 103   2.0000      -0.200121        -5.4456 
 104   2.0000      -0.190034        -5.1711 
 105   0.0000      -0.085383        -2.3234 
 106   0.0000      -0.063053        -1.7158 
 107   0.0000       0.005317         0.1447 
 108   0.0000       0.011601         0.3157 
 109   0.0000       0.024634         0.6703 
 110   0.0000       0.034773         0.9462 
 111   0.0000       0.041481         1.1288 
 112   0.0000       0.056486         1.5371 
 113   0.0000       0.057613         1.5677 
 114   0.0000       0.059831         1.6281 
 115   0.0000       0.068455         1.8628 
*Only the first 10 virtual orbitals were printed.

                    ********************************
                    * MULLIKEN POPULATION ANALYSIS *
                    ********************************

-----------------------
MULLIKEN ATOMIC CHARGES
-----------------------
   0 N :   -0.272548
   1 N :   -0.345501
   2 N :   -0.330201
   3 N :   -0.293793
   4 C :   -0.161310
   5 C :   -0.165175
   6 C :    0.200723
   7 C :    0.199313
   8 C :   -0.502350
   9 C :   -0.503947
  10 C :    0.330117
  11 C :    0.329324
  12 C :    0.305592
  13 C :    0.305914
  14 C :   -0.256433
  15 C :   -0.255317
  16 C :   -0.249782
  17 C :   -0.253624
  18 C :   -0.466851
  19 C :   -0.463042
  20 C :    0.318518
  21 C :    0.315078
  22 C :   -0.263352
  23 C :   -0.262736
  24 H :    0.122623
  25 H :    0.132576
  26 H :    0.121981
  27 H :    0.133764
  28 H :    0.142211
  29 H :    0.142224
  30 H :    0.145473
  31 H :    0.145652
  32 H :    0.146998
  33 H :    0.147125
  34 H :    0.147653
  35 H :    0.147837
  36 H :    0.144903
  37 H :    0.144882
  38 Mg:    0.591456
  39 N :   -0.266887
  40 C :    0.016753
  41 N :   -0.175501
  42 C :   -0.120254
  43 C :   -0.129126
  44 H :    0.203863
  45 H :    0.188546
  46 H :    0.176751
  47 H :    0.289882
Sum of atomic charges:   -0.0000000

--------------------------------
MULLIKEN REDUCED ORBITAL CHARGES
--------------------------------
  0 N s       :     3.640765  s :     3.640765
      pz      :     1.261591  p :     3.565601
      px      :     1.185192
      py      :     1.118818
      dz2     :     0.004393  d :     0.062565
      dxz     :     0.009720
      dyz     :     0.011529
      dx2y2   :     0.019428
      dxy     :     0.017494
      f0      :     0.000646  f :     0.003617
      f+1     :     0.000301
      f-1     :     0.000334
      f+2     :     0.000494
      f-2     :     0.000130
      f+3     :     0.000986
      f-3     :     0.000726

  1 N s       :     3.654807  s :     3.654807
      pz      :     1.354099  p :     3.626350
      px      :     1.107352
      py      :     1.164899
      dz2     :     0.004658  d :     0.060701
      dxz     :     0.010829
      dyz     :     0.009688
      dx2y2   :     0.018718
      dxy     :     0.016808
      f0      :     0.000653  f :     0.003644
      f+1     :     0.000377
      f-1     :     0.000340
      f+2     :     0.000580
      f-2     :     0.000111
      f+3     :     0.000705
      f-3     :     0.000878

  2 N s       :     3.646264  s :     3.646264
      pz      :     1.349824  p :     3.619744
      px      :     1.103131
      py      :     1.166790
      dz2     :     0.004544  d :     0.060546
      dxz     :     0.011410
      dyz     :     0.009030
      dx2y2   :     0.018376
      dxy     :     0.017186
      f0      :     0.000652  f :     0.003647
      f+1     :     0.000367
      f-1     :     0.000354
      f+2     :     0.000571
      f-2     :     0.000120
      f+3     :     0.000662
      f-3     :     0.000920

  3 N s       :     3.639531  s :     3.639531
      pz      :     1.322769  p :     3.588663
      px      :     1.160184
      py      :     1.105711
      dz2     :     0.004548  d :     0.061922
      dxz     :     0.009758
      dyz     :     0.011754
      dx2y2   :     0.018808
      dxy     :     0.017054
      f0      :     0.000648  f :     0.003676
      f+1     :     0.000341
      f-1     :     0.000367
      f+2     :     0.000620
      f-2     :     0.000115
      f+3     :     0.000901
      f-3     :     0.000685

  4 C s       :     3.100783  s :     3.100783
      pz      :     1.060344  p :     2.970127
      px      :     0.900817
      py      :     1.008966
      dz2     :     0.005877  d :     0.084663
      dxz     :     0.017311
      dyz     :     0.018119
      dx2y2   :     0.025059
      dxy     :     0.018297
      f0      :     0.000681  f :     0.005738
      f+1     :     0.000203
      f-1     :     0.001009
      f+2     :     0.000388
      f-2     :     0.000788
      f+3     :     0.001309
      f-3     :     0.001360

  5 C s       :     3.104706  s :     3.104706
      pz      :     1.059327  p :     2.969941
      px      :     1.004753
      py      :     0.905861
      dz2     :     0.005225  d :     0.084786
      dxz     :     0.018537
      dyz     :     0.017786
      dx2y2   :     0.024578
      dxy     :     0.018661
      f0      :     0.000599  f :     0.005741
      f+1     :     0.001135
      f-1     :     0.000171
      f+2     :     0.000321
      f-2     :     0.000844
      f+3     :     0.001069
      f-3     :     0.001602

  6 C s       :     3.150275  s :     3.150275
      pz      :     0.872462  p :     2.466634
      px      :     0.878194
      py      :     0.715978
      dz2     :     0.003580  d :     0.168347
      dxz     :     0.028001
      dyz     :     0.039468
      dx2y2   :     0.044387
      dxy     :     0.052910
      f0      :     0.001929  f :     0.014021
      f+1     :     0.000750
      f-1     :     0.001066
      f+2     :     0.001708
      f-2     :     0.001149
      f+3     :     0.005218
      f-3     :     0.002200

  7 C s       :     3.148594  s :     3.148594
      pz      :     0.872487  p :     2.469480
      px      :     0.749995
      py      :     0.846998
      dz2     :     0.002962  d :     0.168583
      dxz     :     0.034336
      dyz     :     0.033488
      dx2y2   :     0.045898
      dxy     :     0.051899
      f0      :     0.001951  f :     0.014031
      f+1     :     0.001048
      f-1     :     0.000731
      f+2     :     0.001433
      f-2     :     0.001429
      f+3     :     0.003664
      f-3     :     0.003775

  8 C s       :     3.404376  s :     3.404376
      pz      :     1.100789  p :     3.018026
      px      :     0.946778
      py      :     0.970459
      dz2     :     0.002635  d :     0.072689
      dxz     :     0.024214
      dyz     :     0.003743
      dx2y2   :     0.032171
      dxy     :     0.009925
      f0      :     0.001468  f :     0.007260
      f+1     :     0.000708
      f-1     :     0.000680
      f+2     :     0.000425
      f-2     :     0.000777
      f+3     :     0.002035
      f-3     :     0.001166

  9 C s       :     3.407108  s :     3.407108
      pz      :     1.101103  p :     3.017145
      px      :     0.962833
      py      :     0.953209
      dz2     :     0.002517  d :     0.072436
      dxz     :     0.003742
      dyz     :     0.024245
      dx2y2   :     0.032495
      dxy     :     0.009437
      f0      :     0.001479  f :     0.007258
      f+1     :     0.000687
      f-1     :     0.000692
      f+2     :     0.000438
      f-2     :     0.000754
      f+3     :     0.001277
      f-3     :     0.001930

 10 C s       :     3.107597  s :     3.107597
      pz      :     0.888289  p :     2.376681
      px      :     0.765357
      py      :     0.723036
      dz2     :     0.003797  d :     0.171113
      dxz     :     0.034793
      dyz     :     0.037378
      dx2y2   :     0.044221
      dxy     :     0.050924
      f0      :     0.002095  f :     0.014491
      f+1     :     0.000837
      f-1     :     0.001056
      f+2     :     0.001849
      f-2     :     0.001188
      f+3     :     0.004108
      f-3     :     0.003359

 11 C s       :     3.107355  s :     3.107355
      pz      :     0.885671  p :     2.377088
      px      :     0.706691
      py      :     0.784726
      dz2     :     0.003773  d :     0.171708
      dxz     :     0.040589
      dyz     :     0.032019
      dx2y2   :     0.042410
      dxy     :     0.052918
      f0      :     0.002102  f :     0.014525
      f+1     :     0.001106
      f-1     :     0.000789
      f+2     :     0.002346
      f-2     :     0.000702
      f+3     :     0.002219
      f-3     :     0.005261

 12 C s       :     3.095009  s :     3.095009
      pz      :     0.942964  p :     2.419328
      px      :     0.695780
      py      :     0.780584
      dz2     :     0.004460  d :     0.165839
      dxz     :     0.038817
      dyz     :     0.029094
      dx2y2   :     0.042322
      dxy     :     0.051145
      f0      :     0.002111  f :     0.014233
      f+1     :     0.001093
      f-1     :     0.000785
      f+2     :     0.002265
      f-2     :     0.000586
      f+3     :     0.002202
      f-3     :     0.005191

 13 C s       :     3.094271  s :     3.094271
      pz      :     0.939292  p :     2.419253
      px      :     0.760136
      py      :     0.719825
      dz2     :     0.004514  d :     0.166297
      dxz     :     0.031373
      dyz     :     0.036782
      dx2y2   :     0.043636
      dxy     :     0.049992
      f0      :     0.002109  f :     0.014264
      f+1     :     0.000827
      f-1     :     0.001064
      f+2     :     0.001719
      f-2     :     0.001142
      f+3     :     0.004089
      f-3     :     0.003314

 14 C s       :     3.277440  s :     3.277440
      pz      :     1.022774  p :     2.885454
      px      :     0.935559
      py      :     0.927122
      dz2     :     0.005040  d :     0.085892
      dxz     :     0.020706
      dyz     :     0.007824
      dx2y2   :     0.032220
      dxy     :     0.020102
      f0      :     0.001469  f :     0.007648
      f+1     :     0.000517
      f-1     :     0.000831
      f+2     :     0.000071
      f-2     :     0.001248
      f+3     :     0.002266
      f-3     :     0.001246

 15 C s       :     3.277472  s :     3.277472
      pz      :     1.021974  p :     2.884247
      px      :     0.935383
      py      :     0.926889
      dz2     :     0.005051  d :     0.085950
      dxz     :     0.009491
      dyz     :     0.019055
      dx2y2   :     0.032705
      dxy     :     0.019649
      f0      :     0.001472  f :     0.007647
      f+1     :     0.000785
      f-1     :     0.000559
      f+2     :     0.000414
      f-2     :     0.000908
      f+3     :     0.001945
      f-3     :     0.001564

 16 C s       :     3.285504  s :     3.285504
      pz      :     0.993222  p :     2.868682
      px      :     0.943310
      py      :     0.932150
      dz2     :     0.004879  d :     0.087915
      dxz     :     0.009874
      dyz     :     0.021804
      dx2y2   :     0.031649
      dxy     :     0.019709
      f0      :     0.001451  f :     0.007680
      f+1     :     0.000777
      f-1     :     0.000544
      f+2     :     0.000500
      f-2     :     0.000903
      f+3     :     0.001957
      f-3     :     0.001549

 17 C s       :     3.288334  s :     3.288334
      pz      :     0.992602  p :     2.869618
      px      :     0.940899
      py      :     0.936117
      dz2     :     0.004908  d :     0.087990
      dxz     :     0.023900
      dyz     :     0.007799
      dx2y2   :     0.031373
      dxy     :     0.020011
      f0      :     0.001454  f :     0.007681
      f+1     :     0.000505
      f-1     :     0.000813
      f+2     :     0.000091
      f-2     :     0.001315
      f+3     :     0.002260
      f-3     :     0.001243

 18 C s       :     3.437934  s :     3.437934
      pz      :     0.998891  p :     2.939316
      px      :     0.977264
      py      :     0.963161
      dz2     :     0.002595  d :     0.082477
      dxz     :     0.003534
      dyz     :     0.031287
      dx2y2   :     0.034499
      dxy     :     0.010562
      f0      :     0.001388  f :     0.007124
      f+1     :     0.000633
      f-1     :     0.000636
      f+2     :     0.000428
      f-2     :     0.000809
      f+3     :     0.001213
      f-3     :     0.002017

 19 C s       :     3.434040  s :     3.434040
      pz      :     1.000110  p :     2.939596
      px      :     0.963134
      py      :     0.976352
      dz2     :     0.002595  d :     0.082284
      dxz     :     0.031075
      dyz     :     0.003629
      dx2y2   :     0.033958
      dxy     :     0.011026
      f0      :     0.001390  f :     0.007122
      f+1     :     0.000632
      f-1     :     0.000638
      f+2     :     0.000441
      f-2     :     0.000794
      f+3     :     0.002014
      f-3     :     0.001215

 20 C s       :     3.089797  s :     3.089797
      pz      :     0.938545  p :     2.410700
      px      :     0.719372
      py      :     0.752782
      dz2     :     0.004359  d :     0.166559
      dxz     :     0.036825
      dyz     :     0.030832
      dx2y2   :     0.043909
      dxy     :     0.050633
      f0      :     0.002133  f :     0.014426
      f+1     :     0.001063
      f-1     :     0.000850
      f+2     :     0.001726
      f-2     :     0.001172
      f+3     :     0.003373
      f-3     :     0.004110

 21 C s       :     3.091829  s :     3.091829
      pz      :     0.936588  p :     2.411986
      px      :     0.775667
      py      :     0.699731
      dz2     :     0.004284  d :     0.166673
      dxz     :     0.029392
      dyz     :     0.038299
      dx2y2   :     0.041776
      dxy     :     0.052922
      f0      :     0.002131  f :     0.014435
      f+1     :     0.000800
      f-1     :     0.001117
      f+2     :     0.002287
      f-2     :     0.000617
      f+3     :     0.005270
      f-3     :     0.002213

 22 C s       :     3.283480  s :     3.283480
      pz      :     1.017135  p :     2.884954
      px      :     0.929419
      py      :     0.938400
      dz2     :     0.005026  d :     0.087192
      dxz     :     0.007657
      dyz     :     0.023057
      dx2y2   :     0.031637
      dxy     :     0.019816
      f0      :     0.001470  f :     0.007726
      f+1     :     0.000835
      f-1     :     0.000515
      f+2     :     0.000071
      f-2     :     0.001338
      f+3     :     0.001236
      f-3     :     0.002259

 23 C s       :     3.283537  s :     3.283537
      pz      :     1.017136  p :     2.884285
      px      :     0.930578
      py      :     0.936572
      dz2     :     0.005001  d :     0.087188
      dxz     :     0.021182
      dyz     :     0.009533
      dx2y2   :     0.031925
      dxy     :     0.019547
      f0      :     0.001473  f :     0.007726
      f+1     :     0.000552
      f-1     :     0.000797
      f+2     :     0.000463
      f-2     :     0.000948
      f+3     :     0.001568
      f-3     :     0.001925

 24 H s       :     0.855418  s :     0.855418
      pz      :     0.010970  p :     0.021959
      px      :     0.004421
      py      :     0.006568

 25 H s       :     0.845615  s :     0.845615
      pz      :     0.008305  p :     0.021809
      px      :     0.004547
      py      :     0.008957

 26 H s       :     0.856077  s :     0.856077
      pz      :     0.010392  p :     0.021943
      px      :     0.007249
      py      :     0.004302

 27 H s       :     0.844421  s :     0.844421
      pz      :     0.008899  p :     0.021815
      px      :     0.008562
      py      :     0.004354

 28 H s       :     0.835073  s :     0.835073
      pz      :     0.005761  p :     0.022716
      px      :     0.003615
      py      :     0.013339

 29 H s       :     0.835055  s :     0.835055
      pz      :     0.005758  p :     0.022721
      px      :     0.013296
      py      :     0.003667

 30 H s       :     0.832150  s :     0.832150
      pz      :     0.005009  p :     0.022377
      px      :     0.003655
      py      :     0.013712

 31 H s       :     0.831980  s :     0.831980
      pz      :     0.005007  p :     0.022369
      px      :     0.013102
      py      :     0.004260

 32 H s       :     0.830713  s :     0.830713
      pz      :     0.004812  p :     0.022289
      px      :     0.013156
      py      :     0.004320

 33 H s       :     0.830590  s :     0.830590
      pz      :     0.004813  p :     0.022286
      px      :     0.003687
      py      :     0.013786

 34 H s       :     0.829918  s :     0.829918
      pz      :     0.005109  p :     0.022430
      px      :     0.013627
      py      :     0.003694

 35 H s       :     0.829727  s :     0.829727
      pz      :     0.005119  p :     0.022436
      px      :     0.003678
      py      :     0.013639

 36 H s       :     0.832769  s :     0.832769
      pz      :     0.004975  p :     0.022329
      px      :     0.013680
      py      :     0.003674

 37 H s       :     0.832789  s :     0.832789
      pz      :     0.004984  p :     0.022330
      px      :     0.004284
      py      :     0.013062

 38 Mgs       :     4.544012  s :     4.544012
      pz      :     2.200547  p :     6.570296
      px      :     2.183900
      py      :     2.185849
      dz2     :     0.041409  d :     0.294235
      dxz     :     0.032646
      dyz     :     0.032139
      dx2y2   :     0.035202
      dxy     :     0.152839

 39 N s       :     3.655522  s :     3.655522
      pz      :     1.279531  p :     3.542825
      px      :     1.156525
      py      :     1.106769
      dz2     :     0.013089  d :     0.064549
      dxz     :     0.012157
      dyz     :     0.014117
      dx2y2   :     0.016894
      dxy     :     0.008291
      f0      :     0.000305  f :     0.003991
      f+1     :     0.000470
      f-1     :     0.000633
      f+2     :     0.000876
      f-2     :     0.000622
      f+3     :     0.000476
      f-3     :     0.000609

 40 C s       :     3.157855  s :     3.157855
      pz      :     0.764599  p :     2.669421
      px      :     0.952590
      py      :     0.952232
      dz2     :     0.043159  d :     0.140597
      dxz     :     0.034784
      dyz     :     0.033332
      dx2y2   :     0.017441
      dxy     :     0.011881
      f0      :     0.002133  f :     0.015374
      f+1     :     0.003036
      f-1     :     0.003501
      f+2     :     0.001742
      f-2     :     0.001681
      f+3     :     0.001545
      f-3     :     0.001736

 41 N s       :     3.426509  s :     3.426509
      pz      :     1.099430  p :     3.673334
      px      :     1.324440
      py      :     1.249464
      dz2     :     0.013100  d :     0.070780
      dxz     :     0.015940
      dyz     :     0.019064
      dx2y2   :     0.014806
      dxy     :     0.007871
      f0      :     0.000875  f :     0.004877
      f+1     :     0.000875
      f-1     :     0.000886
      f+2     :     0.000061
      f-2     :     0.000734
      f+3     :     0.000663
      f-3     :     0.000782

 42 C s       :     3.197042  s :     3.197042
      pz      :     1.001603  p :     2.814476
      px      :     0.936396
      py      :     0.876477
      dz2     :     0.022331  d :     0.097673
      dxz     :     0.018044
      dyz     :     0.020589
      dx2y2   :     0.025336
      dxy     :     0.011373
      f0      :     0.002047  f :     0.011062
      f+1     :     0.001764
      f-1     :     0.001707
      f+2     :     0.000272
      f-2     :     0.001412
      f+3     :     0.001635
      f-3     :     0.002225

 43 C s       :     3.177005  s :     3.177005
      pz      :     0.875956  p :     2.825892
      px      :     0.985341
      py      :     0.964595
      dz2     :     0.032871  d :     0.114651
      dxz     :     0.026981
      dyz     :     0.027460
      dx2y2   :     0.013956
      dxy     :     0.013382
      f0      :     0.001416  f :     0.011577
      f+1     :     0.001826
      f-1     :     0.002088
      f+2     :     0.001723
      f-2     :     0.001887
      f+3     :     0.001337
      f-3     :     0.001302

 44 H s       :     0.774215  s :     0.774215
      pz      :     0.004103  p :     0.021921
      px      :     0.008056
      py      :     0.009763

 45 H s       :     0.789159  s :     0.789159
      pz      :     0.011775  p :     0.022296
      px      :     0.005254
      py      :     0.005267

 46 H s       :     0.800875  s :     0.800875
      pz      :     0.004485  p :     0.022374
      px      :     0.008072
      py      :     0.009816

 47 H s       :     0.672480  s :     0.672480
      pz      :     0.015125  p :     0.037639
      px      :     0.010994
      py      :     0.011519



                     *******************************
                     * LOEWDIN POPULATION ANALYSIS *
                     *******************************

----------------------
LOEWDIN ATOMIC CHARGES
----------------------
   0 N :    0.207791
   1 N :    0.179717
   2 N :    0.181130
   3 N :    0.188664
   4 C :   -0.195096
   5 C :   -0.194925
   6 C :   -0.196477
   7 C :   -0.196049
   8 C :   -0.138679
   9 C :   -0.138109
  10 C :   -0.214850
  11 C :   -0.212235
  12 C :   -0.223379
  13 C :   -0.220569
  14 C :   -0.132750
  15 C :   -0.131496
  16 C :   -0.122274
  17 C :   -0.121112
  18 C :   -0.086710
  19 C :   -0.086531
  20 C :   -0.223500
  21 C :   -0.223092
  22 C :   -0.134461
  23 C :   -0.134427
  24 H :    0.152284
  25 H :    0.149293
  26 H :    0.152068
  27 H :    0.149552
  28 H :    0.163925
  29 H :    0.164023
  30 H :    0.145162
  31 H :    0.145317
  32 H :    0.146885
  33 H :    0.146984
  34 H :    0.167437
  35 H :    0.167464
  36 H :    0.145012
  37 H :    0.145049
  38 Mg:    0.066328
  39 N :    0.156826
  40 C :   -0.241074
  41 N :    0.214805
  42 C :   -0.213574
  43 C :   -0.226146
[...]
  0-1A  ->  1-1A    2.268899   18299.9   546.5   0.205126119   0.02566  -0.09826   0.12648   0.00172
  0-1A  ->  2-1A    2.448471   19748.3   506.4   0.019279509   0.00260   0.03992   0.03175  -0.00056
  0-1A  ->  3-1A    3.274911   26413.9   378.6   1.164276343   0.21018  -0.36749  -0.27405   0.00592
  0-1A  ->  4-1A    3.320685   26783.1   373.4   0.839257490   0.15363   0.23072  -0.31680  -0.00593
  0-1A  ->  5-1A    3.718370   29990.7   333.4   0.016290890   0.00334   0.03782  -0.04363  -0.00227
  0-1A  ->  6-1A    3.775038   30447.7   328.4   0.022779659   0.00474   0.05200   0.04487  -0.00475
  0-1A  ->  7-1A    4.027832   32486.7   307.8   0.067695833   0.01503  -0.09486  -0.07685  -0.01127
  0-1A  ->  8-1A    4.077765   32889.4   304.0   0.124038492   0.02788   0.13402   0.09958  -0.00231
  0-1A  ->  9-1A    4.280493   34524.5   289.6   0.033920609   0.00800   0.05382  -0.07145  -0.00151
  0-1A  -> 10-1A    4.375673   35292.2   283.3   0.001898674   0.00046   0.00257   0.02115   0.00197
  0-1A  -> 11-1A    4.516181   36425.5   274.5   0.000824062   0.00021  -0.00050  -0.00962  -0.01060
  0-1A  -> 12-1A    4.539048   36609.9   273.2   0.144628661   0.03619   0.11675  -0.15012  -0.00458
  0-1A  -> 13-1A    4.653916   37536.4   266.4   0.006268565   0.00161   0.03896  -0.00937  -0.00167
  0-1A  -> 14-1A    4.672149   37683.4   265.4   0.046404655   0.01195   0.07712   0.07748  -0.00018
  0-1A  -> 15-1A    4.715200   38030.7   262.9   0.114632674   0.02980  -0.10703   0.13542   0.00008
  0-1A  -> 16-1A    4.750289   38313.7   261.0   0.008880682   0.00233   0.03669  -0.02978  -0.00961
  0-1A  -> 17-1A    4.851592   39130.7   255.6   0.027369575   0.00732   0.05720   0.06362   0.00003
  0-1A  -> 18-1A    4.861158   39207.9   255.1   0.148870189   0.03989   0.13719  -0.14514  -0.00233
  0-1A  -> 19-1A    4.930990   39771.1   251.4   0.000804247   0.00022   0.01290  -0.00721  -0.00021
  0-1A  -> 20-1A    4.980430   40169.9   248.9   0.020951334   0.00575  -0.01511   0.07422  -0.00383
  0-1A  -> 21-1A    4.990959   40254.8   248.4   0.000803470   0.00022   0.01215  -0.00847  -0.00130
  0-1A  -> 22-1A    5.110940   41222.5   242.6   0.003387587   0.00095  -0.01050  -0.00245   0.02895
  0-1A  -> 23-1A    5.195334   41903.2   238.6   0.003873705   0.00111   0.01068  -0.01282  -0.02882
  0-1A  -> 24-1A    5.222244   42120.2   237.4   0.000139896   0.00004  -0.00463   0.00393   0.00184
  0-1A  -> 25-1A    5.244203   42297.4   236.4   0.000078950   0.00002   0.00077   0.00379   0.00281
  0-1A  -> 26-1A    5.353780   43181.1   231.6   0.076266028   0.02251  -0.09362   0.11706   0.00630
  0-1A  -> 27-1A    5.510792   44447.5   225.0   0.004742487   0.00144  -0.02506   0.02817   0.00438
  0-1A  -> 28-1A    5.568734   44914.9   222.6   0.003258162   0.00100  -0.01328   0.02812   0.00577
  0-1A  -> 29-1A    5.618826   45318.9   220.7   0.006310563   0.00195   0.03061   0.02890  -0.01350
  0-1A  -> 30-1A    5.671104   45740.5   218.6   0.000155885   0.00005   0.00167  -0.00669  -0.00110

------------------------------------------------------------------------------------------
                     CD SPECTRUM VIA TRANSITION ELECTRIC DIPOLE MOMENTS    
------------------------------------------------------------------------------------------
     Transition      Energy     Energy  Wavelength    R        MX        MY        MZ   
                      (eV)      (cm-1)    (nm)   (1e40*cgs)   (au)      (au)      (au)  
------------------------------------------------------------------------------------------
  0-1A  ->  1-1A    2.268899   18299.9   546.5    0.23478   0.07318   0.06952  -0.87384
  0-1A  ->  2-1A    2.448471   19748.3   506.4   -0.68954   0.02373  -0.03384   0.00583
  0-1A  ->  3-1A    3.274911   26413.9   378.6  -21.07172  -0.16811   0.24480  -0.00484
  0-1A  ->  4-1A    3.320685   26783.1   373.4    2.64865  -0.25012  -0.18395  -0.01598
  0-1A  ->  5-1A    3.718370   29990.7   333.4   -1.50529  -0.02511  -0.04201   0.58341
  0-1A  ->  6-1A    3.775038   30447.7   328.4   -0.38849   0.04774  -0.06173  -0.03676
  0-1A  ->  7-1A    4.027832   32486.7   307.8   -2.86725  -0.04765   0.07766  -0.04747
  0-1A  ->  8-1A    4.077765   32889.4   304.0    0.11653   0.06804  -0.09160  -0.02243
  0-1A  ->  9-1A    4.280493   34524.5   289.6    0.00731  -0.06523  -0.06117   0.57038
  0-1A  -> 10-1A    4.375673   35292.2   283.3   11.18625  -0.14076   0.19502   0.03299
  0-1A  -> 11-1A    4.516181   36425.5   274.5   -0.11582  -0.01267   0.00569  -0.00072
  0-1A  -> 12-1A    4.539048   36609.9   273.2    0.58490  -0.12981  -0.08227  -0.66696
  0-1A  -> 13-1A    4.653916   37536.4   266.4    1.51443   0.00859  -0.02223  -0.00055
  0-1A  -> 14-1A    4.672149   37683.4   265.4    1.10331   0.05245  -0.04697  -0.01418
  0-1A  -> 15-1A    4.715200   38030.7   262.9   -0.79356   0.05485   0.04130  -0.14897
  0-1A  -> 16-1A    4.750289   38313.7   261.0    2.04033  -0.05146  -0.08535  -0.00891
  0-1A  -> 17-1A    4.851592   39130.7   255.6    2.69219   0.05387  -0.03257   0.02276
  0-1A  -> 18-1A    4.861158   39207.9   255.1  -10.77624  -0.14942  -0.11028  -0.17068
  0-1A  -> 19-1A    4.930990   39771.1   251.4   -2.46210  -0.14324  -0.12422  -0.01848
  0-1A  -> 20-1A    4.980430   40169.9   248.9   10.97018  -0.00343   0.06146   0.09419
  0-1A  -> 21-1A    4.990959   40254.8   248.4    0.21480   0.00282   0.01783  -0.15115
  0-1A  -> 22-1A    5.110940   41222.5   242.6   -0.27858  -0.02518   0.03680  -0.01028
  0-1A  -> 23-1A    5.195334   41903.2   238.6   -0.70372  -0.04351   0.02219  -0.01851
  0-1A  -> 24-1A    5.222244   42120.2   237.4   -0.24197   0.05079   0.03456   0.00707
  0-1A  -> 25-1A    5.244203   42297.4   236.4   -0.14150  -0.01026  -0.02542   0.01302
  0-1A  -> 26-1A    5.353780   43181.1   231.6    3.42308   0.12005   0.08102   0.50800
  0-1A  -> 27-1A    5.510792   44447.5   225.0   -0.40320   0.06574   0.02826   0.16286
  0-1A  -> 28-1A    5.568734   44914.9   222.6    2.25770  -0.03849  -0.02493   0.19450
  0-1A  -> 29-1A    5.618826   45318.9   220.7   -1.56854   0.00737  -0.03952  -0.01377
  0-1A  -> 30-1A    5.671104   45740.5   218.6    0.17709  -0.02535  -0.01817   0.00025

------------------------------------------------------------------------------------------
                     CD SPECTRUM VIA TRANSITION VELOCITY DIPOLE MOMENTS    
------------------------------------------------------------------------------------------
     Transition      Energy     Energy  Wavelength    R        MX        MY        MZ   
                      (eV)      (cm-1)    (nm)   (1e40*cgs)   (au)      (au)      (au)  
------------------------------------------------------------------------------------------
  0-1A  ->  1-1A    2.268899   18299.9   546.5    0.56456   0.07318   0.06952  -0.87384
  0-1A  ->  2-1A    2.448471   19748.3   506.4   -0.68421   0.02373  -0.03384   0.00583
  0-1A  ->  3-1A    3.274911   26413.9   378.6  -20.90384  -0.16811   0.24480  -0.00484
  0-1A  ->  4-1A    3.320685   26783.1   373.4    2.56080  -0.25012  -0.18395  -0.01598
  0-1A  ->  5-1A    3.718370   29990.7   333.4   -1.52727  -0.02511  -0.04201   0.58341
  0-1A  ->  6-1A    3.775038   30447.7   328.4   -0.38374   0.04774  -0.06173  -0.03676
  0-1A  ->  7-1A    4.027832   32486.7   307.8   -2.90980  -0.04765   0.07766  -0.04747
  0-1A  ->  8-1A    4.077765   32889.4   304.0    0.15311   0.06804  -0.09160  -0.02243
  0-1A  ->  9-1A    4.280493   34524.5   289.6   -0.01226  -0.06523  -0.06117   0.57038
  0-1A  -> 10-1A    4.375673   35292.2   283.3   11.22401  -0.14076   0.19502   0.03299
  0-1A  -> 11-1A    4.516181   36425.5   274.5   -0.11589  -0.01267   0.00569  -0.00072
  0-1A  -> 12-1A    4.539048   36609.9   273.2    0.71177  -0.12981  -0.08227  -0.66696
  0-1A  -> 13-1A    4.653916   37536.4   266.4    1.49872   0.00859  -0.02223  -0.00055
  0-1A  -> 14-1A    4.672149   37683.4   265.4    1.11998   0.05245  -0.04697  -0.01418
  0-1A  -> 15-1A    4.715200   38030.7   262.9   -0.78764   0.05485   0.04130  -0.14897
  0-1A  -> 16-1A    4.750289   38313.7   261.0    1.99529  -0.05146  -0.08535  -0.00891
  0-1A  -> 17-1A    4.851592   39130.7   255.6    2.67044   0.05387  -0.03257   0.02276
  0-1A  -> 18-1A    4.861158   39207.9   255.1  -10.80255  -0.14942  -0.11028  -0.17068
  0-1A  -> 19-1A    4.930990   39771.1   251.4   -2.46775  -0.14324  -0.12422  -0.01848
  0-1A  -> 20-1A    4.980430   40169.9   248.9   10.95631  -0.00343   0.06146   0.09419
  0-1A  -> 21-1A    4.990959   40254.8   248.4    0.20348   0.00282   0.01783  -0.15115
  0-1A  -> 22-1A    5.110940   41222.5   242.6   -0.30990  -0.02518   0.03680  -0.01028
  0-1A  -> 23-1A    5.195334   41903.2   238.6   -0.53330  -0.04351   0.02219  -0.01851
  0-1A  -> 24-1A    5.222244   42120.2   237.4   -0.21135   0.05079   0.03456   0.00707
  0-1A  -> 25-1A    5.244203   42297.4   236.4   -0.16516  -0.01026  -0.02542   0.01302
  0-1A  -> 26-1A    5.353780   43181.1   231.6    3.46663   0.12005   0.08102   0.50800
  0-1A  -> 27-1A    5.510792   44447.5   225.0   -0.32206   0.06574   0.02826   0.16286
  0-1A  -> 28-1A    5.568734   44914.9   222.6    2.14749  -0.03849  -0.02493   0.19450
  0-1A  -> 29-1A    5.618826   45318.9   220.7   -1.66830   0.00737  -0.03952  -0.01377
  0-1A  -> 30-1A    5.671104   45740.5   218.6    0.17874  -0.02535  -0.01817   0.00025

Total run time:     8655.654 sec

           *** ORCA-CIS/TD-DFT FINISHED WITHOUT ERROR ***
-----------------------
CIS/TD-DFT TOTAL ENERGY
-----------------------

    E(SCF)  =  -1414.989969355 Eh
    DE(CIS) =      0.083380519 Eh (Root  1)
    ----------------------------- ---------
    E(tot)  =  -1414.906588836 Eh


Maximum memory used throughout the entire CIS-calculation: 2665.4 MB
=> NOW LEAVING ORCA_CIS

-------------------------   --------------------
FINAL SINGLE POINT ENERGY     -1414.906588836088
-------------------------   --------------------



           ************************************************************
           *        Program running with 4 parallel MPI-processes     *
           *              working on a common directory               *
           ************************************************************

------------------------------------------------------------------------------
                              ORCA PROPERTY CALCULATIONS
------------------------------------------------------------------------------

GBWName                                 ... tddft.gbw
Number of atoms                         ...     48
Number of basis functions               ...   1039
Max core memory                         ...   3000 MB

Electric properties:
Dipole moment                           ... YES
Quadrupole moment                       ...  NO
Static polarizability (Dipole/Dipole)   ...  NO
Static polarizability (Dipole/Quad.)    ...  NO
Static polarizability (Quad./Quad.)     ...  NO
Static polarizability (Velocity)        ...  NO
Static hyperpolarizability              ...  NO

Atomic electric properties:
Dipole moment                           ...  NO
Quadrupole moment                       ...  NO
Static polarizability                   ...  NO

Choice of electric origin               ... Center of mass
Position of electric origin             ...     0.103281     0.078834     1.097617

General magnetic properties:
Magnetizability                         ...  NO

EPR properties:
g-Tensor (aka g-matrix)                 ...  NO
Zero-Field splitting spin-orbit         ...  NO
Zero-field splitting spin-spin          ...  NO
Hyperfine couplings                     ...  NO (   0 nuclei)
Quadrupole couplings                    ...  NO (   0 nuclei)
Contact density                         ...  NO (   0 nuclei)

NMR properties:
Chemical shifts                         ...  NO (   0 nuclei)
Spin-rotation constants                 ...  NO (   0 nuclei)
Spin-spin couplings                     ...  NO (   0 nuclei,    0 pairs)

Choice of magnetic origin               ... GIAO
Position of magnetic origin             ...     0.000000     0.000000     0.000000

Properties with geometric perturbations:
SCF Hessian                             ...  NO
IR spectrum                             ...  NO
VCD spectrum                            ...  NO
X-ray spectroscopy properties:
SCF XES/XAS/RIXS spectra                ...  NO

SCF SOC stabilization energy            ...  NO
Diagonal Born-Oppenheimer correction    ...  NO

-------------
DIPOLE MOMENT
-------------

Method             : SCF
Type of density    : Electron Density
Multiplicity       :   1
Irrep              :   0
Energy             : -1414.9899693550978554 Eh
Basis              : AO
                                X                 Y                 Z
Electronic contribution:     -5.650998215      -3.759727628      -1.302282873
Nuclear contribution   :      6.342772600       5.187774044       4.341567363
                        -----------------------------------------
Total Dipole Moment    :      0.691774385       1.428046416       3.039284490
                        -----------------------------------------
Magnitude (a.u.)       :      3.428573840
Magnitude (Debye)      :      8.714742129



--------------------
Rotational spectrum 
--------------------
 
Rotational constants in cm-1:             0.006132             0.006084             0.004304 
Rotational constants in MHz :           183.841401           182.386496           129.043387 

Dipole components along the rotational axes: 
x,y,z [a.u.] :     1.342055     0.863438     3.034548 
x,y,z [Debye]:     3.411232     2.194686     7.713208 

 

Dipole moment calculation done in   0.1 sec 

Maximum memory used throughout the entire PROP-calculation: 125.1 MB

--------------------------------
SUGGESTED CITATIONS FOR THIS RUN
--------------------------------

Below you find a list of papers that are relevant to this ORCA run
We neither can nor want to force you to cite these papers, but we appreciate if you do
You receive ORCA, which is the product of decades of hard work by many enthusiastic individuals, for free
The only thing we kindly ask in return is that you cite our papers,
We deeply appreciate it, if you show your appreciation for ORCA by not just citing the generic ORCA reference.

Please note that relegating all ORCA citations to the supporting information does *not* help us.
SI sections are not indexed - citations you put there will not count into any citation statistics
But we need these citations in order to attract the funding resources that allow us to do what we are doing

Therefore, if you are a happy ORCA user, please consider citing a few of the papers listed below in the main body of your paper

In addition to the list printed below, the program has created the file tddft.bibtex that contains the list in bibtex format
You can import this file easily into all common literature databanks and citation aid programs

It goes without saying that in many instances, there are alternative algorithms to achieve similar
results as the ones you have gotten from ORCA. It is, of course, also the case that in some instances
ORCA just re-implements algorithms worked out by others. We are fully aware of that and we are also
fully appreciative of our colleagues work. Hence this citation list should not be read as indicating
that the listed papers, which are focused on our own work, are the only ones worth citing. It simply
meant to make it easier for users to cite ORCA specific papers. It is not a substitute for doing your
own literature research and citing the relevant literature in a scientifically appropriate manner.

List of essential papers. We consider these as the minimum necessary citations

  1. Neese, F.
     Software update: the ORCA program system, version 6.0
     WIRES Comput. Molec. Sci. 2025 15(1), e70019
     doi.org/10.1002/wcms.70019

List of papers to cite with high priority. The work reported in these papers was absolutely
necessary for this run to complete.
Our perspective: the developers of density functionals and basis sets usually get cited in chemistry papers
Good! But without the algorithms to do something with them, the functionals or basis sets would not do anything.
Hence, in our opinion, the algorithm design and method developments papers are equally worthy of getting cited

  1. Neese, F.; Olbrich, G.
     Efficient use of the resolution of the identity approximation in time-dependent density functional calculations with hybrid density functionals
     Chem. Phys. Lett. 2002 362 , 170-178
     doi.org/10.1016/s0009-2614(02)01053-9
  2. Neese, F.
     An improvement of the resolution of the identity approximation for the formation of the Coulomb matrix
     J. Comp. Chem. 2003 24(14), 1740-1747
     doi.org/10.1002/jcc.10318
  3. Neese, F.; Wennmohs, F.; Hansen, A.; Becker, U.
     Efficient, approximate and parallel Hartree-Fock and hybrid DFT calculations. A 'chain-of-spheres' algorithm for the Hartree-Fock exchange
     Chem. Phys. 2009 356(1-3), 98-109
     doi.org/10.1016/j.chemphys.2008.10.036
  4. Garcia-Rates, M.; Neese, F.
     Effect of the Solute Cavity on the Solvation Energy and its Derivatives within the Framework of the Gaussian Charge Scheme
     J. Comput. Chem. 2020 41 , 922-939
     doi.org/10.1002/jcc.26139
  5. Helmich-Paris, B.; de Souza, B.; Neese, F.; Izsák, R.
     An improved chain of spheres for exchange algorithm
     J. Chem. Phys. 2021 155(10), 104109
     doi.org/10.1063/5.0058766
  6. Neese, F.
     The SHARK Integral Generation and Digestion System
     J. Comp. Chem. 2022 44(3), 381
     doi.org/10.1002/jcc.26942

List of suggested additional citations. These are papers that are important in the 'surrounding' of 
of this run, or papers that preceded the highly important papers. If you like your results we are grateful for a citation.

  1. Izsak, R.; Neese, F.
     An overlap fitted chain of spheres exchange method
     J. Chem. Phys. 2011 135 , 144105
     doi.org/10.1063/1.3646921
  2. Izsak, R.; Hansen, A.; Neese, F.
     The resolution of identity and chain of spheres approximations for the LPNO-CCSD singles Fock term
     Molec. Phys. 2012 110 , 2413-2417
     doi.org/10.1080/00268976.2012.687466
  3. Neese, F.
     The ORCA program system
     WIRES Comput. Molec. Sci. 2012 2(1), 73-78
     doi.org/10.1002/wcms.81
  4. Izsak, R.; Neese, F.; Klopper, W.
     Robust fitting techniques in the chain of spheres approximation to the Fock exchange: The role of the complementary space
     J. Chem. Phys. 2013 139 , 
     doi.org/10.1063/1.4819264
  5. Neese, F.
     Software update: the ORCA program system, version 4.0
     WIRES Comput. Molec. Sci. 2018 8(1), 1-6
     doi.org/10.1002/wcms.1327
  6. Neese, F.; Wennmohs, F.; Becker, U.; Riplinger, C.
     The ORCA quantum chemistry program package
     J. Chem. Phys. 2020 152(22), 224108
     doi.org/10.1063/5.0004608
  7. Neese, F.
     Software update: The ORCA program system—Version 5.0
     WIRES Comput. Molec. Sci. 2022 12(1), e1606
     doi.org/10.1002/wcms.1606

List of optional additional citations

  1. Neese, F.
     Approximate second-order SCF convergence for spin unrestricted wavefunctions
     Chem. Phys. Lett. 2000 325(1-3), 93-98
     doi.org/10.1016/s0009-2614(00)00662-x

Timings for individual modules:

Sum of individual times          ...    10854.543 sec (= 180.909 min)
Startup calculation              ...       49.417 sec (=   0.824 min)   0.5 %
SCF iterations                   ...     2142.352 sec (=  35.706 min)  19.7 %
Property integrals               ...        5.721 sec (=   0.095 min)   0.1 %
Property calculations            ...        0.732 sec (=   0.012 min)   0.0 %
CIS module                       ...     8656.321 sec (= 144.272 min)  79.7 %
                             ****ORCA TERMINATED NORMALLY****
TOTAL RUN TIME: 0 days 3 hours 0 minutes 54 seconds 933 msec
