
                                 *****************
                                 * O   R   C   A *
                                 *****************

                                            #,                                       
                                            ###                                      
                                            ####                                     
                                            #####                                    
                                            ######                                   
                                           ########,                                 
                                     ,,################,,,,,                         
                               ,,#################################,,                 
                          ,,##########################################,,             
                       ,#########################################, ''#####,          
                    ,#############################################,,   '####,        
                  ,##################################################,,,,####,       
                ,###########''''           ''''###############################       
              ,#####''   ,,,,##########,,,,          '''####'''          '####       
            ,##' ,,,,###########################,,,                        '##       
           ' ,,###''''                  '''############,,,                           
         ,,##''                                '''############,,,,        ,,,,,,###''
      ,#''                                            '''#######################'''  
     '                                                          ''''####''''         
             ,#######,   #######,   ,#######,      ##                                
            ,#'     '#,  ##    ##  ,#'     '#,    #''#        ,####,    ,#,          
            ##       ##  ##   ,#'  ##            #'  '#       #'       ,# #          
            ##       ##  #######   ##           ,######,      #####,      #          
            '#,     ,#'  ##    ##  '#,     ,#' ,#      #,     #,   #      #          
             '#######'   ##     ##  '#######'  #'      '#     '####' #    #          



                #########################################################
                #                        -***-                          #
                #          Department of theory and spectroscopy        #
                #                                                       #
                #                      Frank Neese                      #
                #                                                       #
                #     Directorship, Architecture, Infrastructure        #
                #                    SHARK, DRIVERS                     #
                #        Core code/Algorithms in most modules           #
                #                                                       #
                #        Max Planck Institute fuer Kohlenforschung      #
                #                Kaiser Wilhelm Platz 1                 #
                #                 D-45470 Muelheim/Ruhr                 #
                #                      Germany                          #
                #                                                       #
                #                  All rights reserved                  #
                #                        -***-                          #
                #########################################################


                         Program Version 6.1.1  -  RELEASE   -
                                (GIT: $487d211c$)
                          ($2025-11-21 10:33:24 +0100$)


 With contributions from (in alphabetic order):
[Max-Planck-Institut fuer Kohlenforschung]                               
  Daniel Aravena         : Magnetic Suceptibility                        
  Michael Atanasov       : Ab Initio Ligand Field Theory (pilot matlab implementation)
  Alexander A. Auer      : GIAO ZORA, VPT2 properties, NMR spectrum      
  Ute Becker             : All parallelization in ORCA, NUMFREQ, NUMCALC 
  Giovanni Bistoni       : ED, misc. LED, open-shell LED, HFLD           
  Dmytro Bykov           : pre 5.0 version of the SCF Hessian            
  Marcos Casanova-Páez   : Triplet and SCS-CIS(D). UHF-(DLPNO)-IP/EA/STEOM-CCSD. UHF-CVS-IP/STEOM-CCSD   
  Vijay G. Chilkuri      : MRCI spin determinant printing, contributions to CSF-ICE 
  Pauline Colinet        : FMM embedding                                 
  Dipayan Datta          : RHF DLPNO-CCSD density                        
  Achintya Kumar Dutta   : EOM-CC, STEOM-CC                              
  Nicolas Foglia         : Exact transition moments, OPA infrastructure, MCD improvements    
  Dmitry Ganyushin       : Spin-Orbit,Spin-Spin,Magnetic field MRCI      
  Miquel Garcia-Rates    : C-PCM and meta-GGA Hessian, CCSD/C-PCM, Gaussian charge scheme 
  Tiago L. C. Gouveia    : GS-ROHF, GS-ROCIS                             
  Yang Guo               : DLPNO-NEVPT2, F12-NEVPT2, CIM, IAO-localization        
  Andreas Hansen         : Spin unrestricted coupled pair/coupled cluster methods 
  Ingolf Harden          : AUTO-CI MPn and infrastructure                
  Benjamin Helmich-Paris : MC-RPA, TRAH-(SCF,CASSCF), AVAS, COSX integrals, SCF dyn. polar., MC-PDFT, srDFT 
  Lee Huntington         : MR-EOM, pCC                                   
  Robert Izsak           : Overlap fitted RIJCOSX, COSX-SCS-MP3, EOM     
  Riya Kayal             : Wick's Theorem for AUTO-CI, AUTO-CI UHF-CCSDT 
  Emily Kempfer          : AUTO-CI RHF CISDT and CCSDT, approximate NEVPT4
  Christian Kollmar      : KDIIS, OOCD, Brueckner-CCSD(T), CCSD density, CASPT2, CASPT2-K, improved NEVPT2 
  Axel Koslowski         : Symmetry handling                             
  Simone Kossmann        : meta-GGA functionals, TD-DFT gradient, OOMP2, (MP2 Hessian; deprecated post 5.0) 
  Lucas Lang             : DCDCAS, Hyperfine gauge corrections, ICE-SOC+SSC
  Marvin Lechner         : AUTO-CI (C++ implementation), FIC-MRCC        
  Spencer Leger          : CASSCF response                               
  Dagmar Lenk            : GEPOL surface, SMD, ORCA-2-JSON               
  Dimitrios Liakos       : Extrapolation schemes; Compound Job, Property file
  Dimitrios Manganas     : Further ROCIS development; embedding schemes. LFT, Crystal Embedding 
  Dimitrios Pantazis     : SARC Basis sets                               
  Anastasios Papadopoulos: AUTO-CI, single reference methods and gradients 
  Taras Petrenko         : pre 6.0 DFT Hessian and TD-DFT gradient,  ECA, NRVS 
  Petra Pikulova         : Analytic Raman intensities                    
  Peter Pinski           : DLPNO-MP2, DLPNO-MP2 Gradient                 
  Shashank Vittal Rao    : ES-AILFT, MagRelax                            
  Christoph Reimann      : Effective Core Potentials                     
  Marius Retegan         : Local ZFS, SOC                                
  Christoph Riplinger    : Optimizer, TS searches, QM/MM, DLPNO-CCSD(T), (RO)-DLPNO pert. Triples 
  Michael Roemelt        : Original ROCIS implementation, recursive CI coupling coefficients
  Masaaki Saitow         : Open-shell DLPNO-CCSD energy and density      
  Barbara Sandhoefer     : DKH picture change effects                    
  Yorick L. A. Schmerwitz: GMF and freeze-and-release deltaSCF, NEB S-IDPP initial path                    
  Kantharuban Sivalingam : CASSCF convergence/infrastructure, NEVPT2, NEVPT3, NEVPT4(SD), FIC-MRCI and CEPA variants
  Bernardo de Souza      : ESD, SOC TD-DFT                               
  Georgi L. Stoychev     : AutoAux, RI-MP2 NMR, DLPNO-MP2 response, X2C  
  Van Anh Tran           : RI-MP2 g-tensors                              
  Willem Van den Heuvel  : Paramagnetic NMR                              
  Zikuan Wang            : NOTCH, Electric field optimization            
  Frank Wennmohs         : Technical directorship and infrastructure     
  Hang Xu                : AUTO-CI-Response properties                   
                                                                         
[FACCTs GmbH]                                                            
  Markus Bursch, Nicolas Foglia, Miquel Garcia-Rates, Ingolf Harden, Hagen Neugebauer, Anastasios Papadopoulos, 
  Christoph Riplinger, Bernardo de Souza, Georgi L. Stoychev                                                    
                                                                 
  APM, various basis sets, CI-OPT, improved COSX, DLPNO-Multilevel,           
  DOCKER, DRACO, updates on ESD, Fragmentator, GOAT, IRC, LR-CPCM, L-BFGS, MBIS, meta-GGA TD-DFT gradient, ML-optimized integration grids, 
  MM, NACMEs, nearIR, NEB, NEB-TS, NL-DFT gradient (VV10), 2- and 3-layer-ONIOM, interface openCOSMO-RS, QMMM,   
  Crystal-QMMM, RESP, rigid body optimization, SF, symmetry and pop. for TD-DFT, various functionals, SOLVATOR                                   
                                                                         
[Other institutions]                                                     
  V. Asgeirsson          : NEB                                           
  Christoph Bannwarth    : sTDA-DFT, sTD-DFT, PBEh-3c, B97-3c, D3        
  Giovanni Bistoni       : ETS/NOCV, ADLD/ADEX, COVALED                  
  Martin Brehm           : Molecular dynamics                            
  Ronald Cardenas        : ETS/NOCV                                      
  Martina Colucci        : COVALED                                       
  Sebastian Ehlert       : rSCAN, r2SCAN, r2SCAN-3c, D4, dhf basis sets  
  Marvin Friede          : D4 for Fr, Ra, Ac-Lr                          
  Lars Goerigk           : TD-DFT with DH, B97 family of functionals     
  Stefan Grimme          : VdW corrections, initial TS optimization, DFT functionals, gCP, sTDA/sTD-DF 
  Waldemar Hujo          : DFT-NL                                        
  H. Jonsson             : NEB                                           
  Holger Kruse           : gCP                                           
  Marcel Mueller         : wB97X-3c, vDZP basis set                      
  Hagen Neugebauer       : wr2SCAN, Native XTB                           
  Gianluca Regni         : ADLD/ADEX                                     
  Tobias Risthaus        : pre 6.0 range-separated hybrid DFT and stability analysis
  Lukas Wittmann         : regularized MP2, r2SCAN double-hybrids, wr2SCAN        
                                                                         
We gratefully acknowledge several colleagues who have allowed us to      
interface, adapt or use parts of their codes:                            
  Ed Valeev, F. Pavosevic, A. Kumar             : LibInt (2-el integral package), F12 methods 
  Garnet Chan, S. Sharma, J. Yang, R. Olivares  : DMRG                   
  Ulf Ekstrom                                   : XCFun DFT Library      
  Mihaly Kallay                                 : mrcc  (arbitrary order and MRCC methods)
  Frank Weinhold                                : gennbo (NPA and NBO analysis)           
  Simon Mueller                                 : openCOSMO-RS                            
  Christopher J. Cramer and Donald G. Truhlar   : smd solvation model                     
  S Lehtola, MJT Oliveira, MAL Marques          : LibXC Library                           
  Liviu Ungur et al                             : ANISO software                          


 Your calculation uses the libint2 library for the computation of 2-el integrals
 For citations please refer to: http://libint.valeyev.net

 Your ORCA version has been built with support for libXC version: 7.0.0
 For citations please refer to: https://libxc.gitlab.io

 This ORCA versions uses:
   CBLAS   interface :  Fast vector & matrix operations
   LAPACKE interface :  Fast linear algebra routines
   SCALAPACK package :  Parallel linear algebra routines
   Shared memory     :  Shared parallel matrices
   BLAS/LAPACK       :  OpenBLAS 0.3.29  USE64BITINT DYNAMIC_ARCH NO_AFFINITY Haswell SINGLE_THREADED
        Core in use  :  Haswell
   Copyright (c) 2011-2014, The OpenBLAS Project


  ***********************************
  * Starting time: Fri Jul 10 21:22:45 2026
  * Host name:     steezy
  * Process ID:    2067425
  * Working dir.:  /home/jannes/chlorophyll-ladder/009-mgchlorin-axial-ligation/mgchlorin_imidazole/03_tddft_ch2cl2/tpss
  ***********************************

NOTE: MaxCore=3000 MB was set to SCF,MP2,MDCI,CIPSI,MRCI,RASCI and CIS
      => If you want to overwrite this, your respective input block should be placed after the MaxCore statement


***************************************
The coordinates will be read from file: /home/jannes/chlorophyll-ladder/009-mgchlorin-axial-ligation/mgchlorin_imidazole/01_opt/mgchlorin_imidazole_opt_b3lypd4_tzvp.xyz
***************************************


================================================================================

----- Orbital basis set information -----
Your calculation utilizes the basis: def2-TZVP
   F. Weigend and R. Ahlrichs, Phys. Chem. Chem. Phys. 7, 3297 (2005).

----- AuxJ basis set information -----
Your calculation utilizes the auxiliary basis: def2/J
   H-Rn: F. Weigend, Phys. Chem. Chem. Phys. 8, 1057 (2006).
   Fr-Lr: K. Eichkorn, F. Weigend, O. Treutler, R. Ahlrichs; Theor. Chem. Acc. 97, 119 (1997).

================================================================================
                                        WARNINGS
                       Please study these warnings very carefully!
================================================================================



WARNING: Found flag for RIJCOSX approximation but no HF exchange needed!
  ===> : RIJCOSX  will be disabled and Split-RI-J is turned on

WARNING: CIS/ROCIS methods need fully converged wavefunctions
  ===> : Setting SCFConvForced true
         You can overwrite this default with %scf ConvForced false 


================================================================================
                                       INPUT FILE
================================================================================
NAME = tddft.inp
|  1> %pal nprocs 4 end
|  2> %maxcore 3000
|  3> ! TPSS def2-TZVP def2/J RIJCOSX DefGrid3 TightSCF CPCM(CH2Cl2)
|  4> %tddft
|  5>   nroots 30
|  6>   tda false
|  7>   triplets false
|  8> end
|  9> * xyzfile 0 1 /home/jannes/chlorophyll-ladder/009-mgchlorin-axial-ligation/mgchlorin_imidazole/01_opt/mgchlorin_imidazole_opt_b3lypd4_tzvp.xyz
| 10> 
| 11>                          ****END OF INPUT****
================================================================================

                       ****************************
                       * Single Point Calculation *
                       ****************************

---------------------------------
CARTESIAN COORDINATES (ANGSTROEM)
---------------------------------
  N      1.686977    1.314594   -0.070141
  N     -1.244066    1.614892    0.010363
  N      1.296068   -1.605044   -0.041730
  N     -1.595971   -1.274834   -0.003516
  C      2.970609    3.301555   -0.232211
  C      3.922431    2.104910   -0.102015
  C      1.597742    2.664663   -0.109541
  C      2.979759    0.914541   -0.093658
  C      0.434405    3.400412   -0.067464
  C      3.423560   -0.389267   -0.088962
  C     -0.889070    2.920137   -0.019573
  C      2.647232   -1.563978   -0.082176
  C     -2.620848    1.565510    0.027377
  C      0.926464   -2.931741   -0.066724
  C     -2.069437    3.748719   -0.008343
  C      3.177401   -2.905444   -0.124641
  C     -3.141080    2.907354    0.021299
  C      2.110072   -3.750696   -0.115251
  C     -3.378288    0.405243    0.033372
  C     -0.376898   -3.398678   -0.057022
  C     -2.911256   -0.915786    0.006138
  C     -1.553694   -2.636326   -0.036770
  C     -3.735300   -2.091666   -0.021863
  C     -2.889482   -3.163600   -0.049382
  H      3.066735    3.799064   -1.200440
  H      3.128997    4.062511    0.533242
  H      4.496140    2.134826    0.827766
  H      4.642784    2.039364   -0.918402
  H      0.544588    4.477580   -0.101599
  H      4.497149   -0.531874   -0.111807
  H     -2.073111    4.827608   -0.035091
  H      4.225360   -3.159508   -0.167527
  H     -4.188580    3.167597    0.023519
  H      2.117427   -4.829413   -0.148927
  H     -4.454237    0.532723    0.041623
  H     -0.502711   -4.474509   -0.080584
  H     -4.814489   -2.097809   -0.027947
  H     -3.147034   -4.211120   -0.081508
  Mg     0.030982    0.001266    0.263024
  N      0.086343    0.074074    2.409607
  C     -0.591908    0.918226    3.154555
  N     -0.375326    0.667276    4.465350
  C      0.491190   -0.400629    4.556276
  C      0.766939   -0.755449    3.268883
  H     -1.233194    1.701213    2.785884
  H      0.818760   -0.797491    5.500144
  H      1.398114   -1.545010    2.899381
  H     -0.782140    1.170094    5.235166

----------------------------
CARTESIAN COORDINATES (A.U.)
----------------------------
  NO LB      ZA    FRAG     MASS         X           Y           Z
   0 N     7.0000    0    14.007    3.187925    2.484222   -0.132548
   1 N     7.0000    0    14.007   -2.350945    3.051704    0.019584
   2 N     7.0000    0    14.007    2.449213   -3.033094   -0.078857
   3 N     7.0000    0    14.007   -3.015948   -2.409087   -0.006645
   4 C     6.0000    0    12.011    5.613637    6.239035   -0.438816
   5 C     6.0000    0    12.011    7.412321    3.977704   -0.192780
   6 C     6.0000    0    12.011    3.019295    5.035483   -0.207002
   7 C     6.0000    0    12.011    5.630929    1.728231   -0.176987
   8 C     6.0000    0    12.011    0.820907    6.425848   -0.127488
   9 C     6.0000    0    12.011    6.469590   -0.735609   -0.168113
  10 C     6.0000    0    12.011   -1.680100    5.518259   -0.036987
  11 C     6.0000    0    12.011    5.002544   -2.955489   -0.155291
  12 C     6.0000    0    12.011   -4.952684    2.958385    0.051734
  13 C     6.0000    0    12.011    1.750763   -5.540187   -0.126089
  14 C     6.0000    0    12.011   -3.910669    7.084053   -0.015767
  15 C     6.0000    0    12.011    6.004418   -5.490494   -0.235538
  16 C     6.0000    0    12.011   -5.935782    5.494104    0.040249
  17 C     6.0000    0    12.011    3.987459   -7.087787   -0.217793
  18 C     6.0000    0    12.011   -6.384039    0.765799    0.063063
  19 C     6.0000    0    12.011   -0.712233   -6.422570   -0.107755
  20 C     6.0000    0    12.011   -5.501477   -1.730584    0.011599
  21 C     6.0000    0    12.011   -2.936056   -4.981934   -0.069486
  22 C     6.0000    0    12.011   -7.058695   -3.952677   -0.041315
  23 C     6.0000    0    12.011   -5.460329   -5.978338   -0.093318
  24 H     1.0000    0     1.008    5.795289    7.179191   -2.268502
  25 H     1.0000    0     1.008    5.912948    7.677034    1.007682
  26 H     1.0000    0     1.008    8.496473    4.034237    1.564250
  27 H     1.0000    0     1.008    8.773590    3.853840   -1.735529
  28 H     1.0000    0     1.008    1.029122    8.461399   -0.191994
  29 H     1.0000    0     1.008    8.498380   -1.005095   -0.211285
  30 H     1.0000    0     1.008   -3.917613    9.122856   -0.066312
  31 H     1.0000    0     1.008    7.984774   -5.970606   -0.316580
  32 H     1.0000    0     1.008   -7.915269    5.985892    0.044444
  33 H     1.0000    0     1.008    4.001357   -9.126268   -0.281431
  34 H     1.0000    0     1.008   -8.417288    1.006701    0.078656
  35 H     1.0000    0     1.008   -0.949986   -8.455596   -0.152281
  36 H     1.0000    0     1.008   -9.098067   -3.964284   -0.052812
  37 H     1.0000    0     1.008   -5.947032   -7.957863   -0.154028
  38 Mg   12.0000    0    24.305    0.058547    0.002392    0.497043
  39 N     7.0000    0    14.007    0.163166    0.139979    4.553497
  40 C     6.0000    0    12.011   -1.118545    1.735195    5.961246
  41 N     7.0000    0    14.007   -0.709264    1.260969    8.438289
  42 C     6.0000    0    12.011    0.928215   -0.757080    8.610113
  43 C     6.0000    0    12.011    1.449305   -1.427593    6.177293
  44 H     1.0000    0     1.008   -2.330398    3.214827    5.264558
  45 H     1.0000    0     1.008    1.547233   -1.507039   10.393766
  46 H     1.0000    0     1.008    2.642052   -2.919646    5.479036
  47 H     1.0000    0     1.008   -1.478030    2.211158    9.893029

--------------------------------
INTERNAL COORDINATES (ANGSTROEM)
--------------------------------
 N      0   0   0     0.000000000000     0.00000000     0.00000000
 N      1   0   0     2.947486350172     0.00000000     0.00000000
 N      1   2   0     2.945828126371    88.20947573     0.00000000
 N      3   1   2     2.911079671341    91.11929974     0.80715272
 C      1   2   3     2.371073823090   117.05466142   176.90212528
 C      5   1   2     1.534560609903    71.12653572   176.43333539
 C      1   2   3     1.353588294752    80.42259655   178.54766819
 C      1   2   3     1.353470340789   168.64364198   357.76596920
 C      7   1   2     1.377116749417   125.99258173     1.50888961
 C      8   1   7     1.377278543597   125.98196374   181.20281987
 C      2   1   3     1.352990322192    80.60546467   180.52233867
 C      3   1   2     1.352393820728    80.62107172   179.90284917
 C      2   1   3     1.377771680673   172.05125211   353.39051782
 C      3   1   2     1.377445050622   171.90094100    12.88565013
 C     11   2   1     1.442199392872   109.83646179   179.55494343
 C     12   3   1     1.443057439826   109.85925776   181.45151808
 C     15  11   2     1.362788822813   106.80176759   359.65838229
 C     16  12   3     1.361517385722   106.79204084     0.29156805
 C     13   2  11     1.385630030716   125.19159905   178.69666656
 C     14   3  12     1.384512915517   125.26106051   180.89130603
 C      4   3   1     1.363446139236   171.23871913     1.67942532
 C      4   3   1     1.362553852118    81.69232101   178.15836169
 C     21   4  22     1.436150364206   109.74083976     0.00000000
 C     23  21   4     1.365726298515   106.71891006   359.96199257
 H      5   1   2     1.092804505014   119.32013955   281.69849699
 H      5   1   2     1.090899211643   127.96557171    71.25187495
 H      6   5   1     1.092944859141   112.11195893   244.98233562
 H      6   5   1     1.090730038156   113.14102048   123.91365165
 H      9   7   1     1.083325722172   116.38172549   179.54988406
 H     10   8   1     1.083260292684   116.35322274   179.92679746
 H     15  11   2     1.079226072128   125.23565366   180.54529963
 H     16  12   3     1.079169192758   125.22500344   179.61585041
 H     17  15  11     1.079345565166   127.90436383   180.91093752
 H     18  16  12     1.079267751577   127.94770026   179.30461915
 H     19  13   2     1.083506306146   116.38115741   180.32684545
 H     20  14   3     1.083418999991   116.36337595   179.96740579
 H     23  21   4     1.079223838068   125.34778292   180.43565273
 H     24  23  21     1.079195358710   127.92598576   180.44323431
 Mg     3   1   2     2.067256417027    46.56842154   349.30073568
 N     39   3   1     2.148530675946    99.08201017   263.50222852
 C     40  39   3     1.314369549312   125.08046622   181.84455130
 N     41  40  39     1.352060218300   110.34113851   177.63312489
 C     42  41  40     1.378238138060   107.96786427   359.94580940
 C     43  42  41     1.363566932247   105.45482476     0.03663726
 H     41  40  39     1.077141930779   125.45699601   357.72628083
 H     43  42  41     1.075029386219   122.38035120   180.17627298
 H     44  43  42     1.076252281312   129.31909261   180.29177562
 H     42  41  40     1.005454808586   125.77750555   180.32691267

---------------------------
INTERNAL COORDINATES (A.U.)
---------------------------
 N      0   0   0     0.000000000000     0.00000000     0.00000000
 N      1   0   0     5.569941985296     0.00000000     0.00000000
 N      1   2   0     5.566808396444    88.20947573     0.00000000
 N      3   1   2     5.501143332861    91.11929974     0.80715272
 C      1   2   3     4.480680168949   117.05466142   176.90212528
 C      5   1   2     2.899899288620    71.12653572   176.43333539
 C      1   2   3     2.557911175162    80.42259655   178.54766819
 C      1   2   3     2.557688274476   168.64364198   357.76596920
 C      7   1   2     2.602373510833   125.99258173     1.50888961
 C      8   1   7     2.602679257524   125.98196374   181.20281987
 C      2   1   3     2.556781170788    80.60546467   180.52233867
 C      3   1   2     2.555653946383    80.62107172   179.90284917
 C      2   1   3     2.603611151544   172.05125211   353.39051782
 C      3   1   2     2.602993910201   171.90094100    12.88565013
 C     11   2   1     2.725361883035   109.83646179   179.55494343
 C     12   3   1     2.726983356789   109.85925776   181.45151808
 C     15  11   2     2.575297653485   106.80176759   359.65838229
 C     16  12   3     2.572894985586   106.79204084     0.29156805
 C     13   2  11     2.618461280991   125.19159905   178.69666656
 C     14   3  12     2.616350239204   125.26106051   180.89130603
 C      4   3   1     2.576539801508   171.23871913     1.67942532
 C      4   3   1     2.574853623222    81.69232101   178.15836169
 C     21   4  22     2.713930875481   109.74083976     0.00000000
 C     23  21   4     2.580848678087   106.71891006   359.96199257
 H      5   1   2     2.065101232393   119.32013955   281.69849699
 H      5   1   2     2.061500749715   127.96557171    71.25187495
 H      6   5   1     2.065366463254   112.11195893   244.98233562
 H      6   5   1     2.061181058156   113.14102048   123.91365165
 H      9   7   1     2.047188928737   116.38172549   179.54988406
 H     10   8   1     2.047065284924   116.35322274   179.92679746
 H     15  11   2     2.039441712909   125.23565366   180.54529963
 H     16  12   3     2.039334226478   125.22500344   179.61585041
 H     17  15  11     2.039667522027   127.90436383   180.91093752
 H     18  16  12     2.039520475653   127.94770026   179.30461915
 H     19  13   2     2.047530182992   116.38115741   180.32684545
 H     20  14   3     2.047365198269   116.36337595   179.96740579
 H     23  21   4     2.039437491148   125.34778292   180.43565273
 H     24  23  21     2.039383672962   127.92598576   180.44323431
 Mg     3   1   2     3.906548476773    46.56842154   349.30073568
 N     39   3   1     4.060134567867    99.08201017   263.50222852
 C     40  39   3     2.483798486965   125.08046622   181.84455130
 N     41  40  39     2.555023529158   110.34113851   177.63312489
 C     42  41  40     2.604492628258   107.96786427   359.94580940
 C     43  42  41     2.576768067218   105.45482476     0.03663726
 H     41  40  39     2.035503256535   125.45699601   357.72628083
 H     43  42  41     2.031511125870   122.38035120   180.17627298
 H     44  43  42     2.033822062687   129.31909261   180.29177562
 H     42  41  40     1.900034228263   125.77750555   180.32691267

---------------------
BASIS SET INFORMATION
---------------------
There are 4 groups of distinct atoms

 Group   1 Type N   : 11s6p2d1f contracted to 5s3p2d1f pattern {62111/411/11/1}
 Group   2 Type C   : 11s6p2d1f contracted to 5s3p2d1f pattern {62111/411/11/1}
 Group   3 Type H   : 5s1p contracted to 3s1p pattern {311/1}
 Group   4 Type Mg  : 14s8p3d contracted to 5s4p3d pattern {73211/5111/111}

Atom   0N    basis set group =>   1
Atom   1N    basis set group =>   1
Atom   2N    basis set group =>   1
Atom   3N    basis set group =>   1
Atom   4C    basis set group =>   2
Atom   5C    basis set group =>   2
Atom   6C    basis set group =>   2
Atom   7C    basis set group =>   2
Atom   8C    basis set group =>   2
Atom   9C    basis set group =>   2
Atom  10C    basis set group =>   2
Atom  11C    basis set group =>   2
Atom  12C    basis set group =>   2
Atom  13C    basis set group =>   2
Atom  14C    basis set group =>   2
Atom  15C    basis set group =>   2
Atom  16C    basis set group =>   2
Atom  17C    basis set group =>   2
Atom  18C    basis set group =>   2
Atom  19C    basis set group =>   2
Atom  20C    basis set group =>   2
Atom  21C    basis set group =>   2
Atom  22C    basis set group =>   2
Atom  23C    basis set group =>   2
Atom  24H    basis set group =>   3
Atom  25H    basis set group =>   3
Atom  26H    basis set group =>   3
Atom  27H    basis set group =>   3
Atom  28H    basis set group =>   3
Atom  29H    basis set group =>   3
Atom  30H    basis set group =>   3
Atom  31H    basis set group =>   3
Atom  32H    basis set group =>   3
Atom  33H    basis set group =>   3
Atom  34H    basis set group =>   3
Atom  35H    basis set group =>   3
Atom  36H    basis set group =>   3
Atom  37H    basis set group =>   3
Atom  38Mg   basis set group =>   4
Atom  39N    basis set group =>   1
Atom  40C    basis set group =>   2
Atom  41N    basis set group =>   1
Atom  42C    basis set group =>   2
Atom  43C    basis set group =>   2
Atom  44H    basis set group =>   3
Atom  45H    basis set group =>   3
Atom  46H    basis set group =>   3
Atom  47H    basis set group =>   3
---------------------------------
AUXILIARY/J BASIS SET INFORMATION
---------------------------------
There are 4 groups of distinct atoms

 Group   1 Type N   : 12s5p4d2f1g contracted to 6s4p3d1f1g pattern {711111/2111/211/2/1}
 Group   2 Type C   : 12s5p4d2f1g contracted to 6s4p3d1f1g pattern {711111/2111/211/2/1}
 Group   3 Type H   : 5s2p1d contracted to 3s1p1d pattern {311/2/1}
 Group   4 Type Mg  : 14s5p5d2f1g contracted to 8s4p4d1f1g pattern {71111111/2111/2111/2/1}

Atom   0N    basis set group =>   1
Atom   1N    basis set group =>   1
Atom   2N    basis set group =>   1
Atom   3N    basis set group =>   1
Atom   4C    basis set group =>   2
Atom   5C    basis set group =>   2
Atom   6C    basis set group =>   2
Atom   7C    basis set group =>   2
Atom   8C    basis set group =>   2
Atom   9C    basis set group =>   2
Atom  10C    basis set group =>   2
Atom  11C    basis set group =>   2
Atom  12C    basis set group =>   2
Atom  13C    basis set group =>   2
Atom  14C    basis set group =>   2
Atom  15C    basis set group =>   2
Atom  16C    basis set group =>   2
Atom  17C    basis set group =>   2
Atom  18C    basis set group =>   2
Atom  19C    basis set group =>   2
Atom  20C    basis set group =>   2
Atom  21C    basis set group =>   2
Atom  22C    basis set group =>   2
Atom  23C    basis set group =>   2
Atom  24H    basis set group =>   3
Atom  25H    basis set group =>   3
Atom  26H    basis set group =>   3
Atom  27H    basis set group =>   3
Atom  28H    basis set group =>   3
Atom  29H    basis set group =>   3
Atom  30H    basis set group =>   3
Atom  31H    basis set group =>   3
Atom  32H    basis set group =>   3
Atom  33H    basis set group =>   3
Atom  34H    basis set group =>   3
Atom  35H    basis set group =>   3
Atom  36H    basis set group =>   3
Atom  37H    basis set group =>   3
Atom  38Mg   basis set group =>   4
Atom  39N    basis set group =>   1
Atom  40C    basis set group =>   2
Atom  41N    basis set group =>   1
Atom  42C    basis set group =>   2
Atom  43C    basis set group =>   2
Atom  44H    basis set group =>   3
Atom  45H    basis set group =>   3
Atom  46H    basis set group =>   3
Atom  47H    basis set group =>   3


           ************************************************************
           *        Program running with 4 parallel MPI-processes     *
           *              working on a common directory               *
           ************************************************************
------------------------------------------------------------------------------
                             ORCA STARTUP CALCULATIONS
                           -- RI-GTO INTEGRALS CHOSEN --
------------------------------------------------------------------------------
------------------------------------------------------------------------------
                   ___                                                        
                  /   \      - P O W E R E D   B Y -                         
                 /     \                                                     
                 |  |  |   _    _      __       _____    __    __             
                 |  |  |  | |  | |    /  \     |  _  \  |  |  /  |          
                  \  \/   | |  | |   /    \    | | | |  |  | /  /          
                 / \  \   | |__| |  /  /\  \   | |_| |  |  |/  /          
                |  |  |   |  __  | /  /__\  \  |    /   |      \           
                |  |  |   | |  | | |   __   |  |    \   |  |\   \          
                \     /   | |  | | |  |  |  |  | |\  \  |  | \   \       
                 \___/    |_|  |_| |__|  |__|  |_| \__\ |__|  \__/        
                                                                              
                      - O R C A' S   B I G   F R I E N D -                    
                                      &                                       
                       - I N T E G R A L  F E E D E R -                       
                                                                              
 v1 FN, 2020, v2 2021, v3 2022-2024                                           
------------------------------------------------------------------------------


----------------------
SHARK INTEGRAL PACKAGE
----------------------

Number of atoms                             ...     48
Number of basis functions                   ...   1039
Number of shells                            ...    403
Maximum angular momentum                    ...      3
Integral batch strategy                     ... SHARK/LIBINT Hybrid
RI-J (if used) integral strategy            ... SPLIT-RIJ (Revised 2003 algorithm where possible)
Printlevel                                  ...      1
Contraction scheme used                     ... SEGMENTED contraction
Prescreening option                         ... SCHWARTZ
   Thresh                                   ... 2.500e-11
   Tcut                                     ... 2.500e-12
   Tpresel                                  ... 2.500e-12 
Coulomb Range Separation                    ... NOT USED
Exchange Range Separation                   ... NOT USED
Multipole approximations                    ... NOT USED
Finite Nucleus Model                        ... NOT USED
CABS basis                                  ... NOT available
Auxiliary Coulomb fitting basis             ... AVAILABLE
   # of basis functions in Aux-J            ...   1675
   # of shells in Aux-J                     ...    543
   Maximum angular momentum in Aux-J        ...      4
Auxiliary J/K fitting basis                 ... NOT available
Auxiliary Correlation fitting basis         ... NOT available
Auxiliary 'external' fitting basis          ... NOT available

Checking pre-screening integrals            ... done (  0.0 sec) Dimension = 403
   => SHARK Basis and OBASIS are compatible. Storing Pre-screening
Shell pair information
Shell pair cut-off parameter TPreSel        ...   2.5e-12
Total number of shell pairs                 ...     81406
Shell pairs after pre-screening             ...     56511
Total number of primitive shell pairs       ...    255268
Primitive shell pairs kept                  ...    113104
          la=0 lb=0:  13747 shell pairs
          la=1 lb=0:  16197 shell pairs
          la=1 lb=1:   4776 shell pairs
          la=2 lb=0:   8278 shell pairs
          la=2 lb=1:   5060 shell pairs
          la=2 lb=2:   1377 shell pairs
          la=3 lb=0:   3500 shell pairs
          la=3 lb=1:   2211 shell pairs
          la=3 lb=2:   1136 shell pairs
          la=3 lb=3:    229 shell pairs

Checking whether 4 symmetric matrices of dimension 1039 fit in memory
:Max Core in MB      =   3000.00
 MB in use           =     71.41
 MB left             =   2928.59
 MB needed           =     16.49
 Data fit in memory  = YES
Calculating RI/J V-Matrix + Cholesky decomp.... done (  0.4 sec)
Calculating Nuclear repulsion               ... done (  0.0 sec) ENN=   3002.845142179156 Eh

Diagonalization of the overlap matrix:
Smallest eigenvalue                        ... 1.011e-05
Time for diagonalization                   ...    0.380 sec
Threshold for overlap eigenvalues          ... 1.000e-07
Number of eigenvalues below threshold      ... 0
Time for construction of square roots      ...    0.366 sec
Total time needed                          ...    0.767 sec

-------------------
DFT GRID GENERATION
-------------------

General Integration Accuracy     IntAcc      ... 4.959
Radial Grid Type                 RadialGrid  ... OptM3 with GC (2021)
Angular Grid (max. ang.)         AngularGrid ... 6 (Lebedev-590)
Angular grid pruning method      GridPruning ... 4 (adaptive)
Weight generation scheme         WeightScheme... mBecke (2022)
Basis function cutoff            BFCut       ... 1.0000e-11
Integration weight cutoff        WCut        ... 1.0000e-14
Partially contracted basis set               ... off
Rotationally invariant grid construction     ... off
Angular grids for H and He will be reduced by one unit

Total number of grid points                  ...   575843
Total number of batches                      ...     9021
Average number of points per batch           ...       63
Average number of grid points per atom       ...    11997
Grids setup in  17.2 sec
Initializing property integral containers    ... done (  0.0 sec)

SHARK setup successfully completed in  23.8 seconds

Maximum memory used throughout the entire STARTUP-calculation: 201.6 MB


           ************************************************************
           *        Program running with 4 parallel MPI-processes     *
           *              working on a common directory               *
           ************************************************************
-------------------------------------------------------------------------------
                                 ORCA GUESS
                   Start orbitals & Density for SCF / CASSCF
-------------------------------------------------------------------------------

------------
SCF SETTINGS
------------
Hamiltonian:
 Density Functional     Method          .... DFT(GTOs)
 Exchange Functional    Exchange        .... TPSS
 Correlation Functional Correlation     .... TPSS
 LDA part of GGA corr.  LDAOpt          .... PW91-LDA
 Gradients option       PostSCFGGA      .... off
   NL short-range parameter             ....  5.000000
 RI-approximation to the Coulomb term is turned on
   Number of AuxJ basis functions       .... 1675


General Settings:
 Integral files         IntName         .... tddft
 Hartree-Fock type      HFTyp           .... RHF
 Total Charge           Charge          ....    0
 Multiplicity           Mult            ....    1
 Number of Electrons    NEL             ....  210
 Basis Dimension        Dim             .... 1039
 Nuclear Repulsion      ENuc            ....   3002.8451421792 Eh

Convergence Acceleration:
 AO-DIIS                CNVDIIS         .... on
   Start iteration      DIISMaxIt       ....    12
   Startup error        DIISStart       ....  0.200000
   # of expansion vecs  DIISMaxEq       ....     5
   Bias factor          DIISBfac        ....   1.050
   Max. coefficient     DIISMaxC        ....  10.000
 MO-DIIS                CNVKDIIS        .... off
 Trust-Rad. Augm. Hess. CNVTRAH         .... auto
   Auto Start mean grad. ratio tolernc. ....  1.125000
   Auto Start start iteration           ....    50
   Auto Start num. interpolation iter.  ....    10
   Max. Number of Micro iterations      ....    24
   Max. Number of Macro iterations      .... Maxiter - #DIIS iter
   Number of Davidson start vectors     ....     2
   Converg. threshold    (grad. norm)   ....   1.000e-05
   Grad. Scal. Fac. for Micro threshold ....   0.100
   Minimum threshold for Micro iter.    ....   1.000e-02
   NR start threshold (gradient norm)   ....   1.000e-04
   Initial trust radius                 ....   0.400
   Minimum AH scaling param. (alpha)    ....   1.000
   Maximum AH scaling param. (alpha)    .... 1000.000
   Quad. conv. algorithm                .... NR
   White noise on init. David. guess    .... on
   Maximum white noise                  ....   0.010
   Pseudo random numbers                .... off
   Inactive MOs                         .... canonical
   Orbital update algorithm             .... Taylor
   Preconditioner                       .... Diag
   Full preconditioner red. dimension   ....   250
 SOSCF                 CNVSOSCF           .... on
   Start iteration     SOSCFMaxIt         ....   150
   Startup grad/error  SOSCFStart         ....  0.003300
   Hessian update      SOSCFHessUp        .... L-BFGS
   Autom. constraints  SOSCFAutoConstrain .... off
 Level Shifting         CNVShift        .... on
   Level shift para.    LevelShift      ....    0.2500
   Turn off err/grad.   ShiftErr        ....    0.0010
 Zerner damping         CNVZerner       .... off
 Static damping         CNVDamp         .... on
   Fraction old density DampFac         ....    0.7000
   Max. Damping (<1)    DampMax         ....    0.9800
   Min. Damping (>=0)   DampMin         ....    0.0000
   Turn off err/grad.   DampErr         ....    0.1000

SCF Procedure:
 Maximum # iterations   MaxIter         ....   125
 SCF integral mode      SCFMode         .... Direct
   Integral package                     .... SHARK and LIBINT hybrid scheme
 Reset frequency        DirectResetFreq ....    20
 Integral Threshold     Thresh          ....  2.500e-11 Eh
 Primitive CutOff       TCut            ....  2.500e-12 Eh

Convergence Tolerance:
 Convergence Check Mode ConvCheckMode   .... Total+1el-Energy
 Convergence forced     ConvForced      .... 1
 Energy Change          TolE            ....  1.000e-08 Eh
 1-El. energy change                    ....  1.000e-05 Eh
 Orbital Gradient       TolG            ....  1.000e-05
 Orbital Rotation angle TolX            ....  1.000e-05
 DIIS Error             TolErr          ....  5.000e-07

------------------------------
INITIAL GUESS: MODEL POTENTIAL
------------------------------
Loading Hartree-Fock densities                     ... done
Calculating cut-offs                               ... done
Initializing the effective Hamiltonian             ... done
Setting up the integral package (SHARK)            ... done
Starting the Coulomb interaction                   ... done (   4.5 sec)
Making the grid                                    ... done (   2.0 sec)
Mapping shells                                     ... done
Starting the XC term evaluation                    ... done (   6.6 sec)
  promolecular density results
     # of electrons  =    209.992473701
     EX              =   -178.372332091
     EC              =     -7.137356798
     EX+EC           =   -185.509688890
Transforming the Hamiltonian                       ... done (   0.3 sec)
Diagonalizing the Hamiltonian                      ... done (   0.4 sec)
Back transforming the eigenvectors                 ... done (   0.2 sec)
Now organizing SCF variables                       ... done
                      ------------------
                      INITIAL GUESS DONE (  14.3 sec)
                      ------------------
             **** ENERGY FILE WAS UPDATED (tddft.en.tmp) ****
Finished Guess after  15.8 sec
Maximum memory used throughout the entire GUESS-calculation: 121.3 MB


           ************************************************************
           *        Program running with 4 parallel MPI-processes     *
           *              working on a common directory               *
           ************************************************************

-------------------------------------------------------------------------------------------
                                      ORCA LEAN-SCF
                              memory conserving SCF solver
-------------------------------------------------------------------------------------------

--------------------
CPCM SOLVATION MODEL
--------------------
CPCM parameters:
  Epsilon                                         ...       8.9990
  Refrac                                          ...       1.4242
  Rsolv                                           ...       1.3000
  Surface type                                    ... GAUSSIAN VDW
  Discretization scheme                           ... Constant charge density
    Threshold for H atoms                         ...       5.0000 (charges/Ang^2)
    Threshold for non-H atoms                     ...       5.0000 (charges/Ang^2)
  Epsilon function type                           ...         CPCM
Solvent:                                          ... DICHLOROMETHANE
Radii:
  Scheme                                          ... Element-dependent radii
  Radius for N  used is    3.5149 Bohr (=   1.8600 Ang.)
  Radius for C  used is    3.8550 Bohr (=   2.0400 Ang.)
  Radius for H  used is    2.4944 Bohr (=   1.3200 Ang.)
  Radius for Mg used is    3.9231 Bohr (=   2.0760 Ang.)
Calculating surface                               ...        done! (  0.0s)
Cavity surface points                             ...         4266
Cavity Volume                                     ...    3053.5298
Cavity Surface-area                               ...    1451.2358
Calculating surface distance matrix               ...        done! (  0.7s)
Performing Cholesky decomposition & store         ...        done! (  8.8s)
Overall time for CPCM initialization              ...                 9.5s

----------------------------------------D-I-I-S--------------------------------------------
Iteration    Energy (Eh)           Delta-E    RMSDP     MaxDP     DIISErr   Damp  Time(sec)
-------------------------------------------------------------------------------------------
               ***  Starting incremental Fock matrix formation  ***
    1    -1416.1337697885296620     0.00e+00  1.79e-03  4.46e-02  2.15e-01  0.700  96.7
Warning: op=0 Small HOMO/LUMO gap (   0.064) - skipping pre-diagonalization
         Will do a full diagonalization
    2    -1416.4245783812552872    -2.91e-01  1.56e-03  3.18e-02  8.91e-02  0.700  85.8
                               ***Turning on AO-DIIS***
    3    -1416.5360668269672715    -1.11e-01  8.42e-04  1.91e-02  3.06e-02  0.700  82.4
    4    -1416.6012076254469321    -6.51e-02  1.61e-03  4.37e-02  1.41e-02  0.000  74.7
    5    -1416.7447134839781029    -1.44e-01  3.75e-04  1.69e-02  6.05e-03  0.000  75.8
                              *** Initializing SOSCF ***
---------------------------------------S-O-S-C-F--------------------------------------
Iteration    Energy (Eh)           Delta-E    RMSDP     MaxDP     MaxGrad    Time(sec)
--------------------------------------------------------------------------------------
    6    -1416.7459021091594877    -1.19e-03  1.98e-04  8.17e-03  1.04e-03    74.7
               *** Restarting incremental Fock matrix formation ***
    7    -1416.7459810994246254    -7.90e-05  1.44e-04  6.53e-03  4.88e-04    80.8
    8    -1416.7459868862274561    -5.79e-06  5.45e-05  1.92e-03  6.08e-04    59.5
    9    -1416.7460022129648678    -1.53e-05  4.40e-05  1.85e-03  2.22e-04    59.2
   10    -1416.7460030634442774    -8.50e-07  8.45e-06  2.84e-04  1.27e-04    62.9
   11    -1416.7460042527941368    -1.19e-06  1.57e-05  6.79e-04  6.77e-05    58.0
   12    -1416.7460044442154867    -1.91e-07  4.95e-06  1.83e-04  2.70e-05    56.0
   13    -1416.7460045047732820    -6.06e-08  6.37e-06  3.41e-04  2.45e-05    52.0
   14    -1416.7460045308766894    -2.61e-08  3.33e-06  1.38e-04  1.88e-05    55.8
   15    -1416.7460045775228537    -4.66e-08  8.98e-06  7.02e-04  3.64e-06    57.2
   16    -1416.7460045538568920     2.37e-08  4.55e-06  2.02e-04  4.61e-06    47.4
   17    -1416.7460045606626409    -6.81e-09  5.46e-06  3.35e-04  1.30e-06    47.2
                 **** Energy Check signals convergence ****

               *****************************************************
               *                     SUCCESS                       *
               *           SCF CONVERGED AFTER  17 CYCLES          *
               *****************************************************

             **** ENERGY FILE WAS UPDATED (tddft.en.tmp) ****

----------------
TOTAL SCF ENERGY
----------------

Total Energy       :      -1416.74600463603338 Eh          -38551.61871 eV

Components:
Nuclear Repulsion  :       3002.84514217915557 Eh           81711.57045 eV
Electronic Energy  :      -4419.56632062342032 Eh         -120262.51361 eV
One Electron Energy:      -7907.85105094622759 Eh         -215183.56682 eV
Two Electron Energy:       3488.28473032280681 Eh           94921.05321 eV
CPCM Dielectric    :         -0.02482619176862 Eh              -0.67556 eV

Virial components:
Potential Energy   :      -2827.90696506055065 Eh          -76951.26065 eV
Kinetic Energy     :       1411.16096042451704 Eh           38399.64193 eV
Virial Ratio       :          2.00395776553359

DFT components:
N(Alpha)           :      105.000001057702 electrons
N(Beta)            :      105.000001057702 electrons
N(Total)           :      210.000002115404 electrons
E(X)               :     -183.294343889409 Eh       
E(C)               :       -7.157404534356 Eh       
E(XC)              :     -190.451748423765 Eh       

CPCM Solvation Model Properties:
Surface-charge          :         -0.03801424984953
Corrected charge        :         -0.00000000000000
Outlying charge corr.   :          0.00006474600679 Eh               0.00176 eV
Free-energy (cav+disp)  :  This term is not implemented in the current solvation scheme

---------------
SCF CONVERGENCE
---------------

  Last Energy change         ...    6.8057e-09  Tolerance :   1.0000e-08
  Last MAX-Density change    ...    3.3450e-04  Tolerance :   1.0000e-07
  Last RMS-Density change    ...    5.4615e-06  Tolerance :   5.0000e-09
  Last DIIS Error            ...    1.0370e-03  Tolerance :   5.0000e-07
  Last Orbital Gradient      ...    1.3019e-06  Tolerance :   1.0000e-05
  Last Orbital Rotation      ...    9.0597e-06  Tolerance :   1.0000e-05


----------------
ORBITAL ENERGIES
----------------

  NO   OCC          E(Eh)            E(eV) 
   0   2.0000     -46.352399     -1261.3129 
   1   2.0000     -14.163902      -385.4194 
   2   2.0000     -14.105619      -383.8334 
   3   2.0000     -14.097502      -383.6125 
   4   2.0000     -14.075355      -383.0099 
   5   2.0000     -14.075028      -383.0010 
   6   2.0000     -14.074804      -382.9949 
   7   2.0000     -10.047867      -273.4163 
   8   2.0000     -10.020214      -272.6639 
   9   2.0000     -10.018321      -272.6124 
  10   2.0000     -10.018283      -272.6114 
  11   2.0000     -10.010257      -272.3929 
  12   2.0000     -10.010041      -272.3871 
  13   2.0000     -10.007744      -272.3245 
  14   2.0000     -10.005967      -272.2762 
  15   2.0000     -10.005703      -272.2690 
  16   2.0000     -10.005034      -272.2508 
  17   2.0000     -10.005010      -272.2502 
  18   2.0000      -9.986928      -271.7581 
  19   2.0000      -9.986532      -271.7473 
  20   2.0000      -9.985956      -271.7317 
  21   2.0000      -9.985842      -271.7286 
  22   2.0000      -9.978572      -271.5307 
  23   2.0000      -9.978128      -271.5187 
  24   2.0000      -9.976267      -271.4680 
  25   2.0000      -9.976101      -271.4635 
  26   2.0000      -9.975860      -271.4570 
  27   2.0000      -9.975855      -271.4568 
  28   2.0000      -9.975101      -271.4363 
  29   2.0000      -9.974591      -271.4224 
  30   2.0000      -2.886383       -78.5425 
  31   2.0000      -1.648888       -44.8685 
  32   2.0000      -1.646158       -44.7942 
  33   2.0000      -1.645753       -44.7832 
  34   2.0000      -0.964519       -26.2459 
  35   2.0000      -0.889262       -24.1981 
  36   2.0000      -0.881464       -23.9858 
  37   2.0000      -0.879397       -23.9296 
  38   2.0000      -0.871381       -23.7115 
  39   2.0000      -0.826308       -22.4850 
  40   2.0000      -0.747288       -20.3348 
  41   2.0000      -0.723546       -19.6887 
  42   2.0000      -0.720298       -19.6003 
  43   2.0000      -0.708826       -19.2881 
  44   2.0000      -0.702138       -19.1061 
  45   2.0000      -0.700236       -19.0544 
  46   2.0000      -0.697920       -18.9914 
  47   2.0000      -0.694171       -18.8894 
  48   2.0000      -0.673363       -18.3231 
  49   2.0000      -0.653747       -17.7894 
  50   2.0000      -0.598300       -16.2806 
  51   2.0000      -0.593024       -16.1370 
  52   2.0000      -0.578546       -15.7430 
  53   2.0000      -0.555010       -15.1026 
  54   2.0000      -0.554360       -15.0849 
  55   2.0000      -0.527832       -14.3630 
  56   2.0000      -0.525524       -14.3002 
  57   2.0000      -0.515744       -14.0341 
  58   2.0000      -0.514172       -13.9913 
  59   2.0000      -0.512854       -13.9555 
  60   2.0000      -0.497605       -13.5405 
  61   2.0000      -0.479686       -13.0529 
  62   2.0000      -0.467388       -12.7183 
  63   2.0000      -0.461631       -12.5616 
  64   2.0000      -0.449609       -12.2345 
  65   2.0000      -0.446757       -12.1569 
  66   2.0000      -0.438579       -11.9343 
  67   2.0000      -0.428733       -11.6664 
  68   2.0000      -0.412744       -11.2313 
  69   2.0000      -0.407634       -11.0923 
  70   2.0000      -0.405494       -11.0341 
  71   2.0000      -0.393254       -10.7010 
  72   2.0000      -0.386337       -10.5128 
  73   2.0000      -0.385712       -10.4958 
  74   2.0000      -0.376738       -10.2516 
  75   2.0000      -0.371479       -10.1085 
  76   2.0000      -0.368624       -10.0308 
  77   2.0000      -0.367258        -9.9936 
  78   2.0000      -0.359479        -9.7819 
  79   2.0000      -0.357945        -9.7402 
  80   2.0000      -0.356163        -9.6917 
  81   2.0000      -0.340727        -9.2716 
  82   2.0000      -0.338103        -9.2003 
  83   2.0000      -0.336180        -9.1479 
  84   2.0000      -0.327121        -8.9014 
  85   2.0000      -0.325946        -8.8694 
  86   2.0000      -0.322892        -8.7863 
  87   2.0000      -0.320038        -8.7087 
  88   2.0000      -0.317053        -8.6274 
  89   2.0000      -0.313478        -8.5302 
  90   2.0000      -0.309958        -8.4344 
  91   2.0000      -0.280864        -7.6427 
  92   2.0000      -0.279077        -7.5941 
  93   2.0000      -0.275363        -7.4930 
  94   2.0000      -0.261576        -7.1178 
  95   2.0000      -0.258489        -7.0339 
  96   2.0000      -0.246441        -6.7060 
  97   2.0000      -0.237996        -6.4762 
  98   2.0000      -0.233955        -6.3662 
  99   2.0000      -0.221488        -6.0270 
 100   2.0000      -0.220285        -5.9942 
 101   2.0000      -0.213088        -5.7984 
 102   2.0000      -0.211412        -5.7528 
 103   2.0000      -0.170770        -4.6469 
 104   2.0000      -0.166068        -4.5190 
 105   0.0000      -0.098764        -2.6875 
 106   0.0000      -0.080007        -2.1771 
 107   0.0000      -0.022021        -0.5992 
 108   0.0000      -0.018329        -0.4988 
 109   0.0000       0.004321         0.1176 
 110   0.0000       0.010378         0.2824 
 111   0.0000       0.010804         0.2940 
 112   0.0000       0.028563         0.7772 
 113   0.0000       0.036872         1.0033 
 114   0.0000       0.039431         1.0730 
 115   0.0000       0.040640         1.1059 
*Only the first 10 virtual orbitals were printed.

                    ********************************
                    * MULLIKEN POPULATION ANALYSIS *
                    ********************************

-----------------------
MULLIKEN ATOMIC CHARGES
-----------------------
   0 N :   -0.300992
   1 N :   -0.389524
   2 N :   -0.375347
   3 N :   -0.332480
   4 C :   -0.112163
   5 C :   -0.116694
   6 C :    0.208512
   7 C :    0.205505
   8 C :   -0.488342
   9 C :   -0.489670
  10 C :    0.356260
  11 C :    0.355726
  12 C :    0.347119
  13 C :    0.347069
  14 C :   -0.235234
  15 C :   -0.235024
  16 C :   -0.236751
  17 C :   -0.239506
  18 C :   -0.477711
  19 C :   -0.477731
  20 C :    0.354096
  21 C :    0.351279
  22 C :   -0.242526
  23 C :   -0.241190
  24 H :    0.101761
  25 H :    0.113354
  26 H :    0.101563
  27 H :    0.113892
  28 H :    0.117691
  29 H :    0.117979
  30 H :    0.120216
  31 H :    0.120479
  32 H :    0.121588
  33 H :    0.121747
  34 H :    0.122816
  35 H :    0.123179
  36 H :    0.120647
  37 H :    0.120683
  38 Mg:    0.655350
  39 N :   -0.271554
  40 C :    0.013495
  41 N :   -0.164085
  42 C :   -0.095179
  43 C :   -0.127867
  44 H :    0.193655
  45 H :    0.175423
  46 H :    0.163891
  47 H :    0.284597
Sum of atomic charges:   -0.0000000

--------------------------------
MULLIKEN REDUCED ORBITAL CHARGES
--------------------------------
  0 N s       :     3.664709  s :     3.664709
      pz      :     1.248048  p :     3.572669
      px      :     1.195714
      py      :     1.128907
      dz2     :     0.004038  d :     0.059895
      dxz     :     0.009418
      dyz     :     0.011411
      dx2y2   :     0.017826
      dxy     :     0.017203
      f0      :     0.000646  f :     0.003719
      f+1     :     0.000287
      f-1     :     0.000321
      f+2     :     0.000539
      f-2     :     0.000135
      f+3     :     0.001021
      f-3     :     0.000770

  1 N s       :     3.683574  s :     3.683574
      pz      :     1.344387  p :     3.643869
      px      :     1.121382
      py      :     1.178101
      dz2     :     0.004354  d :     0.058343
      dxz     :     0.010613
      dyz     :     0.009380
      dx2y2   :     0.017562
      dxy     :     0.016434
      f0      :     0.000656  f :     0.003739
      f+1     :     0.000366
      f-1     :     0.000328
      f+2     :     0.000605
      f-2     :     0.000116
      f+3     :     0.000752
      f-3     :     0.000915

  2 N s       :     3.674777  s :     3.674777
      pz      :     1.340511  p :     3.638659
      px      :     1.116450
      py      :     1.181698
      dz2     :     0.004243  d :     0.058169
      dxz     :     0.011108
      dyz     :     0.008807
      dx2y2   :     0.017197
      dxy     :     0.016814
      f0      :     0.000654  f :     0.003741
      f+1     :     0.000355
      f-1     :     0.000343
      f+2     :     0.000600
      f-2     :     0.000122
      f+3     :     0.000709
      f-3     :     0.000959

  3 N s       :     3.661000  s :     3.661000
      pz      :     1.318271  p :     3.608565
      px      :     1.172620
      py      :     1.117673
      dz2     :     0.004249  d :     0.059154
      dxz     :     0.009342
      dyz     :     0.011235
      dx2y2   :     0.017660
      dxy     :     0.016669
      f0      :     0.000651  f :     0.003761
      f+1     :     0.000331
      f-1     :     0.000357
      f+2     :     0.000632
      f-2     :     0.000118
      f+3     :     0.000940
      f-3     :     0.000732

  4 C s       :     3.064751  s :     3.064751
      pz      :     1.036914  p :     2.952087
      px      :     0.901114
      py      :     1.014059
      dz2     :     0.006307  d :     0.088499
      dxz     :     0.017404
      dyz     :     0.021011
      dx2y2   :     0.025646
      dxy     :     0.018131
      f0      :     0.000765  f :     0.006826
      f+1     :     0.000349
      f-1     :     0.001256
      f+2     :     0.000689
      f-2     :     0.000907
      f+3     :     0.001408
      f-3     :     0.001450

  5 C s       :     3.069137  s :     3.069137
      pz      :     1.035768  p :     2.952137
      px      :     1.011207
      py      :     0.905162
      dz2     :     0.005492  d :     0.088592
      dxz     :     0.021792
      dyz     :     0.017751
      dx2y2   :     0.025563
      dxy     :     0.017995
      f0      :     0.000660  f :     0.006828
      f+1     :     0.001408
      f-1     :     0.000321
      f+2     :     0.000656
      f-2     :     0.000924
      f+3     :     0.001167
      f-3     :     0.001692

  6 C s       :     3.137562  s :     3.137562
      pz      :     0.894702  p :     2.473410
      px      :     0.861614
      py      :     0.717094
      dz2     :     0.004168  d :     0.166208
      dxz     :     0.027210
      dyz     :     0.036601
      dx2y2   :     0.043781
      dxy     :     0.054450
      f0      :     0.001847  f :     0.014307
      f+1     :     0.000730
      f-1     :     0.001065
      f+2     :     0.001722
      f-2     :     0.001173
      f+3     :     0.005383
      f-3     :     0.002387

  7 C s       :     3.135463  s :     3.135463
      pz      :     0.895185  p :     2.478293
      px      :     0.752389
      py      :     0.830719
      dz2     :     0.003590  d :     0.166424
      dxz     :     0.032033
      dyz     :     0.032145
      dx2y2   :     0.046347
      dxy     :     0.052309
      f0      :     0.001866  f :     0.014316
      f+1     :     0.001052
      f-1     :     0.000706
      f+2     :     0.001442
      f-2     :     0.001458
      f+3     :     0.003848
      f-3     :     0.003944

  8 C s       :     3.442925  s :     3.442925
      pz      :     1.083011  p :     2.958472
      px      :     0.927602
      py      :     0.947859
      dz2     :     0.002304  d :     0.079170
      dxz     :     0.024646
      dyz     :     0.003840
      dx2y2   :     0.037835
      dxy     :     0.010544
      f0      :     0.001362  f :     0.007775
      f+1     :     0.000645
      f-1     :     0.000789
      f+2     :     0.000517
      f-2     :     0.000863
      f+3     :     0.002216
      f-3     :     0.001383

  9 C s       :     3.444562  s :     3.444562
      pz      :     1.083065  p :     2.958344
      px      :     0.941131
      py      :     0.934149
      dz2     :     0.002183  d :     0.078991
      dxz     :     0.003863
      dyz     :     0.024670
      dx2y2   :     0.038030
      dxy     :     0.010245
      f0      :     0.001372  f :     0.007773
      f+1     :     0.000797
      f-1     :     0.000628
      f+2     :     0.000540
      f-2     :     0.000831
      f+3     :     0.001499
      f-3     :     0.002106

 10 C s       :     3.083070  s :     3.083070
      pz      :     0.904946  p :     2.376419
      px      :     0.750521
      py      :     0.720951
      dz2     :     0.004371  d :     0.169490
      dxz     :     0.033355
      dyz     :     0.035202
      dx2y2   :     0.044559
      dxy     :     0.052003
      f0      :     0.002007  f :     0.014761
      f+1     :     0.000831
      f-1     :     0.001055
      f+2     :     0.001869
      f-2     :     0.001233
      f+3     :     0.004246
      f-3     :     0.003519

 11 C s       :     3.082454  s :     3.082454
      pz      :     0.902784  p :     2.376884
      px      :     0.709731
      py      :     0.764369
      dz2     :     0.004344  d :     0.170141
      dxz     :     0.038093
      dyz     :     0.030904
      dx2y2   :     0.040962
      dxy     :     0.055839
      f0      :     0.002013  f :     0.014795
      f+1     :     0.001110
      f-1     :     0.000779
      f+2     :     0.002399
      f-2     :     0.000714
      f+3     :     0.002382
      f-3     :     0.005398

 12 C s       :     3.070121  s :     3.070121
      pz      :     0.943368  p :     2.402137
      px      :     0.698747
      py      :     0.760021
      dz2     :     0.005017  d :     0.166080
      dxz     :     0.036520
      dyz     :     0.029094
      dx2y2   :     0.040945
      dxy     :     0.054505
      f0      :     0.002033  f :     0.014543
      f+1     :     0.001087
      f-1     :     0.000762
      f+2     :     0.002331
      f-2     :     0.000638
      f+3     :     0.002358
      f-3     :     0.005333

 13 C s       :     3.069585  s :     3.069585
      pz      :     0.940097  p :     2.402211
      px      :     0.741888
      py      :     0.720227
      dz2     :     0.005067  d :     0.166559
      dxz     :     0.031166
      dyz     :     0.034667
      dx2y2   :     0.044222
      dxy     :     0.051438
      f0      :     0.002030  f :     0.014575
      f+1     :     0.000806
      f-1     :     0.001057
      f+2     :     0.001774
      f-2     :     0.001205
      f+3     :     0.004228
      f-3     :     0.003475

 14 C s       :     3.309709  s :     3.309709
      pz      :     1.021731  p :     2.829294
      px      :     0.922488
      py      :     0.885076
      dz2     :     0.005033  d :     0.088188
      dxz     :     0.020557
      dyz     :     0.007652
      dx2y2   :     0.036894
      dxy     :     0.018050
      f0      :     0.001364  f :     0.008044
      f+1     :     0.000451
      f-1     :     0.000941
      f+2     :     0.000098
      f-2     :     0.001360
      f+3     :     0.002364
      f-3     :     0.001466

 15 C s       :     3.310147  s :     3.310147
      pz      :     1.021205  p :     2.828573
      px      :     0.892673
      py      :     0.914696
      dz2     :     0.005035  d :     0.088261
      dxz     :     0.009190
      dyz     :     0.019061
      dx2y2   :     0.034785
      dxy     :     0.020190
      f0      :     0.001369  f :     0.008044
      f+1     :     0.000879
      f-1     :     0.000508
      f+2     :     0.000460
      f-2     :     0.001001
      f+3     :     0.002087
      f-3     :     0.001740

 16 C s       :     3.317934  s :     3.317934
      pz      :     1.002772  p :     2.821713
      px      :     0.900935
      py      :     0.918007
      dz2     :     0.004911  d :     0.089039
      dxz     :     0.009385
      dyz     :     0.020810
      dx2y2   :     0.033635
      dxy     :     0.020297
      f0      :     0.001347  f :     0.008065
      f+1     :     0.000876
      f-1     :     0.000500
      f+2     :     0.000525
      f-2     :     0.000986
      f+3     :     0.002099
      f-3     :     0.001733

 17 C s       :     3.320194  s :     3.320194
      pz      :     1.002326  p :     2.822101
      px      :     0.925786
      py      :     0.893989
      dz2     :     0.004941  d :     0.089144
      dxz     :     0.022629
      dyz     :     0.007608
      dx2y2   :     0.035990
      dxy     :     0.017977
      f0      :     0.001351  f :     0.008067
      f+1     :     0.000445
      f-1     :     0.000927
      f+2     :     0.000114
      f-2     :     0.001400
      f+3     :     0.002362
      f-3     :     0.001468

 18 C s       :     3.479638  s :     3.479638
      pz      :     1.008009  p :     2.903474
      px      :     0.952813
      py      :     0.942652
      dz2     :     0.002427  d :     0.086972
      dxz     :     0.003613
      dyz     :     0.029649
      dx2y2   :     0.040084
      dxy     :     0.011198
      f0      :     0.001276  f :     0.007627
      f+1     :     0.000750
      f-1     :     0.000590
      f+2     :     0.000512
      f-2     :     0.000863
      f+3     :     0.001445
      f-3     :     0.002191

 19 C s       :     3.477996  s :     3.477996
      pz      :     1.008695  p :     2.905260
      px      :     0.942771
      py      :     0.953793
      dz2     :     0.002432  d :     0.086850
      dxz     :     0.029514
      dyz     :     0.003683
      dx2y2   :     0.039611
      dxy     :     0.011610
      f0      :     0.001277  f :     0.007625
      f+1     :     0.000584
      f-1     :     0.000754
      f+2     :     0.000528
      f-2     :     0.000844
      f+3     :     0.002186
      f-3     :     0.001450

 20 C s       :     3.066147  s :     3.066147
      pz      :     0.939415  p :     2.397757
      px      :     0.719534
      py      :     0.738808
      dz2     :     0.004912  d :     0.167262
      dxz     :     0.034985
      dyz     :     0.030838
      dx2y2   :     0.044452
      dxy     :     0.052076
      f0      :     0.002052  f :     0.014738
      f+1     :     0.001055
      f-1     :     0.000830
      f+2     :     0.001782
      f-2     :     0.001230
      f+3     :     0.003539
      f-3     :     0.004250

 21 C s       :     3.067565  s :     3.067565
      pz      :     0.938024  p :     2.399039
      px      :     0.756463
      py      :     0.704552
      dz2     :     0.004835  d :     0.167371
      dxz     :     0.029269
      dyz     :     0.036566
      dx2y2   :     0.040552
      dxy     :     0.056149
      f0      :     0.002051  f :     0.014745
      f+1     :     0.000779
      f-1     :     0.001111
      f+2     :     0.002362
      f-2     :     0.000654
      f+3     :     0.005411
      f-3     :     0.002377

 22 C s       :     3.315483  s :     3.315483
      pz      :     1.017515  p :     2.830193
      px      :     0.888256
      py      :     0.924421
      dz2     :     0.005033  d :     0.088752
      dxz     :     0.007543
      dyz     :     0.022054
      dx2y2   :     0.036286
      dxy     :     0.017836
      f0      :     0.001363  f :     0.008099
      f+1     :     0.000947
      f-1     :     0.000451
      f+2     :     0.000097
      f-2     :     0.001417
      f+3     :     0.001461
      f-3     :     0.002362

 23 C s       :     3.315167  s :     3.315167
      pz      :     1.017197  p :     2.829159
      px      :     0.917296
      py      :     0.894666
      dz2     :     0.005008  d :     0.088765
      dxz     :     0.020414
      dyz     :     0.009209
      dx2y2   :     0.033981
      dxy     :     0.020153
      f0      :     0.001367  f :     0.008099
      f+1     :     0.000503
      f-1     :     0.000892
      f+2     :     0.000497
      f-2     :     0.001019
      f+3     :     0.001750
      f-3     :     0.002070

 24 H s       :     0.877833  s :     0.877833
      pz      :     0.009517  p :     0.020406
      px      :     0.004565
      py      :     0.006324

 25 H s       :     0.866445  s :     0.866445
      pz      :     0.007364  p :     0.020202
      px      :     0.004650
      py      :     0.008188

 26 H s       :     0.878049  s :     0.878049
      pz      :     0.009049  p :     0.020389
      px      :     0.006888
      py      :     0.004451

 27 H s       :     0.865897  s :     0.865897
      pz      :     0.007829  p :     0.020211
      px      :     0.007897
      py      :     0.004485

 28 H s       :     0.861783  s :     0.861783
      pz      :     0.005601  p :     0.020527
      px      :     0.003615
      py      :     0.011311

 29 H s       :     0.861492  s :     0.861492
      pz      :     0.005598  p :     0.020529
      px      :     0.011276
      py      :     0.003656

 30 H s       :     0.859776  s :     0.859776
      pz      :     0.004944  p :     0.020008
      px      :     0.003674
      py      :     0.011390

 31 H s       :     0.859520  s :     0.859520
      pz      :     0.004942  p :     0.020000
      px      :     0.010919
      py      :     0.004139

 32 H s       :     0.858456  s :     0.858456
      pz      :     0.004822  p :     0.019956
      px      :     0.010950
      py      :     0.004183

 33 H s       :     0.858303  s :     0.858303
      pz      :     0.004821  p :     0.019949
      px      :     0.003694
      py      :     0.011435

 34 H s       :     0.856889  s :     0.856889
      pz      :     0.005153  p :     0.020296
      px      :     0.011479
      py      :     0.003664

 35 H s       :     0.856523  s :     0.856523
      pz      :     0.005158  p :     0.020298
      px      :     0.003652
      py      :     0.011487

 36 H s       :     0.859375  s :     0.859375
      pz      :     0.004918  p :     0.019977
      px      :     0.011374
      py      :     0.003685

 37 H s       :     0.859338  s :     0.859338
      pz      :     0.004923  p :     0.019979
      px      :     0.004158
      py      :     0.010897

 38 Mgs       :     4.526522  s :     4.526522
      pz      :     2.203567  p :     6.568893
      px      :     2.181352
      py      :     2.183974
      dz2     :     0.036279  d :     0.249235
      dxz     :     0.027722
      dyz     :     0.027010
      dx2y2   :     0.032061
      dxy     :     0.126162

 39 N s       :     3.660665  s :     3.660665
      pz      :     1.277760  p :     3.544606
      px      :     1.157381
      py      :     1.109466
      dz2     :     0.012913  d :     0.062222
      dxz     :     0.011238
      dyz     :     0.012935
      dx2y2   :     0.016646
      dxy     :     0.008489
      f0      :     0.000312  f :     0.004062
      f+1     :     0.000478
      f-1     :     0.000644
      f+2     :     0.000921
      f-2     :     0.000641
      f+3     :     0.000462
      f-3     :     0.000605

 40 C s       :     3.158953  s :     3.158953
      pz      :     0.750347  p :     2.670328
      px      :     0.962704
      py      :     0.957278
      dz2     :     0.043476  d :     0.141680
      dxz     :     0.034137
      dyz     :     0.033509
      dx2y2   :     0.017391
      dxy     :     0.013168
      f0      :     0.002181  f :     0.015544
      f+1     :     0.003017
      f-1     :     0.003545
      f+2     :     0.001786
      f-2     :     0.001700
      f+3     :     0.001627
      f-3     :     0.001689

 41 N s       :     3.439666  s :     3.439666
      pz      :     1.091333  p :     3.648205
      px      :     1.315146
      py      :     1.241725
      dz2     :     0.012466  d :     0.071237
      dxz     :     0.016670
      dyz     :     0.020120
      dx2y2   :     0.014461
      dxy     :     0.007520
      f0      :     0.000859  f :     0.004978
      f+1     :     0.000912
      f-1     :     0.000936
      f+2     :     0.000075
      f-2     :     0.000777
      f+3     :     0.000649
      f-3     :     0.000771

 42 C s       :     3.190569  s :     3.190569
      pz      :     0.985227  p :     2.793909
      px      :     0.935738
      py      :     0.872944
      dz2     :     0.022324  d :     0.099389
      dxz     :     0.019283
      dyz     :     0.022542
      dx2y2   :     0.024249
      dxy     :     0.010991
      f0      :     0.002145  f :     0.011311
      f+1     :     0.001824
      f-1     :     0.001801
      f+2     :     0.000317
      f-2     :     0.001510
      f+3     :     0.001589
      f-3     :     0.002126

 43 C s       :     3.188468  s :     3.188468
      pz      :     0.866435  p :     2.810940
      px      :     0.983416
      py      :     0.961089
      dz2     :     0.034120  d :     0.116585
      dxz     :     0.026768
      dyz     :     0.027635
      dx2y2   :     0.013919
      dxy     :     0.014143
      f0      :     0.001517  f :     0.011873
      f+1     :     0.001861
      f-1     :     0.002157
      f+2     :     0.001784
      f-2     :     0.001849
      f+3     :     0.001426
      f-3     :     0.001280

 44 H s       :     0.786632  s :     0.786632
      pz      :     0.003933  p :     0.019713
      px      :     0.007250
      py      :     0.008530

 45 H s       :     0.804768  s :     0.804768
      pz      :     0.009879  p :     0.019809
      px      :     0.005002
      py      :     0.004928

 46 H s       :     0.816045  s :     0.816045
      pz      :     0.004263  p :     0.020064
      px      :     0.007246
      py      :     0.008555

 47 H s       :     0.680990  s :     0.680990
      pz      :     0.013402  p :     0.034414
      px      :     0.010338
      py      :     0.010674



                     *******************************
                     * LOEWDIN POPULATION ANALYSIS *
                     *******************************

----------------------
LOEWDIN ATOMIC CHARGES
----------------------
   0 N :    0.213631
   1 N :    0.184304
   2 N :    0.185635
   3 N :    0.191427
   4 C :   -0.189203
   5 C :   -0.189064
   6 C :   -0.197738
   7 C :   -0.197378
   8 C :   -0.127744
   9 C :   -0.127180
  10 C :   -0.216059
  11 C :   -0.213614
  12 C :   -0.218725
  13 C :   -0.216090
  14 C :   -0.130065
  15 C :   -0.128986
  16 C :   -0.123341
  17 C :   -0.122294
  18 C :   -0.086806
  19 C :   -0.086457
  20 C :   -0.219119
  21 C :   -0.218876
  22 C :   -0.130466
  23 C :   -0.130339
  24 H :    0.147064
  25 H :    0.144185
  26 H :    0.146817
  27 H :    0.144463
  28 H :    0.159473
  29 H :    0.159572
  30 H :    0.139914
  31 H :    0.140057
  32 H :    0.141320
  33 H :    0.141410
  34 H :    0.161859
  35 H :    0.161913
  36 H :    0.140039
  37 H :    0.140086
  38 Mg:    0.064362
  39 N :    0.160458
  40 C :   -0.244634
  41 N :    0.219551
  42 C :   -0.210160
  43 C :   -0.221817
  44 H :    0.154902
  45 H :    0.143356
  46 H :    0.149443
  47 H :    0.210912

-------------------------------
LOEWDIN REDUCED ORBITAL CHARGES
-------------------------------
  0 N s       :     2.983527  s :     2.983527
      pz      :     1.109290  p :     3.572243
      px      :     1.258185
      py      :     1.204768
      dz2     :     0.016397  d :     0.211740
      dxz     :     0.024060
      dyz     :     0.032302
      dx2y2   :     0.074443
      dxy     :     0.064537
      f0      :     0.001193  f :     0.018860
      f+1     :     0.001176
      f-1     :     0.001425
      f+2     :     0.003225
      f-2     :     0.000489
      f+3     :     0.006756
      f-3     :     0.004596

  1 N s       :     2.980110  s :     2.980110
      pz      :     1.186120  p :     3.613685
      px      :     1.180567
      py      :     1.246998
      dz2     :     0.016292  d :     0.203091
      dxz     :     0.031242
      dyz     :     0.024318
      dx2y2   :     0.070310
      dxy     :     0.060928
      f0      :     0.001187  f :     0.018810
      f+1     :     0.001375
      f-1     :     0.001223
      f+2     :     0.003561
      f-2     :     0.000376
      f+3     :     0.004750
      f-3     :     0.006337

  2 N s       :     2.979821  s :     2.979821
      pz      :     1.185700  p :     3.612676
      px      :     1.194839
      py      :     1.232137
      dz2     :     0.016269  d :     0.203030
      dxz     :     0.031580
      dyz     :     0.023883
      dx2y2   :     0.069246
      dxy     :     0.062052
      f0      :     0.001190  f :     0.018838
      f+1     :     0.001446
      f-1     :     0.001162
      f+2     :     0.003522
      f-2     :     0.000424
      f+3     :     0.004522
      f-3     :     0.006573

  3 N s       :     2.982932  s :     2.982932
      pz      :     1.171150  p :     3.601436
      px      :     1.240836
      py      :     1.189450
      dz2     :     0.016352  d :     0.205159
      dxz     :     0.024871
      dyz     :     0.032651
      dx2y2   :     0.069877
      dxy     :     0.061407
      f0      :     0.001178  f :     0.019046
      f+1     :     0.001188
      f-1     :     0.001406
      f+2     :     0.003708
      f-2     :     0.000393
      f+3     :     0.006510
      f-3     :     0.004663

  4 C s       :     2.769426  s :     2.769426
      pz      :     1.029725  p :     3.011709
      px      :     0.983141
      py      :     0.998843
      dz2     :     0.044695  d :     0.366988
      dxz     :     0.049669
      dyz     :     0.093755
      dx2y2   :     0.092992
      dxy     :     0.085877
      f0      :     0.004230  f :     0.041080
      f+1     :     0.003363
      f-1     :     0.004250
      f+2     :     0.004780
      f-2     :     0.005486
      f+3     :     0.009040
      f-3     :     0.009932

  5 C s       :     2.769486  s :     2.769486
[...]
  0-1A  -> 26-1A    4.803558   38743.3   258.1   0.000774717   0.00658  -0.03969   0.07006   0.00997
  0-1A  -> 27-1A    4.815589   38840.4   257.5   0.002939299   0.02491  -0.05586  -0.07140   0.12921
  0-1A  -> 28-1A    4.863736   39228.7   254.9   0.000640641   0.00538  -0.05600   0.04605   0.01092
  0-1A  -> 29-1A    4.897645   39502.2   253.2   0.002973488   0.02478   0.09299  -0.08229  -0.09676
  0-1A  -> 30-1A    4.918130   39667.4   252.1   0.006451606   0.05354  -0.19445  -0.12477  -0.01284

----------------------------------------------------------------------------------------------------
                     ABSORPTION SPECTRUM VIA TRANSITION VELOCITY DIPOLE MOMENTS    
----------------------------------------------------------------------------------------------------
     Transition      Energy     Energy  Wavelength fosc(P2)      P2        PX        PY        PZ   
                      (eV)      (cm-1)    (nm)                 (au**2)    (au)      (au)      (au)  
----------------------------------------------------------------------------------------------------
  0-1A  ->  1-1A    2.223076   17930.3   557.7   0.140569607   0.01723   0.08061  -0.10357  -0.00138
  0-1A  ->  2-1A    2.271380   18319.9   545.9   0.018274431   0.00229   0.03758   0.02959  -0.00044
  0-1A  ->  3-1A    3.016686   24331.2   411.0   0.542145559   0.09015   0.18894  -0.23332  -0.00449
  0-1A  ->  4-1A    3.110474   25087.7   398.6   0.758013831   0.12997  -0.28060  -0.22632   0.00400
  0-1A  ->  5-1A    3.220021   25971.2   385.0   0.051148641   0.00908   0.08590   0.04055  -0.00748
  0-1A  ->  6-1A    3.258645   26282.7   380.5   0.130798632   0.02350   0.08228  -0.12929  -0.00290
  0-1A  ->  7-1A    3.323688   26807.4   373.0   0.008751267   0.00160  -0.03865  -0.00761  -0.00721
  0-1A  ->  8-1A    3.502783   28251.9   354.0   0.253344947   0.04892   0.17383   0.13674  -0.00082
  0-1A  ->  9-1A    3.710859   29930.1   334.1   0.001229173   0.00025  -0.00336  -0.01547   0.00083
  0-1A  -> 10-1A    3.726136   30053.3   332.7   0.006270963   0.00129  -0.02722   0.02338   0.00081
  0-1A  -> 11-1A    3.817424   30789.6   324.8   0.036286819   0.00764   0.07041   0.05163   0.00367
  0-1A  -> 12-1A    3.842036   30988.1   322.7   0.040949053   0.00867   0.06818   0.06325   0.00483
  0-1A  -> 13-1A    3.949903   31858.1   313.9   0.001687721   0.00037  -0.01146   0.01529   0.00146
  0-1A  -> 14-1A    4.013918   32374.4   308.9   0.006560338   0.00145  -0.03718  -0.00636  -0.00535
  0-1A  -> 15-1A    4.072099   32843.7   304.5   0.301412290   0.06766   0.13858  -0.22008  -0.00458
  0-1A  -> 16-1A    4.087108   32964.8   303.4   0.082127649   0.01850  -0.12885  -0.04332   0.00493
  0-1A  -> 17-1A    4.142530   33411.8   299.3   0.014856278   0.00339   0.05820   0.00107  -0.00214
  0-1A  -> 18-1A    4.213649   33985.4   294.2   0.009166844   0.00213   0.02638  -0.03786  -0.00040
  0-1A  -> 19-1A    4.295697   34647.1   288.6   0.105798998   0.02505   0.10097  -0.12189  -0.00026
  0-1A  -> 20-1A    4.317299   34821.4   287.2   0.019237126   0.00458   0.03554   0.05757   0.00044
  0-1A  -> 21-1A    4.379935   35326.6   283.1   0.003603020   0.00087   0.01602   0.00556  -0.02413
  0-1A  -> 22-1A    4.443576   35839.9   279.0   0.000012498   0.00000  -0.00170  -0.00011  -0.00040
  0-1A  -> 23-1A    4.635209   37385.5   267.5   0.000324920   0.00008   0.00490   0.00765   0.00070
  0-1A  -> 24-1A    4.728488   38137.8   262.2   0.122353432   0.03189  -0.11091   0.13991   0.00416
  0-1A  -> 25-1A    4.778272   38539.4   259.5   0.000158783   0.00004  -0.00202   0.00614  -0.00018
  0-1A  -> 26-1A    4.803558   38743.3   258.1   0.000715157   0.00019   0.00695  -0.01178  -0.00147
  0-1A  -> 27-1A    4.815589   38840.4   257.5   0.002889564   0.00077   0.00963   0.01236  -0.02284
  0-1A  -> 28-1A    4.863736   39228.7   254.9   0.000606507   0.00016   0.00975  -0.00799  -0.00192
  0-1A  -> 29-1A    4.897645   39502.2   253.2   0.003280930   0.00089  -0.01617   0.01426   0.02052
  0-1A  -> 30-1A    4.918130   39667.4   252.1   0.006307457   0.00171   0.03472   0.02231   0.00262

------------------------------------------------------------------------------------------
                     CD SPECTRUM VIA TRANSITION ELECTRIC DIPOLE MOMENTS    
------------------------------------------------------------------------------------------
     Transition      Energy     Energy  Wavelength    R        MX        MY        MZ   
                      (eV)      (cm-1)    (nm)   (1e40*cgs)   (au)      (au)      (au)  
------------------------------------------------------------------------------------------
  0-1A  ->  1-1A    2.223076   17930.3   557.7   -0.18730  -0.05892  -0.05567   0.74343
  0-1A  ->  2-1A    2.271380   18319.9   545.9   -0.58138   0.02209  -0.03137   0.00415
  0-1A  ->  3-1A    3.016686   24331.2   411.0   -5.18937  -0.18751  -0.14632  -0.02235
  0-1A  ->  4-1A    3.110474   25087.7   398.6   -9.72139  -0.13744   0.18050  -0.00560
  0-1A  ->  5-1A    3.220021   25971.2   385.0   -0.95473   0.03998  -0.08009   0.05596
  0-1A  ->  6-1A    3.258645   26282.7   380.5   -1.45352  -0.09131  -0.06627   0.48513
  0-1A  ->  7-1A    3.323688   26807.4   373.0    1.95674  -0.00474   0.04028  -0.08495
  0-1A  ->  8-1A    3.502783   28251.9   354.0   -4.76984   0.09799  -0.13389  -0.00666
  0-1A  ->  9-1A    3.710859   29930.1   334.1    7.04890   0.11163  -0.15357   0.01536
  0-1A  -> 10-1A    3.726136   30053.3   332.7   -1.91548   0.03584   0.03736  -0.58623
  0-1A  -> 11-1A    3.817424   30789.6   324.8    0.15330   0.03419  -0.04055  -0.07140
  0-1A  -> 12-1A    3.842036   30988.1   322.7   -1.77854   0.02909  -0.04156   0.02624
  0-1A  -> 13-1A    3.949903   31858.1   313.9    1.63183   0.03513   0.01792   0.42706
  0-1A  -> 14-1A    4.013918   32374.4   308.9    4.07825  -0.03213  -0.01969   0.01297
  0-1A  -> 15-1A    4.072099   32843.7   304.5    4.96319  -0.15186  -0.09807  -0.21891
  0-1A  -> 16-1A    4.087108   32964.8   303.4   -4.55118  -0.02128   0.10171   0.04847
  0-1A  -> 17-1A    4.142530   33411.8   299.3   -8.59047  -0.04605  -0.00793   0.01069
  0-1A  -> 18-1A    4.213649   33985.4   294.2    1.84644  -0.14042  -0.11274  -0.06198
  0-1A  -> 19-1A    4.295697   34647.1   288.6    5.66923  -0.08418  -0.08522   0.01647
  0-1A  -> 20-1A    4.317299   34821.4   287.2   -1.30063   0.02709  -0.02434   0.00153
  0-1A  -> 21-1A    4.379935   35326.6   283.1   -0.58408   0.01711  -0.03490   0.01101
  0-1A  -> 22-1A    4.443576   35839.9   279.0   -0.09801   0.01767   0.01535   0.00672
  0-1A  -> 23-1A    4.635209   37385.5   267.5    0.21150   0.01297   0.00076   0.00552
  0-1A  -> 24-1A    4.728488   38137.8   262.2    3.27121   0.13567   0.10466   0.38210
  0-1A  -> 25-1A    4.778272   38539.4   259.5    0.08523  -0.01107  -0.00065  -0.08589
  0-1A  -> 26-1A    4.803558   38743.3   258.1    0.27369   0.04817   0.02556  -0.04608
  0-1A  -> 27-1A    4.815589   38840.4   257.5   -1.05231  -0.00367  -0.00742   0.01159
  0-1A  -> 28-1A    4.863736   39228.7   254.9    0.44421   0.02338   0.01892  -0.04613
  0-1A  -> 29-1A    4.897645   39502.2   253.2   -2.36786   0.05781  -0.04661   0.04329
  0-1A  -> 30-1A    4.918130   39667.4   252.1    0.76999   0.05413  -0.06975  -0.01486

------------------------------------------------------------------------------------------
                     CD SPECTRUM VIA TRANSITION VELOCITY DIPOLE MOMENTS    
------------------------------------------------------------------------------------------
     Transition      Energy     Energy  Wavelength    R        MX        MY        MZ   
                      (eV)      (cm-1)    (nm)   (1e40*cgs)   (au)      (au)      (au)  
------------------------------------------------------------------------------------------
  0-1A  ->  1-1A    2.223076   17930.3   557.7   -0.04309  -0.05892  -0.05567   0.74343
  0-1A  ->  2-1A    2.271380   18319.9   545.9   -0.56678   0.02209  -0.03137   0.00415
  0-1A  ->  3-1A    3.016686   24331.2   411.0   -5.05402  -0.18751  -0.14632  -0.02235
  0-1A  ->  4-1A    3.110474   25087.7   398.6   -9.51202  -0.13744   0.18050  -0.00560
  0-1A  ->  5-1A    3.220021   25971.2   385.0   -0.92166   0.03998  -0.08009   0.05596
  0-1A  ->  6-1A    3.258645   26282.7   380.5   -1.38147  -0.09131  -0.06627   0.48513
  0-1A  ->  7-1A    3.323688   26807.4   373.0    1.88742  -0.00474   0.04028  -0.08495
  0-1A  ->  8-1A    3.502783   28251.9   354.0   -4.65002   0.09799  -0.13389  -0.00666
  0-1A  ->  9-1A    3.710859   29930.1   334.1    6.96208   0.11163  -0.15357   0.01536
  0-1A  -> 10-1A    3.726136   30053.3   332.7   -1.99182   0.03584   0.03736  -0.58623
  0-1A  -> 11-1A    3.817424   30789.6   324.8    0.17332   0.03419  -0.04055  -0.07140
  0-1A  -> 12-1A    3.842036   30988.1   322.7   -1.73120   0.02909  -0.04156   0.02624
  0-1A  -> 13-1A    3.949903   31858.1   313.9    1.60556   0.03513   0.01792   0.42706
  0-1A  -> 14-1A    4.013918   32374.4   308.9    3.99670  -0.03213  -0.01969   0.01297
  0-1A  -> 15-1A    4.072099   32843.7   304.5    4.86131  -0.15186  -0.09807  -0.21891
  0-1A  -> 16-1A    4.087108   32964.8   303.4   -4.47299  -0.02128   0.10171   0.04847
  0-1A  -> 17-1A    4.142530   33411.8   299.3   -8.39574  -0.04605  -0.00793   0.01069
  0-1A  -> 18-1A    4.213649   33985.4   294.2    1.78977  -0.14042  -0.11274  -0.06198
  0-1A  -> 19-1A    4.295697   34647.1   288.6    5.62646  -0.08418  -0.08522   0.01647
  0-1A  -> 20-1A    4.317299   34821.4   287.2   -1.30187   0.02709  -0.02434   0.00153
  0-1A  -> 21-1A    4.379935   35326.6   283.1   -0.54410   0.01711  -0.03490   0.01101
  0-1A  -> 22-1A    4.443576   35839.9   279.0   -0.09940   0.01767   0.01535   0.00672
  0-1A  -> 23-1A    4.635209   37385.5   267.5    0.20248   0.01297   0.00076   0.00552
  0-1A  -> 24-1A    4.728488   38137.8   262.2    3.21497   0.13567   0.10466   0.38210
  0-1A  -> 25-1A    4.778272   38539.4   259.5    0.09054  -0.01107  -0.00065  -0.08589
  0-1A  -> 26-1A    4.803558   38743.3   258.1    0.27124   0.04817   0.02556  -0.04608
  0-1A  -> 27-1A    4.815589   38840.4   257.5   -1.04347  -0.00367  -0.00742   0.01159
  0-1A  -> 28-1A    4.863736   39228.7   254.9    0.43645   0.02338   0.01892  -0.04613
  0-1A  -> 29-1A    4.897645   39502.2   253.2   -1.86178   0.05781  -0.04661   0.04329
  0-1A  -> 30-1A    4.918130   39667.4   252.1    0.74286   0.05413  -0.06975  -0.01486

Total run time:     5911.665 sec

           *** ORCA-CIS/TD-DFT FINISHED WITHOUT ERROR ***
-----------------------
CIS/TD-DFT TOTAL ENERGY
-----------------------

    E(SCF)  =  -1416.746004636 Eh
    DE(CIS) =      0.081696533 Eh (Root  1)
    ----------------------------- ---------
    E(tot)  =  -1416.664308103 Eh


Maximum memory used throughout the entire CIS-calculation: 2401.0 MB
=> NOW LEAVING ORCA_CIS

-------------------------   --------------------
FINAL SINGLE POINT ENERGY     -1416.664308103188
-------------------------   --------------------



           ************************************************************
           *        Program running with 4 parallel MPI-processes     *
           *              working on a common directory               *
           ************************************************************

------------------------------------------------------------------------------
                              ORCA PROPERTY CALCULATIONS
------------------------------------------------------------------------------

GBWName                                 ... tddft.gbw
Number of atoms                         ...     48
Number of basis functions               ...   1039
Max core memory                         ...   3000 MB

Electric properties:
Dipole moment                           ... YES
Quadrupole moment                       ...  NO
Static polarizability (Dipole/Dipole)   ...  NO
Static polarizability (Dipole/Quad.)    ...  NO
Static polarizability (Quad./Quad.)     ...  NO
Static polarizability (Velocity)        ...  NO
Static hyperpolarizability              ...  NO

Atomic electric properties:
Dipole moment                           ...  NO
Quadrupole moment                       ...  NO
Static polarizability                   ...  NO

Choice of electric origin               ... Center of mass
Position of electric origin             ...     0.103281     0.078834     1.097617

General magnetic properties:
Magnetizability                         ...  NO

EPR properties:
g-Tensor (aka g-matrix)                 ...  NO
Zero-Field splitting spin-orbit         ...  NO
Zero-field splitting spin-spin          ...  NO
Hyperfine couplings                     ...  NO (   0 nuclei)
Quadrupole couplings                    ...  NO (   0 nuclei)
Contact density                         ...  NO (   0 nuclei)

NMR properties:
Chemical shifts                         ...  NO (   0 nuclei)
Spin-rotation constants                 ...  NO (   0 nuclei)
Spin-spin couplings                     ...  NO (   0 nuclei,    0 pairs)

Choice of magnetic origin               ... GIAO
Position of magnetic origin             ...     0.000000     0.000000     0.000000

Properties with geometric perturbations:
SCF Hessian                             ...  NO
IR spectrum                             ...  NO
VCD spectrum                            ...  NO
X-ray spectroscopy properties:
SCF XES/XAS/RIXS spectra                ...  NO

SCF SOC stabilization energy            ...  NO
Diagonal Born-Oppenheimer correction    ...  NO

-------------
DIPOLE MOMENT
-------------

Method             : SCF
Type of density    : Electron Density
Multiplicity       :   1
Irrep              :   0
Energy             : -1416.7460046360333763 Eh
Basis              : AO
                                X                 Y                 Z
Electronic contribution:     -5.641264771      -3.771819776      -1.299106861
Nuclear contribution   :      6.342772600       5.187774044       4.341567363
                        -----------------------------------------
Total Dipole Moment    :      0.701507829       1.415954268       3.042460502
                        -----------------------------------------
Magnitude (a.u.)       :      3.428353195
Magnitude (Debye)      :      8.714181294



--------------------
Rotational spectrum 
--------------------
 
Rotational constants in cm-1:             0.006132             0.006084             0.004304 
Rotational constants in MHz :           183.841401           182.386496           129.043387 

Dipole components along the rotational axes: 
x,y,z [a.u.] :     1.342941     0.848056     3.038242 
x,y,z [Debye]:     3.413485     2.155588     7.722598 

 

Dipole moment calculation done in   0.1 sec 

Maximum memory used throughout the entire PROP-calculation: 125.1 MB

--------------------------------
SUGGESTED CITATIONS FOR THIS RUN
--------------------------------

Below you find a list of papers that are relevant to this ORCA run
We neither can nor want to force you to cite these papers, but we appreciate if you do
You receive ORCA, which is the product of decades of hard work by many enthusiastic individuals, for free
The only thing we kindly ask in return is that you cite our papers,
We deeply appreciate it, if you show your appreciation for ORCA by not just citing the generic ORCA reference.

Please note that relegating all ORCA citations to the supporting information does *not* help us.
SI sections are not indexed - citations you put there will not count into any citation statistics
But we need these citations in order to attract the funding resources that allow us to do what we are doing

Therefore, if you are a happy ORCA user, please consider citing a few of the papers listed below in the main body of your paper

In addition to the list printed below, the program has created the file tddft.bibtex that contains the list in bibtex format
You can import this file easily into all common literature databanks and citation aid programs

It goes without saying that in many instances, there are alternative algorithms to achieve similar
results as the ones you have gotten from ORCA. It is, of course, also the case that in some instances
ORCA just re-implements algorithms worked out by others. We are fully aware of that and we are also
fully appreciative of our colleagues work. Hence this citation list should not be read as indicating
that the listed papers, which are focused on our own work, are the only ones worth citing. It simply
meant to make it easier for users to cite ORCA specific papers. It is not a substitute for doing your
own literature research and citing the relevant literature in a scientifically appropriate manner.

List of essential papers. We consider these as the minimum necessary citations

  1. Neese, F.
     Software update: the ORCA program system, version 6.0
     WIRES Comput. Molec. Sci. 2025 15(1), e70019
     doi.org/10.1002/wcms.70019

List of papers to cite with high priority. The work reported in these papers was absolutely
necessary for this run to complete.
Our perspective: the developers of density functionals and basis sets usually get cited in chemistry papers
Good! But without the algorithms to do something with them, the functionals or basis sets would not do anything.
Hence, in our opinion, the algorithm design and method developments papers are equally worthy of getting cited

  1. Neese, F.; Olbrich, G.
     Efficient use of the resolution of the identity approximation in time-dependent density functional calculations with hybrid density functionals
     Chem. Phys. Lett. 2002 362 , 170-178
     doi.org/10.1016/s0009-2614(02)01053-9
  2. Neese, F.
     An improvement of the resolution of the identity approximation for the formation of the Coulomb matrix
     J. Comp. Chem. 2003 24(14), 1740-1747
     doi.org/10.1002/jcc.10318
  3. Garcia-Rates, M.; Neese, F.
     Effect of the Solute Cavity on the Solvation Energy and its Derivatives within the Framework of the Gaussian Charge Scheme
     J. Comput. Chem. 2020 41 , 922-939
     doi.org/10.1002/jcc.26139
  4. Neese, F.
     The SHARK Integral Generation and Digestion System
     J. Comp. Chem. 2022 44(3), 381
     doi.org/10.1002/jcc.26942

List of suggested additional citations. These are papers that are important in the 'surrounding' of 
of this run, or papers that preceded the highly important papers. If you like your results we are grateful for a citation.

  1. Neese, F.
     The ORCA program system
     WIRES Comput. Molec. Sci. 2012 2(1), 73-78
     doi.org/10.1002/wcms.81
  2. Neese, F.
     Software update: the ORCA program system, version 4.0
     WIRES Comput. Molec. Sci. 2018 8(1), 1-6
     doi.org/10.1002/wcms.1327
  3. Neese, F.; Wennmohs, F.; Becker, U.; Riplinger, C.
     The ORCA quantum chemistry program package
     J. Chem. Phys. 2020 152(22), 224108
     doi.org/10.1063/5.0004608
  4. Neese, F.
     Software update: The ORCA program system—Version 5.0
     WIRES Comput. Molec. Sci. 2022 12(1), e1606
     doi.org/10.1002/wcms.1606

List of optional additional citations

  1. Neese, F.
     Approximate second-order SCF convergence for spin unrestricted wavefunctions
     Chem. Phys. Lett. 2000 325(1-3), 93-98
     doi.org/10.1016/s0009-2614(00)00662-x

Timings for individual modules:

Sum of individual times          ...     7145.510 sec (= 119.092 min)
Startup calculation              ...       24.490 sec (=   0.408 min)   0.3 %
SCF iterations                   ...     1202.871 sec (=  20.048 min)  16.8 %
Property integrals               ...        5.118 sec (=   0.085 min)   0.1 %
Property calculations            ...        0.796 sec (=   0.013 min)   0.0 %
CIS module                       ...     5912.235 sec (=  98.537 min)  82.7 %
                             ****ORCA TERMINATED NORMALLY****
TOTAL RUN TIME: 0 days 1 hours 59 minutes 6 seconds 291 msec
