
                                 *****************
                                 * O   R   C   A *
                                 *****************

                                            #,                                       
                                            ###                                      
                                            ####                                     
                                            #####                                    
                                            ######                                   
                                           ########,                                 
                                     ,,################,,,,,                         
                               ,,#################################,,                 
                          ,,##########################################,,             
                       ,#########################################, ''#####,          
                    ,#############################################,,   '####,        
                  ,##################################################,,,,####,       
                ,###########''''           ''''###############################       
              ,#####''   ,,,,##########,,,,          '''####'''          '####       
            ,##' ,,,,###########################,,,                        '##       
           ' ,,###''''                  '''############,,,                           
         ,,##''                                '''############,,,,        ,,,,,,###''
      ,#''                                            '''#######################'''  
     '                                                          ''''####''''         
             ,#######,   #######,   ,#######,      ##                                
            ,#'     '#,  ##    ##  ,#'     '#,    #''#        ,####,    ,#,          
            ##       ##  ##   ,#'  ##            #'  '#       #'       ,# #          
            ##       ##  #######   ##           ,######,      #####,      #          
            '#,     ,#'  ##    ##  '#,     ,#' ,#      #,     #,   #      #          
             '#######'   ##     ##  '#######'  #'      '#     '####' #    #          



                #########################################################
                #                        -***-                          #
                #          Department of theory and spectroscopy        #
                #                                                       #
                #                      Frank Neese                      #
                #                                                       #
                #     Directorship, Architecture, Infrastructure        #
                #                    SHARK, DRIVERS                     #
                #        Core code/Algorithms in most modules           #
                #                                                       #
                #        Max Planck Institute fuer Kohlenforschung      #
                #                Kaiser Wilhelm Platz 1                 #
                #                 D-45470 Muelheim/Ruhr                 #
                #                      Germany                          #
                #                                                       #
                #                  All rights reserved                  #
                #                        -***-                          #
                #########################################################


                         Program Version 6.1.1  -  RELEASE   -
                                (GIT: $487d211c$)
                          ($2025-11-21 10:33:24 +0100$)


 With contributions from (in alphabetic order):
[Max-Planck-Institut fuer Kohlenforschung]                               
  Daniel Aravena         : Magnetic Suceptibility                        
  Michael Atanasov       : Ab Initio Ligand Field Theory (pilot matlab implementation)
  Alexander A. Auer      : GIAO ZORA, VPT2 properties, NMR spectrum      
  Ute Becker             : All parallelization in ORCA, NUMFREQ, NUMCALC 
  Giovanni Bistoni       : ED, misc. LED, open-shell LED, HFLD           
  Dmytro Bykov           : pre 5.0 version of the SCF Hessian            
  Marcos Casanova-Páez   : Triplet and SCS-CIS(D). UHF-(DLPNO)-IP/EA/STEOM-CCSD. UHF-CVS-IP/STEOM-CCSD   
  Vijay G. Chilkuri      : MRCI spin determinant printing, contributions to CSF-ICE 
  Pauline Colinet        : FMM embedding                                 
  Dipayan Datta          : RHF DLPNO-CCSD density                        
  Achintya Kumar Dutta   : EOM-CC, STEOM-CC                              
  Nicolas Foglia         : Exact transition moments, OPA infrastructure, MCD improvements    
  Dmitry Ganyushin       : Spin-Orbit,Spin-Spin,Magnetic field MRCI      
  Miquel Garcia-Rates    : C-PCM and meta-GGA Hessian, CCSD/C-PCM, Gaussian charge scheme 
  Tiago L. C. Gouveia    : GS-ROHF, GS-ROCIS                             
  Yang Guo               : DLPNO-NEVPT2, F12-NEVPT2, CIM, IAO-localization        
  Andreas Hansen         : Spin unrestricted coupled pair/coupled cluster methods 
  Ingolf Harden          : AUTO-CI MPn and infrastructure                
  Benjamin Helmich-Paris : MC-RPA, TRAH-(SCF,CASSCF), AVAS, COSX integrals, SCF dyn. polar., MC-PDFT, srDFT 
  Lee Huntington         : MR-EOM, pCC                                   
  Robert Izsak           : Overlap fitted RIJCOSX, COSX-SCS-MP3, EOM     
  Riya Kayal             : Wick's Theorem for AUTO-CI, AUTO-CI UHF-CCSDT 
  Emily Kempfer          : AUTO-CI RHF CISDT and CCSDT, approximate NEVPT4
  Christian Kollmar      : KDIIS, OOCD, Brueckner-CCSD(T), CCSD density, CASPT2, CASPT2-K, improved NEVPT2 
  Axel Koslowski         : Symmetry handling                             
  Simone Kossmann        : meta-GGA functionals, TD-DFT gradient, OOMP2, (MP2 Hessian; deprecated post 5.0) 
  Lucas Lang             : DCDCAS, Hyperfine gauge corrections, ICE-SOC+SSC
  Marvin Lechner         : AUTO-CI (C++ implementation), FIC-MRCC        
  Spencer Leger          : CASSCF response                               
  Dagmar Lenk            : GEPOL surface, SMD, ORCA-2-JSON               
  Dimitrios Liakos       : Extrapolation schemes; Compound Job, Property file
  Dimitrios Manganas     : Further ROCIS development; embedding schemes. LFT, Crystal Embedding 
  Dimitrios Pantazis     : SARC Basis sets                               
  Anastasios Papadopoulos: AUTO-CI, single reference methods and gradients 
  Taras Petrenko         : pre 6.0 DFT Hessian and TD-DFT gradient,  ECA, NRVS 
  Petra Pikulova         : Analytic Raman intensities                    
  Peter Pinski           : DLPNO-MP2, DLPNO-MP2 Gradient                 
  Shashank Vittal Rao    : ES-AILFT, MagRelax                            
  Christoph Reimann      : Effective Core Potentials                     
  Marius Retegan         : Local ZFS, SOC                                
  Christoph Riplinger    : Optimizer, TS searches, QM/MM, DLPNO-CCSD(T), (RO)-DLPNO pert. Triples 
  Michael Roemelt        : Original ROCIS implementation, recursive CI coupling coefficients
  Masaaki Saitow         : Open-shell DLPNO-CCSD energy and density      
  Barbara Sandhoefer     : DKH picture change effects                    
  Yorick L. A. Schmerwitz: GMF and freeze-and-release deltaSCF, NEB S-IDPP initial path                    
  Kantharuban Sivalingam : CASSCF convergence/infrastructure, NEVPT2, NEVPT3, NEVPT4(SD), FIC-MRCI and CEPA variants
  Bernardo de Souza      : ESD, SOC TD-DFT                               
  Georgi L. Stoychev     : AutoAux, RI-MP2 NMR, DLPNO-MP2 response, X2C  
  Van Anh Tran           : RI-MP2 g-tensors                              
  Willem Van den Heuvel  : Paramagnetic NMR                              
  Zikuan Wang            : NOTCH, Electric field optimization            
  Frank Wennmohs         : Technical directorship and infrastructure     
  Hang Xu                : AUTO-CI-Response properties                   
                                                                         
[FACCTs GmbH]                                                            
  Markus Bursch, Nicolas Foglia, Miquel Garcia-Rates, Ingolf Harden, Hagen Neugebauer, Anastasios Papadopoulos, 
  Christoph Riplinger, Bernardo de Souza, Georgi L. Stoychev                                                    
                                                                 
  APM, various basis sets, CI-OPT, improved COSX, DLPNO-Multilevel,           
  DOCKER, DRACO, updates on ESD, Fragmentator, GOAT, IRC, LR-CPCM, L-BFGS, MBIS, meta-GGA TD-DFT gradient, ML-optimized integration grids, 
  MM, NACMEs, nearIR, NEB, NEB-TS, NL-DFT gradient (VV10), 2- and 3-layer-ONIOM, interface openCOSMO-RS, QMMM,   
  Crystal-QMMM, RESP, rigid body optimization, SF, symmetry and pop. for TD-DFT, various functionals, SOLVATOR                                   
                                                                         
[Other institutions]                                                     
  V. Asgeirsson          : NEB                                           
  Christoph Bannwarth    : sTDA-DFT, sTD-DFT, PBEh-3c, B97-3c, D3        
  Giovanni Bistoni       : ETS/NOCV, ADLD/ADEX, COVALED                  
  Martin Brehm           : Molecular dynamics                            
  Ronald Cardenas        : ETS/NOCV                                      
  Martina Colucci        : COVALED                                       
  Sebastian Ehlert       : rSCAN, r2SCAN, r2SCAN-3c, D4, dhf basis sets  
  Marvin Friede          : D4 for Fr, Ra, Ac-Lr                          
  Lars Goerigk           : TD-DFT with DH, B97 family of functionals     
  Stefan Grimme          : VdW corrections, initial TS optimization, DFT functionals, gCP, sTDA/sTD-DF 
  Waldemar Hujo          : DFT-NL                                        
  H. Jonsson             : NEB                                           
  Holger Kruse           : gCP                                           
  Marcel Mueller         : wB97X-3c, vDZP basis set                      
  Hagen Neugebauer       : wr2SCAN, Native XTB                           
  Gianluca Regni         : ADLD/ADEX                                     
  Tobias Risthaus        : pre 6.0 range-separated hybrid DFT and stability analysis
  Lukas Wittmann         : regularized MP2, r2SCAN double-hybrids, wr2SCAN        
                                                                         
We gratefully acknowledge several colleagues who have allowed us to      
interface, adapt or use parts of their codes:                            
  Ed Valeev, F. Pavosevic, A. Kumar             : LibInt (2-el integral package), F12 methods 
  Garnet Chan, S. Sharma, J. Yang, R. Olivares  : DMRG                   
  Ulf Ekstrom                                   : XCFun DFT Library      
  Mihaly Kallay                                 : mrcc  (arbitrary order and MRCC methods)
  Frank Weinhold                                : gennbo (NPA and NBO analysis)           
  Simon Mueller                                 : openCOSMO-RS                            
  Christopher J. Cramer and Donald G. Truhlar   : smd solvation model                     
  S Lehtola, MJT Oliveira, MAL Marques          : LibXC Library                           
  Liviu Ungur et al                             : ANISO software                          


 Your calculation uses the libint2 library for the computation of 2-el integrals
 For citations please refer to: http://libint.valeyev.net

 Your ORCA version has been built with support for libXC version: 7.0.0
 For citations please refer to: https://libxc.gitlab.io

 This ORCA versions uses:
   CBLAS   interface :  Fast vector & matrix operations
   LAPACKE interface :  Fast linear algebra routines
   SCALAPACK package :  Parallel linear algebra routines
   Shared memory     :  Shared parallel matrices
   BLAS/LAPACK       :  OpenBLAS 0.3.29  USE64BITINT DYNAMIC_ARCH NO_AFFINITY Haswell SINGLE_THREADED
        Core in use  :  Haswell
   Copyright (c) 2011-2014, The OpenBLAS Project


  ***********************************
  * Starting time: Fri Jul 10 19:00:45 2026
  * Host name:     steezy
  * Process ID:    2052705
  * Working dir.:  /home/jannes/chlorophyll-ladder/009-mgchlorin-axial-ligation/mgchlorin_meoh/03_tddft_ch2cl2/camb3lyp
  ***********************************

NOTE: MaxCore=3000 MB was set to SCF,MP2,MDCI,CIPSI,MRCI,RASCI and CIS
      => If you want to overwrite this, your respective input block should be placed after the MaxCore statement


***************************************
The coordinates will be read from file: /home/jannes/chlorophyll-ladder/009-mgchlorin-axial-ligation/mgchlorin_meoh/01_opt/mgchlorin_meoh_opt_b3lypd4_tzvp.xyz
***************************************


XCFun DFT library Copyright 2009-2010 Ulf Ekstrom and contributors.
See http://admol.org/xcfun for more information.
This is free software; see the source code for copying conditions.
There is ABSOLUTELY NO WARRANTY; not even for MERCHANTABILITY or FITNESS FOR A PARTICULAR PURPOSE.
For details see the documentation.
Scientific users of this library should cite U. Ekstrom, L. Visscher, R. Bast, A. J. Thorvaldsen and K. Ruud;
J.Chem.Theor.Comp. 2010, DOI: 10.1021/ct100117s
XCFun Version 0.99 

================================================================================

----- Orbital basis set information -----
Your calculation utilizes the basis: def2-TZVP
   F. Weigend and R. Ahlrichs, Phys. Chem. Chem. Phys. 7, 3297 (2005).

----- AuxJ basis set information -----
Your calculation utilizes the auxiliary basis: def2/J
   H-Rn: F. Weigend, Phys. Chem. Chem. Phys. 8, 1057 (2006).
   Fr-Lr: K. Eichkorn, F. Weigend, O. Treutler, R. Ahlrichs; Theor. Chem. Acc. 97, 119 (1997).

================================================================================
                                        WARNINGS
                       Please study these warnings very carefully!
================================================================================


WARNING: CIS/ROCIS methods need fully converged wavefunctions
  ===> : Setting SCFConvForced true
         You can overwrite this default with %scf ConvForced false 


================================================================================
                                       INPUT FILE
================================================================================
NAME = tddft.inp
|  1> %pal nprocs 4 end
|  2> %maxcore 3000
|  3> ! CAM-B3LYP def2-TZVP def2/J RIJCOSX DefGrid3 TightSCF CPCM(CH2Cl2)
|  4> %tddft
|  5>   nroots 30
|  6>   tda false
|  7>   triplets false
|  8> end
|  9> * xyzfile 0 1 /home/jannes/chlorophyll-ladder/009-mgchlorin-axial-ligation/mgchlorin_meoh/01_opt/mgchlorin_meoh_opt_b3lypd4_tzvp.xyz
| 10> 
| 11>                          ****END OF INPUT****
================================================================================

                       ****************************
                       * Single Point Calculation *
                       ****************************

---------------------------------
CARTESIAN COORDINATES (ANGSTROEM)
---------------------------------
  N      1.605380    1.370705    0.010756
  N     -1.325018    1.652121   -0.009627
  N      1.232028   -1.551216    0.063420
  N     -1.658017   -1.241468    0.001982
  C      2.882865    3.362718   -0.137984
  C      3.835430    2.175183    0.054140
  C      1.510200    2.720017   -0.061220
  C      2.901777    0.978823    0.042453
  C      0.341822    3.448099   -0.088705
  C      3.352821   -0.321557    0.075899
  C     -0.978230    2.959614   -0.075512
  C      2.584656   -1.500759    0.068758
  C     -2.702893    1.592937   -0.052242
  C      0.873553   -2.882351    0.037106
  C     -2.163581    3.777140   -0.148174
  C      3.124652   -2.838100    0.055537
  C     -3.229396    2.929895   -0.131545
  C      2.064313   -3.691346    0.035551
  C     -3.452298    0.428751   -0.046446
  C     -0.425333   -3.359284    0.011624
  C     -2.976729   -0.890409   -0.029923
  C     -1.607442   -2.604994   -0.009622
  C     -3.791295   -2.071024   -0.058249
  C     -2.938465   -3.138893   -0.046473
  H      3.016458    3.843771   -1.109997
  H      3.003575    4.137758    0.619912
  H      4.367227    2.225015    1.007546
  H      4.591146    2.100197   -0.728603
  H      0.446613    4.524490   -0.148554
  H      4.427241   -0.457394    0.093760
  H     -2.172689    4.854147   -0.213726
  H      4.175221   -3.084234    0.052536
  H     -4.277594    3.181690   -0.181821
  H      2.080890   -4.770156    0.012833
  H     -4.528437    0.548854   -0.081176
  H     -0.542886   -4.436085   -0.004520
  H     -4.869807   -2.084315   -0.092294
  H     -3.189762   -4.188115   -0.068441
  Mg    -0.044077    0.052629    0.240906
  O     -0.192902    0.135749    2.361822
  C     -0.323025   -1.074865    3.126259
  H     -0.244714   -0.857796    4.192747
  H     -1.268096   -1.574313    2.907546
  H      0.498049   -1.719278    2.823789
  H     -0.909876    0.743809    2.578918

----------------------------
CARTESIAN COORDINATES (A.U.)
----------------------------
  NO LB      ZA    FRAG     MASS         X           Y           Z
   0 N     7.0000    0    14.007    3.033728    2.590258    0.020325
   1 N     7.0000    0    14.007   -2.503921    3.122057   -0.018193
   2 N     7.0000    0    14.007    2.328196   -2.931374    0.119847
   3 N     7.0000    0    14.007   -3.133199   -2.346034    0.003745
   4 C     6.0000    0    12.011    5.447825    6.354616   -0.260751
   5 C     6.0000    0    12.011    7.247913    4.110499    0.102309
   6 C     6.0000    0    12.011    2.853865    5.140086   -0.115689
   7 C     6.0000    0    12.011    5.483564    1.849707    0.080224
   8 C     6.0000    0    12.011    0.645951    6.515963   -0.167628
   9 C     6.0000    0    12.011    6.335913   -0.607654    0.143428
  10 C     6.0000    0    12.011   -1.848586    5.592860   -0.142696
  11 C     6.0000    0    12.011    4.884292   -2.836024    0.129935
  12 C     6.0000    0    12.011   -5.107728    3.010214   -0.098723
  13 C     6.0000    0    12.011    1.650775   -5.446854    0.070120
  14 C     6.0000    0    12.011   -4.088575    7.137760   -0.280009
  15 C     6.0000    0    12.011    5.904736   -5.363232    0.104950
  16 C     6.0000    0    12.011   -6.102674    5.536699   -0.248583
  17 C     6.0000    0    12.011    3.900987   -6.975633    0.067182
  18 C     6.0000    0    12.011   -6.523897    0.810222   -0.087769
  19 C     6.0000    0    12.011   -0.803764   -6.348127    0.021966
  20 C     6.0000    0    12.011   -5.625203   -1.682629   -0.056546
  21 C     6.0000    0    12.011   -3.037624   -4.922724   -0.018183
  22 C     6.0000    0    12.011   -7.164509   -3.913669   -0.110074
  23 C     6.0000    0    12.011   -5.552895   -5.931648   -0.087821
  24 H     1.0000    0     1.008    5.700279    7.263675   -2.097591
  25 H     1.0000    0     1.008    5.675934    7.819230    1.171464
  26 H     1.0000    0     1.008    8.252863    4.204670    1.903986
  27 H     1.0000    0     1.008    8.676008    3.968797   -1.376860
  28 H     1.0000    0     1.008    0.843976    8.550046   -0.280727
  29 H     1.0000    0     1.008    8.366272   -0.864350    0.177180
  30 H     1.0000    0     1.008   -4.105788    9.173008   -0.403884
  31 H     1.0000    0     1.008    7.890024   -5.828357    0.099278
  32 H     1.0000    0     1.008   -8.083481    6.012524   -0.343592
  33 H     1.0000    0     1.008    3.932313   -9.014289    0.024250
  34 H     1.0000    0     1.008   -8.557505    1.037183   -0.153401
  35 H     1.0000    0     1.008   -1.025906   -8.382986   -0.008542
  36 H     1.0000    0     1.008   -9.202601   -3.938785   -0.174411
  37 H     1.0000    0     1.008   -6.027776   -7.914391   -0.129334
  38 Mg   12.0000    0    24.305   -0.083293    0.099455    0.455247
  39 O     8.0000    0    15.999   -0.364532    0.256529    4.463197
  40 C     6.0000    0    12.011   -0.610428   -2.031200    5.907773
  41 H     1.0000    0     1.008   -0.462442   -1.621000    7.923144
  42 H     1.0000    0     1.008   -2.396354   -2.975021    5.494466
  43 H     1.0000    0     1.008    0.941176   -3.248965    5.336188
  44 H     1.0000    0     1.008   -1.719416    1.405595    4.873448

--------------------------------
INTERNAL COORDINATES (ANGSTROEM)
--------------------------------
 N      0   0   0     0.000000000000     0.00000000     0.00000000
 N      1   0   0     2.943949636277     0.00000000     0.00000000
 N      1   2   0     2.946148499232    88.21134590     0.00000000
 N      3   1   2     2.907246434952    91.14198993     0.80283161
 C      1   2   3     2.371118856879   117.10011830   176.79280150
 C      5   1   2     1.534448512060    71.12090132   175.91166090
 C      1   2   3     1.354577457895    80.47202694   178.01529490
 C      1   2   3     1.354704071457   168.62833797   356.20463502
 C      7   1   2     1.376940836683   125.97238426     0.68873382
 C      8   1   7     1.376788137243   125.96531761   182.00158737
 C      2   1   3     1.354304095042    80.66184868   181.85410820
 C      3   1   2     1.353578963404    80.58781068   179.96993997
 C      2   1   3     1.379804097188   171.93876484   349.09599393
 C      3   1   2     1.378810120255   171.92704911    14.75804504
 C     11   2   1     1.441764566729   109.83789674   178.79431866
 C     12   3   1     1.442307415004   109.84848565   181.71568801
 C     15  11   2     1.361639756166   106.86389882   359.68457779
 C     16  12   3     1.361155810741   106.84078305     0.29021032
 C     13   2  11     1.384546538748   125.20083731   178.07371685
 C     14   3  12     1.383914546907   125.24517801   180.62139697
 C      4   3   1     1.365013274327   171.21155813   359.88451756
 C      4   3   1     1.364512920659    81.77084562   178.28357442
 C     21   4  22     1.434633254704   109.71506610     0.19759479
 C     23  21   4     1.366674991535   106.77022387   359.83928216
 H      5   1   2     1.092735193853   119.43986673   281.19030166
 H      5   1   2     1.090717440220   127.80711929    70.72221376
 H      6   5   1     1.092828651342   112.08812518   245.22332488
 H      6   5   1     1.090602632117   113.17325790   124.11915742
 H      9   7   1     1.083133991818   116.39044727   180.03511455
 H     10   8   1     1.083120057504   116.34838826   179.71851417
 H     15  11   2     1.079038418866   125.16727673   180.30258196
 H     16  12   3     1.079021084593   125.17373331   179.74534147
 H     17  15  11     1.079188175336   127.91707386   180.70049503
 H     18  16  12     1.079176897696   127.95076069   179.42051705
 H     19  13   2     1.083377417178   116.37838934   179.83430117
 H     20  14   3     1.083318803477   116.40232892   180.16396833
 H     23  21   4     1.079130505309   125.32542253   180.39681959
 H     24  23  21     1.079119974083   127.89548087   180.53227828
 Mg     3   1   2     2.057247178449    46.12819060   351.70352866
 O     39   3   1     2.127755084101    99.19747955   262.02642680
 C     40  39   3     1.437665363230   120.22834514   318.11017527
 H     41  40  39     1.091168725854   110.22358523   172.04514000
 H     41  40  39     1.091074948927   110.93297683   294.68124893
 H     41  40  39     1.086700590974   106.43713720    53.24365280
 H     40  39   3     0.964840899917   107.51039472   191.16449212

---------------------------
INTERNAL COORDINATES (A.U.)
---------------------------
 N      0   0   0     0.000000000000     0.00000000     0.00000000
 N      1   0   0     5.563258564621     0.00000000     0.00000000
 N      1   2   0     5.567413813412    88.21134590     0.00000000
 N      3   1   2     5.493899565879    91.14198993     0.80283161
 C      1   2   3     4.480765270477   117.10011830   176.79280150
 C      5   1   2     2.899687454396    71.12090132   175.91166090
 C      1   2   3     2.559780422605    80.47202694   178.01529490
 C      1   2   3     2.560019687561   168.62833797   356.20463502
 C      7   1   2     2.602041083943   125.97238426     0.68873382
 C      8   1   7     2.601752523821   125.96531761   182.00158737
 C      2   1   3     2.559263841677    80.66184868   181.85410820
 C      3   1   2     2.557893541471    80.58781068   179.96993997
 C      2   1   3     2.607451862147   171.93876484   349.09599393
 C      3   1   2     2.605573517961   171.92704911    14.75804504
 C     11   2   1     2.724540180709   109.83789674   178.79431866
 C     12   3   1     2.725566015281   109.84848565   181.71568801
 C     15  11   2     2.573126232212   106.86389882   359.68457779
 C     16  12   3     2.572211707897   106.84078305     0.29021032
 C     13   2  11     2.616413777902   125.20083731   178.07371685
 C     14   3  12     2.615219486404   125.24517801   180.62139697
 C      4   3   1     2.579501257645   171.21155813   359.88451756
 C      4   3   1     2.578555726242    81.77084562   178.28357442
 C     21   4  22     2.711063954007   109.71506610     0.19759479
 C     23  21   4     2.582641448080   106.77022387   359.83928216
 H      5   1   2     2.064970253280   119.43986673   281.19030166
 H      5   1   2     2.061157251507   127.80711929    70.72221376
 H      6   5   1     2.065146862339   112.08812518   245.22332488
 H      6   5   1     2.060940295635   113.17325790   124.11915742
 H      9   7   1     2.046826610876   116.39044727   180.03511455
 H     10   8   1     2.046800278840   116.34838826   179.71851417
 H     15  11   2     2.039087099636   125.16727673   180.30258196
 H     16  12   3     2.039054342607   125.17373331   179.74534147
 H     17  15  11     2.039370098351   127.91707386   180.70049503
 H     18  16  12     2.039348786700   127.95076069   179.42051705
 H     19  13   2     2.047286618141   116.37838934   179.83430117
 H     20  14   3     2.047175854298   116.40232892   180.16396833
 H     23  21   4     2.039261117793   125.32542253   180.39681959
 H     24  23  21     2.039241216662   127.89548087   180.53227828
 Mg     3   1   2     3.887633757051    46.12819060   351.70352866
 O     39   3   1     4.020874389010    99.19747955   262.02642680
 C     40  39   3     2.716793808729   120.22834514   318.11017527
 H     41  40  39     2.062010057764   110.22358523   172.04514000
 H     41  40  39     2.061832845054   110.93297683   294.68124893
 H     41  40  39     2.053566506511   106.43713720    53.24365280
 H     40  39   3     1.823285063650   107.51039472   191.16449212

---------------------
BASIS SET INFORMATION
---------------------
There are 5 groups of distinct atoms

 Group   1 Type N   : 11s6p2d1f contracted to 5s3p2d1f pattern {62111/411/11/1}
 Group   2 Type C   : 11s6p2d1f contracted to 5s3p2d1f pattern {62111/411/11/1}
 Group   3 Type H   : 5s1p contracted to 3s1p pattern {311/1}
 Group   4 Type Mg  : 14s8p3d contracted to 5s4p3d pattern {73211/5111/111}
 Group   5 Type O   : 11s6p2d1f contracted to 5s3p2d1f pattern {62111/411/11/1}

Atom   0N    basis set group =>   1
Atom   1N    basis set group =>   1
Atom   2N    basis set group =>   1
Atom   3N    basis set group =>   1
Atom   4C    basis set group =>   2
Atom   5C    basis set group =>   2
Atom   6C    basis set group =>   2
Atom   7C    basis set group =>   2
Atom   8C    basis set group =>   2
Atom   9C    basis set group =>   2
Atom  10C    basis set group =>   2
Atom  11C    basis set group =>   2
Atom  12C    basis set group =>   2
Atom  13C    basis set group =>   2
Atom  14C    basis set group =>   2
Atom  15C    basis set group =>   2
Atom  16C    basis set group =>   2
Atom  17C    basis set group =>   2
Atom  18C    basis set group =>   2
Atom  19C    basis set group =>   2
Atom  20C    basis set group =>   2
Atom  21C    basis set group =>   2
Atom  22C    basis set group =>   2
Atom  23C    basis set group =>   2
Atom  24H    basis set group =>   3
Atom  25H    basis set group =>   3
Atom  26H    basis set group =>   3
Atom  27H    basis set group =>   3
Atom  28H    basis set group =>   3
Atom  29H    basis set group =>   3
Atom  30H    basis set group =>   3
Atom  31H    basis set group =>   3
Atom  32H    basis set group =>   3
Atom  33H    basis set group =>   3
Atom  34H    basis set group =>   3
Atom  35H    basis set group =>   3
Atom  36H    basis set group =>   3
Atom  37H    basis set group =>   3
Atom  38Mg   basis set group =>   4
Atom  39O    basis set group =>   5
Atom  40C    basis set group =>   2
Atom  41H    basis set group =>   3
Atom  42H    basis set group =>   3
Atom  43H    basis set group =>   3
Atom  44H    basis set group =>   3
---------------------------------
AUXILIARY/J BASIS SET INFORMATION
---------------------------------
There are 5 groups of distinct atoms

 Group   1 Type N   : 12s5p4d2f1g contracted to 6s4p3d1f1g pattern {711111/2111/211/2/1}
 Group   2 Type C   : 12s5p4d2f1g contracted to 6s4p3d1f1g pattern {711111/2111/211/2/1}
 Group   3 Type H   : 5s2p1d contracted to 3s1p1d pattern {311/2/1}
 Group   4 Type Mg  : 14s5p5d2f1g contracted to 8s4p4d1f1g pattern {71111111/2111/2111/2/1}
 Group   5 Type O   : 12s5p4d2f1g contracted to 6s4p3d1f1g pattern {711111/2111/211/2/1}

Atom   0N    basis set group =>   1
Atom   1N    basis set group =>   1
Atom   2N    basis set group =>   1
Atom   3N    basis set group =>   1
Atom   4C    basis set group =>   2
Atom   5C    basis set group =>   2
Atom   6C    basis set group =>   2
Atom   7C    basis set group =>   2
Atom   8C    basis set group =>   2
Atom   9C    basis set group =>   2
Atom  10C    basis set group =>   2
Atom  11C    basis set group =>   2
Atom  12C    basis set group =>   2
Atom  13C    basis set group =>   2
Atom  14C    basis set group =>   2
Atom  15C    basis set group =>   2
Atom  16C    basis set group =>   2
Atom  17C    basis set group =>   2
Atom  18C    basis set group =>   2
Atom  19C    basis set group =>   2
Atom  20C    basis set group =>   2
Atom  21C    basis set group =>   2
Atom  22C    basis set group =>   2
Atom  23C    basis set group =>   2
Atom  24H    basis set group =>   3
Atom  25H    basis set group =>   3
Atom  26H    basis set group =>   3
Atom  27H    basis set group =>   3
Atom  28H    basis set group =>   3
Atom  29H    basis set group =>   3
Atom  30H    basis set group =>   3
Atom  31H    basis set group =>   3
Atom  32H    basis set group =>   3
Atom  33H    basis set group =>   3
Atom  34H    basis set group =>   3
Atom  35H    basis set group =>   3
Atom  36H    basis set group =>   3
Atom  37H    basis set group =>   3
Atom  38Mg   basis set group =>   4
Atom  39O    basis set group =>   5
Atom  40C    basis set group =>   2
Atom  41H    basis set group =>   3
Atom  42H    basis set group =>   3
Atom  43H    basis set group =>   3
Atom  44H    basis set group =>   3


           ************************************************************
           *        Program running with 4 parallel MPI-processes     *
           *              working on a common directory               *
           ************************************************************
------------------------------------------------------------------------------
                             ORCA STARTUP CALCULATIONS
                           -- RI-GTO INTEGRALS CHOSEN --
------------------------------------------------------------------------------
------------------------------------------------------------------------------
                   ___                                                        
                  /   \      - P O W E R E D   B Y -                         
                 /     \                                                     
                 |  |  |   _    _      __       _____    __    __             
                 |  |  |  | |  | |    /  \     |  _  \  |  |  /  |          
                  \  \/   | |  | |   /    \    | | | |  |  | /  /          
                 / \  \   | |__| |  /  /\  \   | |_| |  |  |/  /          
                |  |  |   |  __  | /  /__\  \  |    /   |      \           
                |  |  |   | |  | | |   __   |  |    \   |  |\   \          
                \     /   | |  | | |  |  |  |  | |\  \  |  | \   \       
                 \___/    |_|  |_| |__|  |__|  |_| \__\ |__|  \__/        
                                                                              
                      - O R C A' S   B I G   F R I E N D -                    
                                      &                                       
                       - I N T E G R A L  F E E D E R -                       
                                                                              
 v1 FN, 2020, v2 2021, v3 2022-2024                                           
------------------------------------------------------------------------------


----------------------
SHARK INTEGRAL PACKAGE
----------------------

Number of atoms                             ...     45
Number of basis functions                   ...    946
Number of shells                            ...    370
Maximum angular momentum                    ...      3
Integral batch strategy                     ... SHARK/LIBINT Hybrid
RI-J (if used) integral strategy            ... SPLIT-RIJ (Revised 2003 algorithm where possible)
Printlevel                                  ...      1
Contraction scheme used                     ... SEGMENTED contraction
Prescreening option                         ... SCHWARTZ
   Thresh                                   ... 2.500e-11
   Tcut                                     ... 2.500e-12
   Tpresel                                  ... 2.500e-12 
Coulomb Range Separation                    ... NOT USED
Exchange Range Separation                   ... Long Range
   Mu parameter                             ... 3.300e-01
   Scaling (regular/separated)              ... 1.900e-01 4.600e-01
Robust (split-)RI terms used:
  metric    (central integrals)             ... YES
  density   (r.h.s.  integrals)             ... YES
  potential (l.h.s.  integrals)             ... YES
Multipole approximations                    ... NOT USED
Finite Nucleus Model                        ... NOT USED
CABS basis                                  ... NOT available
Auxiliary Coulomb fitting basis             ... AVAILABLE
   # of basis functions in Aux-J            ...   1528
   # of shells in Aux-J                     ...    498
   Maximum angular momentum in Aux-J        ...      4
Auxiliary J/K fitting basis                 ... NOT available
Auxiliary Correlation fitting basis         ... NOT available
Auxiliary 'external' fitting basis          ... NOT available

Checking pre-screening integrals            ... done (  0.0 sec) Dimension = 370
   => SHARK Basis and OBASIS are compatible. Storing Pre-screening
Shell pair information
Shell pair cut-off parameter TPreSel        ...   2.5e-12
Total number of shell pairs                 ...     68635
Shell pairs after pre-screening             ...     48682
Total number of primitive shell pairs       ...    214192
Primitive shell pairs kept                  ...     98342
          la=0 lb=0:  12091 shell pairs
          la=1 lb=0:  14017 shell pairs
          la=1 lb=1:   4036 shell pairs
          la=2 lb=0:   7126 shell pairs
          la=2 lb=1:   4229 shell pairs
          la=2 lb=2:   1138 shell pairs
          la=3 lb=0:   3039 shell pairs
          la=3 lb=1:   1867 shell pairs
          la=3 lb=2:    933 shell pairs
          la=3 lb=3:    206 shell pairs

Checking whether 4 symmetric matrices of dimension 946 fit in memory
:Max Core in MB      =   3000.00
 MB in use           =     62.14
 MB left             =   2937.86
 MB needed           =     13.67
 Data fit in memory  = YES
Calculating RI/J V-Matrix + Cholesky decomp.... done (  0.2 sec)
Calculating Nuclear repulsion               ... done (  0.0 sec) ENN=   2586.255132687129 Eh

Diagonalization of the overlap matrix:
Smallest eigenvalue                        ... 1.011e-05
Time for diagonalization                   ...    0.255 sec
Threshold for overlap eigenvalues          ... 1.000e-07
Number of eigenvalues below threshold      ... 0
Time for construction of square roots      ...    0.133 sec
Total time needed                          ...    0.395 sec

-------------------
DFT GRID GENERATION
-------------------

General Integration Accuracy     IntAcc      ... 4.959
Radial Grid Type                 RadialGrid  ... OptM3 with GC (2021)
Angular Grid (max. ang.)         AngularGrid ... 6 (Lebedev-590)
Angular grid pruning method      GridPruning ... 4 (adaptive)
Weight generation scheme         WeightScheme... mBecke (2022)
Basis function cutoff            BFCut       ... 1.0000e-11
Integration weight cutoff        WCut        ... 1.0000e-14
Partially contracted basis set               ... off
Rotationally invariant grid construction     ... off
Angular grids for H and He will be reduced by one unit

Total number of grid points                  ...   533935
Total number of batches                      ...     8367
Average number of points per batch           ...       63
Average number of grid points per atom       ...    11865

--------------------
COSX GRID GENERATION
--------------------

GRIDX 1
-------
General Integration Accuracy     IntAcc      ... 4.020
Radial Grid Type                 RadialGrid  ... OptM3 with GC (2021)
Angular Grid (max. ang.)         AngularGrid ... 2 (Lebedev-110)
Angular grid pruning method      GridPruning ... 4 (adaptive)
Weight generation scheme         WeightScheme... mBecke (2022)
Basis function cutoff            BFCut       ... 1.0000e-11
Integration weight cutoff        WCut        ... 1.0000e-14
Partially contracted basis set               ... on
Rotationally invariant grid construction     ... off
Angular grids for H and He will be reduced by one unit

Total number of grid points                  ...    60163
Total number of batches                      ...      491
Average number of points per batch           ...      122
Average number of grid points per atom       ...     1337
UseSFitting                                  ... on

GRIDX 2
-------
General Integration Accuracy     IntAcc      ... 4.338
Radial Grid Type                 RadialGrid  ... OptM3 with GC (2021)
Angular Grid (max. ang.)         AngularGrid ... 3 (Lebedev-194)
Angular grid pruning method      GridPruning ... 4 (adaptive)
Weight generation scheme         WeightScheme... mBecke (2022)
Basis function cutoff            BFCut       ... 1.0000e-11
Integration weight cutoff        WCut        ... 1.0000e-14
Partially contracted basis set               ... on
Rotationally invariant grid construction     ... off
Angular grids for H and He will be reduced by one unit

Total number of grid points                  ...   131937
Total number of batches                      ...     1050
Average number of points per batch           ...      125
Average number of grid points per atom       ...     2932
UseSFitting                                  ... on

GRIDX 3
-------
General Integration Accuracy     IntAcc      ... 4.871
Radial Grid Type                 RadialGrid  ... OptM3 with GC (2021)
Angular Grid (max. ang.)         AngularGrid ... 4 (Lebedev-302)
Angular grid pruning method      GridPruning ... 4 (adaptive)
Weight generation scheme         WeightScheme... mBecke (2022)
Basis function cutoff            BFCut       ... 1.0000e-11
Integration weight cutoff        WCut        ... 1.0000e-14
Partially contracted basis set               ... on
Rotationally invariant grid construction     ... off
Angular grids for H and He will be reduced by one unit

Total number of grid points                  ...   244368
Total number of batches                      ...     1933
Average number of points per batch           ...      126
Average number of grid points per atom       ...     5430
UseSFitting                                  ... on
Grids setup in  17.4 sec
Initializing property integral containers    ... done (  0.0 sec)

SHARK setup successfully completed in  19.0 seconds

Maximum memory used throughout the entire STARTUP-calculation: 180.2 MB


           ************************************************************
           *        Program running with 4 parallel MPI-processes     *
           *              working on a common directory               *
           ************************************************************
-------------------------------------------------------------------------------
                                 ORCA GUESS
                   Start orbitals & Density for SCF / CASSCF
-------------------------------------------------------------------------------

------------
SCF SETTINGS
------------
Hamiltonian:
 Density Functional     Method          .... DFT(GTOs)
 Exchange Functional    Exchange        .... WB88
 Correlation Functional Correlation     .... LYP
 LDA part of GGA corr.  LDAOpt          .... VWN-5
 Gradients option       PostSCFGGA      .... off
 Hybrid DFT is turned on
   Fraction HF Exchange ScalHFX         ....  0.190000
   Scaling of DF-GGA-X  ScalDFX         ....  0.350000
   Scaling of DF-GGA-C  ScalDFC         ....  0.810000
   Scaling of DF-LDA-C  ScalLDAC        ....  1.000000
   Perturbative correction              ....  0.000000
 Long-range corrected/Screened/Range-Separated Hybrid DFT is turned on
   Amount of maximum screened exact exchange              ....  0.460000
   Range separation parameter mu (erf(mu*r12)/r12)        ....  0.330000
 RI-approximation to the Coulomb term is turned on
   Number of AuxJ basis functions       .... 1528
   RIJ-COSX (HFX calculated with COS-X)).... on


General Settings:
 Integral files         IntName         .... tddft
 Hartree-Fock type      HFTyp           .... RHF
 Total Charge           Charge          ....    0
 Multiplicity           Mult            ....    1
 Number of Electrons    NEL             ....  192
 Basis Dimension        Dim             ....  946
 Nuclear Repulsion      ENuc            ....   2586.2551326871 Eh

Convergence Acceleration:
 AO-DIIS                CNVDIIS         .... on
   Start iteration      DIISMaxIt       ....    12
   Startup error        DIISStart       ....  0.200000
   # of expansion vecs  DIISMaxEq       ....     5
   Bias factor          DIISBfac        ....   1.050
   Max. coefficient     DIISMaxC        ....  10.000
 MO-DIIS                CNVKDIIS        .... off
 Trust-Rad. Augm. Hess. CNVTRAH         .... auto
   Auto Start mean grad. ratio tolernc. ....  1.125000
   Auto Start start iteration           ....    50
   Auto Start num. interpolation iter.  ....    10
   Max. Number of Micro iterations      ....    24
   Max. Number of Macro iterations      .... Maxiter - #DIIS iter
   Number of Davidson start vectors     ....     2
   Converg. threshold    (grad. norm)   ....   1.000e-05
   Grad. Scal. Fac. for Micro threshold ....   0.100
   Minimum threshold for Micro iter.    ....   1.000e-02
   NR start threshold (gradient norm)   ....   1.000e-04
   Initial trust radius                 ....   0.400
   Minimum AH scaling param. (alpha)    ....   1.000
   Maximum AH scaling param. (alpha)    .... 1000.000
   Quad. conv. algorithm                .... NR
   White noise on init. David. guess    .... on
   Maximum white noise                  ....   0.010
   Pseudo random numbers                .... off
   Inactive MOs                         .... canonical
   Orbital update algorithm             .... Taylor
   Preconditioner                       .... Diag
   Full preconditioner red. dimension   ....   250
 SOSCF                 CNVSOSCF           .... on
   Start iteration     SOSCFMaxIt         ....   150
   Startup grad/error  SOSCFStart         ....  0.003300
   Hessian update      SOSCFHessUp        .... L-BFGS
   Autom. constraints  SOSCFAutoConstrain .... off
 Level Shifting         CNVShift        .... on
   Level shift para.    LevelShift      ....    0.2500
   Turn off err/grad.   ShiftErr        ....    0.0010
 Zerner damping         CNVZerner       .... off
 Static damping         CNVDamp         .... on
   Fraction old density DampFac         ....    0.7000
   Max. Damping (<1)    DampMax         ....    0.9800
   Min. Damping (>=0)   DampMin         ....    0.0000
   Turn off err/grad.   DampErr         ....    0.1000

SCF Procedure:
 Maximum # iterations   MaxIter         ....   125
 SCF integral mode      SCFMode         .... Direct
   Integral package                     .... SHARK and LIBINT hybrid scheme
 Reset frequency        DirectResetFreq ....    20
 Integral Threshold     Thresh          ....  2.500e-11 Eh
 Primitive CutOff       TCut            ....  2.500e-12 Eh

Convergence Tolerance:
 Convergence Check Mode ConvCheckMode   .... Total+1el-Energy
 Convergence forced     ConvForced      .... 1
 Energy Change          TolE            ....  1.000e-08 Eh
 1-El. energy change                    ....  1.000e-05 Eh
 Orbital Gradient       TolG            ....  1.000e-05
 Orbital Rotation angle TolX            ....  1.000e-05
 DIIS Error             TolErr          ....  5.000e-07

------------------------------
INITIAL GUESS: MODEL POTENTIAL
------------------------------
Loading Hartree-Fock densities                     ... done
Calculating cut-offs                               ... done
Initializing the effective Hamiltonian             ... done
Setting up the integral package (SHARK)            ... done
Starting the Coulomb interaction                   ... done (   2.4 sec)
Making the grid                                    ... done (   0.8 sec)
Mapping shells                                     ... done
Starting the XC term evaluation                    ... done (   1.3 sec)
  promolecular density results
     # of electrons  =    191.993554049
     EX              =   -163.178308982
     EC              =     -6.513574054
     EX+EC           =   -169.691883037
Transforming the Hamiltonian                       ... done (   0.2 sec)
Diagonalizing the Hamiltonian                      ... done (   0.3 sec)
Back transforming the eigenvectors                 ... done (   0.1 sec)
Now organizing SCF variables                       ... done
                      ------------------
                      INITIAL GUESS DONE (   5.1 sec)
                      ------------------
             **** ENERGY FILE WAS UPDATED (tddft.en.tmp) ****
Finished Guess after   5.6 sec
Maximum memory used throughout the entire GUESS-calculation: 104.2 MB


           ************************************************************
           *        Program running with 4 parallel MPI-processes     *
           *              working on a common directory               *
           ************************************************************

-------------------------------------------------------------------------------------------
                                      ORCA LEAN-SCF
                              memory conserving SCF solver
-------------------------------------------------------------------------------------------

--------------------
CPCM SOLVATION MODEL
--------------------
CPCM parameters:
  Epsilon                                         ...       8.9990
  Refrac                                          ...       1.4242
  Rsolv                                           ...       1.3000
  Surface type                                    ... GAUSSIAN VDW
  Discretization scheme                           ... Constant charge density
    Threshold for H atoms                         ...       5.0000 (charges/Ang^2)
    Threshold for non-H atoms                     ...       5.0000 (charges/Ang^2)
  Epsilon function type                           ...         CPCM
Solvent:                                          ... DICHLOROMETHANE
Radii:
  Scheme                                          ... Element-dependent radii
  Radius for N  used is    3.5149 Bohr (=   1.8600 Ang.)
  Radius for C  used is    3.8550 Bohr (=   2.0400 Ang.)
  Radius for H  used is    2.4944 Bohr (=   1.3200 Ang.)
  Radius for Mg used is    3.9231 Bohr (=   2.0760 Ang.)
  Radius for O  used is    3.4469 Bohr (=   1.8240 Ang.)
Calculating surface                               ...        done! (  0.0s)
Cavity surface points                             ...         3952
Cavity Volume                                     ...    2800.1199
Cavity Surface-area                               ...    1332.7310
Calculating surface distance matrix               ...        done! (  0.4s)
Performing Cholesky decomposition & store         ...        done! (  0.7s)
Overall time for CPCM initialization              ...                 1.1s

----------------------------------------D-I-I-S--------------------------------------------
Iteration    Energy (Eh)           Delta-E    RMSDP     MaxDP     DIISErr   Damp  Time(sec)
-------------------------------------------------------------------------------------------
               ***  Starting incremental Fock matrix formation  ***
    1    -1304.7961450112370585     0.00e+00  2.13e-03  5.17e-02  2.15e-01  0.700 184.9
    2    -1305.0356249170763476    -2.39e-01  1.65e-03  4.08e-02  1.11e-01  0.700  82.7
                               ***Turning on AO-DIIS***
    3    -1305.1530944690844080    -1.17e-01  9.86e-04  3.50e-02  4.57e-02  0.700  80.6
    4    -1305.2228578602685047    -6.98e-02  2.12e-03  8.30e-02  3.01e-02  0.000 101.5
    5    -1305.3722690670679185    -1.49e-01  1.96e-04  4.40e-03  5.54e-03  0.000  81.1
                              *** Initializing SOSCF ***
---------------------------------------S-O-S-C-F--------------------------------------
Iteration    Energy (Eh)           Delta-E    RMSDP     MaxDP     MaxGrad    Time(sec)
--------------------------------------------------------------------------------------
    6    -1305.3727716412095106    -5.03e-04  8.59e-05  2.21e-03  2.34e-03    67.9
               *** Restarting incremental Fock matrix formation ***
    7    -1305.3728593823002484    -8.77e-05  7.56e-05  1.85e-03  1.39e-03   221.4
    8    -1305.3729269095597374    -6.75e-05  9.16e-05  1.95e-03  6.40e-04   159.3
    9    -1305.3729521437621770    -2.52e-05  4.04e-05  1.06e-03  4.72e-04   164.1
   10    -1305.3729636500529523    -1.15e-05  1.07e-05  2.91e-04  1.44e-04   148.1
   11    -1305.3729645803782660    -9.30e-07  4.73e-06  9.70e-05  4.11e-05   124.3
   12    -1305.3729649022307058    -3.22e-07  5.52e-06  1.62e-04  2.78e-05   134.7
   13    -1305.3729649811039053    -7.89e-08  3.43e-06  1.18e-04  7.38e-06   133.1
   14    -1305.3729649799020081     1.20e-09  3.89e-06  9.10e-05  6.54e-06   119.9
                 **** Energy Check signals convergence ****

               *****************************************************
               *                     SUCCESS                       *
               *           SCF CONVERGED AFTER  14 CYCLES          *
               *****************************************************

Recomputing exchange energy using gridx3       ... done (  422.993 sec)
Old exchange energy                            :    -46.625077553 Eh
New exchange energy                            :    -46.625084630 Eh
Exchange energy change after final integration :     -0.000007077 Eh
Total energy after final integration           :  -1305.372972063 Eh
             **** ENERGY FILE WAS UPDATED (tddft.en.tmp) ****

----------------
TOTAL SCF ENERGY
----------------

Total Energy       :      -1305.37297206346875 Eh          -35521.00442 eV

Components:
Nuclear Repulsion  :       2586.25513268712893 Eh           70375.57999 eV
Electronic Energy  :      -3891.60962417242217 Eh         -105896.08153 eV
One Electron Energy:      -6927.38838353243045 Eh         -188503.82127 eV
Two Electron Energy:       3035.77875936000828 Eh           82607.73974 eV
CPCM Dielectric    :         -0.01847350153437 Eh              -0.50269 eV

Virial components:
Potential Energy   :      -2605.03426086138006 Eh          -70886.58604 eV
Kinetic Energy     :       1299.66128879791131 Eh           35365.58162 eV
Virial Ratio       :          2.00439474755060

DFT components:
N(Alpha)           :       95.999988202349 electrons
N(Beta)            :       95.999988202349 electrons
N(Total)           :      191.999976404698 electrons
E(XC)              :     -126.736436991303 Eh       

CPCM Solvation Model Properties:
Surface-charge          :         -0.04104850813805
Corrected charge        :         -0.00000000000000
Outlying charge corr.   :          0.00007793402731 Eh               0.00212 eV
Free-energy (cav+disp)  :  This term is not implemented in the current solvation scheme

---------------
SCF CONVERGENCE
---------------

  Last Energy change         ...   -1.2019e-09  Tolerance :   1.0000e-08
  Last MAX-Density change    ...    9.1042e-05  Tolerance :   1.0000e-07
  Last RMS-Density change    ...    3.8920e-06  Tolerance :   5.0000e-09
  Last DIIS Error            ...    2.3445e-03  Tolerance :   5.0000e-07
  Last Orbital Gradient      ...    6.5392e-06  Tolerance :   1.0000e-05
  Last Orbital Rotation      ...    4.5101e-05  Tolerance :   1.0000e-05


----------------
ORBITAL ENERGIES
----------------

  NO   OCC          E(Eh)            E(eV) 
   0   2.0000     -46.816722     -1273.9478 
   1   2.0000     -19.230634      -523.2921 
   2   2.0000     -14.386702      -391.4821 
   3   2.0000     -14.368334      -390.9822 
   4   2.0000     -14.367009      -390.9462 
   5   2.0000     -14.366972      -390.9452 
   6   2.0000     -10.290276      -280.0127 
   7   2.0000     -10.288970      -279.9771 
   8   2.0000     -10.288882      -279.9747 
   9   2.0000     -10.281143      -279.7641 
  10   2.0000     -10.281007      -279.7604 
  11   2.0000     -10.271669      -279.5063 
  12   2.0000     -10.271450      -279.5004 
  13   2.0000     -10.269180      -279.4386 
  14   2.0000     -10.269021      -279.4343 
  15   2.0000     -10.255538      -279.0674 
  16   2.0000     -10.255137      -279.0565 
  17   2.0000     -10.245593      -278.7968 
  18   2.0000     -10.245390      -278.7912 
  19   2.0000     -10.245385      -278.7911 
  20   2.0000     -10.245373      -278.7908 
  21   2.0000     -10.239523      -278.6316 
  22   2.0000     -10.239516      -278.6314 
  23   2.0000     -10.237258      -278.5700 
  24   2.0000     -10.236550      -278.5507 
  25   2.0000     -10.233513      -278.4681 
  26   2.0000     -10.233482      -278.4672 
  27   2.0000      -3.104830       -84.4867 
  28   2.0000      -1.850775       -50.3622 
  29   2.0000      -1.847615       -50.2762 
  30   2.0000      -1.847370       -50.2695 
  31   2.0000      -1.127923       -30.6923 
  32   2.0000      -1.042919       -28.3793 
  33   2.0000      -1.033915       -28.1343 
  34   2.0000      -1.033386       -28.1199 
  35   2.0000      -1.023662       -27.8553 
  36   2.0000      -0.893666       -24.3179 
  37   2.0000      -0.867843       -23.6152 
  38   2.0000      -0.864864       -23.5342 
  39   2.0000      -0.850158       -23.1340 
  40   2.0000      -0.843090       -22.9417 
  41   2.0000      -0.841304       -22.8930 
  42   2.0000      -0.835273       -22.7289 
  43   2.0000      -0.812654       -22.1134 
  44   2.0000      -0.793204       -21.5842 
  45   2.0000      -0.775864       -21.1123 
  46   2.0000      -0.731744       -19.9118 
  47   2.0000      -0.726550       -19.7704 
  48   2.0000      -0.683266       -18.5926 
  49   2.0000      -0.651465       -17.7273 
  50   2.0000      -0.643761       -17.5176 
  51   2.0000      -0.640170       -17.4199 
  52   2.0000      -0.637971       -17.3601 
  53   2.0000      -0.620767       -16.8919 
  54   2.0000      -0.606217       -16.4960 
  55   2.0000      -0.600071       -16.3288 
  56   2.0000      -0.589530       -16.0419 
  57   2.0000      -0.582491       -15.8504 
  58   2.0000      -0.569804       -15.5052 
  59   2.0000      -0.566303       -15.4099 
  60   2.0000      -0.557316       -15.1653 
  61   2.0000      -0.544885       -14.8271 
  62   2.0000      -0.534144       -14.5348 
  63   2.0000      -0.519732       -14.1426 
  64   2.0000      -0.505851       -13.7649 
  65   2.0000      -0.501296       -13.6410 
  66   2.0000      -0.491431       -13.3725 
  67   2.0000      -0.485751       -13.2180 
  68   2.0000      -0.484709       -13.1896 
  69   2.0000      -0.480975       -13.0880 
  70   2.0000      -0.470860       -12.8128 
  71   2.0000      -0.470561       -12.8046 
  72   2.0000      -0.467865       -12.7313 
  73   2.0000      -0.449815       -12.2401 
  74   2.0000      -0.447282       -12.1712 
  75   2.0000      -0.442621       -12.0443 
  76   2.0000      -0.439964       -11.9720 
  77   2.0000      -0.437255       -11.8983 
  78   2.0000      -0.431934       -11.7535 
  79   2.0000      -0.428249       -11.6532 
  80   2.0000      -0.428002       -11.6465 
  81   2.0000      -0.421154       -11.4602 
  82   2.0000      -0.418468       -11.3871 
  83   2.0000      -0.415858       -11.3161 
  84   2.0000      -0.383544       -10.4368 
  85   2.0000      -0.378473       -10.2988 
  86   2.0000      -0.372222       -10.1287 
  87   2.0000      -0.366684        -9.9780 
  88   2.0000      -0.340671        -9.2701 
  89   2.0000      -0.334676        -9.1070 
  90   2.0000      -0.325666        -8.8618 
  91   2.0000      -0.313238        -8.5236 
  92   2.0000      -0.303756        -8.2656 
  93   2.0000      -0.301216        -8.1965 
  94   2.0000      -0.235318        -6.4033 
  95   2.0000      -0.219740        -5.9794 
  96   0.0000      -0.059027        -1.6062 
  97   0.0000      -0.033979        -0.9246 
  98   0.0000       0.041557         1.1308 
  99   0.0000       0.046068         1.2536 
 100   0.0000       0.074202         2.0191 
 101   0.0000       0.080001         2.1769 
 102   0.0000       0.084237         2.2922 
 103   0.0000       0.092994         2.5305 
 104   0.0000       0.100217         2.7271 
 105   0.0000       0.103900         2.8273 
 106   0.0000       0.107288         2.9195 
*Only the first 10 virtual orbitals were printed.

                    ********************************
                    * MULLIKEN POPULATION ANALYSIS *
                    ********************************

-----------------------
MULLIKEN ATOMIC CHARGES
-----------------------
   0 N :   -0.317600
   1 N :   -0.371100
   2 N :   -0.364683
   3 N :   -0.339610
   4 C :   -0.194742
   5 C :   -0.194495
   6 C :    0.169531
   7 C :    0.164971
   8 C :   -0.354951
   9 C :   -0.354238
  10 C :    0.253670
  11 C :    0.248252
  12 C :    0.205998
  13 C :    0.198559
  14 C :   -0.243245
  15 C :   -0.242331
  16 C :   -0.232551
  17 C :   -0.229431
  18 C :   -0.270122
  19 C :   -0.276667
  20 C :    0.206170
  21 C :    0.201742
  22 C :   -0.248605
  23 C :   -0.243586
  24 H :    0.129613
  25 H :    0.137883
  26 H :    0.129027
  27 H :    0.138005
  28 H :    0.146444
  29 H :    0.146285
  30 H :    0.155723
  31 H :    0.155764
  32 H :    0.158848
  33 H :    0.158639
  34 H :    0.158592
  35 H :    0.158138
  36 H :    0.153168
  37 H :    0.152962
  38 Mg:    0.638389
  39 O :   -0.484524
  40 C :   -0.231758
  41 H :    0.155243
  42 H :    0.146722
  43 H :    0.154199
  44 H :    0.371704
Sum of atomic charges:   -0.0000000

--------------------------------
MULLIKEN REDUCED ORBITAL CHARGES
--------------------------------
  0 N s       :     3.680016  s :     3.680016
      pz      :     1.293092  p :     3.578955
      px      :     1.175874
      py      :     1.109989
      dz2     :     0.003841  d :     0.055180
      dxz     :     0.009004
      dyz     :     0.010536
      dx2y2   :     0.016313
      dxy     :     0.015488
      f0      :     0.000639  f :     0.003448
      f+1     :     0.000285
      f-1     :     0.000317
      f+2     :     0.000457
      f-2     :     0.000121
      f+3     :     0.000945
      f-3     :     0.000685

  1 N s       :     3.683163  s :     3.683163
      pz      :     1.369186  p :     3.630228
      px      :     1.105985
      py      :     1.155057
      dz2     :     0.004016  d :     0.054212
      dxz     :     0.010174
      dyz     :     0.009074
      dx2y2   :     0.016060
      dxy     :     0.014889
      f0      :     0.000635  f :     0.003497
      f+1     :     0.000354
      f-1     :     0.000325
      f+2     :     0.000567
      f-2     :     0.000100
      f+3     :     0.000675
      f-3     :     0.000842

  2 N s       :     3.682999  s :     3.682999
      pz      :     1.371764  p :     3.623908
      px      :     1.095834
      py      :     1.156310
      dz2     :     0.004004  d :     0.054266
      dxz     :     0.010778
      dyz     :     0.008454
      dx2y2   :     0.015571
      dxy     :     0.015459
      f0      :     0.000650  f :     0.003510
      f+1     :     0.000335
      f-1     :     0.000340
      f+2     :     0.000554
      f-2     :     0.000109
      f+3     :     0.000627
      f-3     :     0.000894

  3 N s       :     3.681090  s :     3.681090
      pz      :     1.332581  p :     3.598694
      px      :     1.168368
      py      :     1.097746
      dz2     :     0.004027  d :     0.056270
      dxz     :     0.009531
      dyz     :     0.011560
      dx2y2   :     0.015967
      dxy     :     0.015184
      f0      :     0.000643  f :     0.003556
      f+1     :     0.000323
      f-1     :     0.000335
      f+2     :     0.000631
      f-2     :     0.000104
      f+3     :     0.000868
      f-3     :     0.000652

  4 C s       :     3.214733  s :     3.214733
      pz      :     1.060345  p :     2.900699
      px      :     0.872379
      py      :     0.967974
      dz2     :     0.003900  d :     0.073475
      dxz     :     0.016115
      dyz     :     0.014757
      dx2y2   :     0.022658
      dxy     :     0.016046
      f0      :     0.000691  f :     0.005835
      f+1     :     0.000175
      f-1     :     0.001161
      f+2     :     0.000375
      f-2     :     0.000721
      f+3     :     0.001305
      f-3     :     0.001407

  5 C s       :     3.216202  s :     3.216202
      pz      :     1.058779  p :     2.898978
      px      :     0.961768
      py      :     0.878431
      dz2     :     0.003620  d :     0.073479
      dxz     :     0.014799
      dyz     :     0.016396
      dx2y2   :     0.022594
      dxy     :     0.016071
      f0      :     0.000625  f :     0.005836
      f+1     :     0.001260
      f-1     :     0.000145
      f+2     :     0.000292
      f-2     :     0.000804
      f+3     :     0.001153
      f-3     :     0.001556

  6 C s       :     3.185844  s :     3.185844
      pz      :     0.853804  p :     2.470451
      px      :     0.894633
      py      :     0.722014
      dz2     :     0.003061  d :     0.159953
      dxz     :     0.028182
      dyz     :     0.039496
      dx2y2   :     0.041865
      dxy     :     0.047350
      f0      :     0.001942  f :     0.014221
      f+1     :     0.000664
      f-1     :     0.001101
      f+2     :     0.001749
      f-2     :     0.001194
      f+3     :     0.005094
      f-3     :     0.002477

  7 C s       :     3.184850  s :     3.184850
      pz      :     0.854765  p :     2.475787
      px      :     0.748805
      py      :     0.872217
      dz2     :     0.002822  d :     0.160165
      dxz     :     0.034457
      dyz     :     0.033456
      dx2y2   :     0.044666
      dxy     :     0.044765
      f0      :     0.001960  f :     0.014227
      f+1     :     0.001071
      f-1     :     0.000661
      f+2     :     0.001507
      f-2     :     0.001433
      f+3     :     0.003704
      f-3     :     0.003891

  8 C s       :     3.304286  s :     3.304286
      pz      :     1.121428  p :     2.982237
      px      :     0.858705
      py      :     1.002104
      dz2     :     0.003205  d :     0.061381
      dxz     :     0.022474
      dyz     :     0.003428
      dx2y2   :     0.023855
      dxy     :     0.008419
      f0      :     0.001454  f :     0.007047
      f+1     :     0.000545
      f-1     :     0.000604
      f+2     :     0.000413
      f-2     :     0.000743
      f+3     :     0.001934
      f-3     :     0.001353

  9 C s       :     3.305177  s :     3.305177
      pz      :     1.121610  p :     2.980871
      px      :     0.993455
      py      :     0.865806
      dz2     :     0.003225  d :     0.061143
      dxz     :     0.003385
      dyz     :     0.022494
      dx2y2   :     0.023739
      dxy     :     0.008301
      f0      :     0.001456  f :     0.007047
      f+1     :     0.000615
      f-1     :     0.000541
      f+2     :     0.000422
      f-2     :     0.000722
      f+3     :     0.001446
      f-3     :     0.001845

 10 C s       :     3.160650  s :     3.160650
      pz      :     0.867239  p :     2.411121
      px      :     0.812776
      py      :     0.731106
      dz2     :     0.003928  d :     0.159909
      dxz     :     0.035130
      dyz     :     0.036255
      dx2y2   :     0.041579
      dxy     :     0.043017
      f0      :     0.002091  f :     0.014650
      f+1     :     0.000747
      f-1     :     0.001078
      f+2     :     0.001903
      f-2     :     0.001189
      f+3     :     0.004203
      f-3     :     0.003438

 11 C s       :     3.165896  s :     3.165896
      pz      :     0.866332  p :     2.410402
      px      :     0.721722
      py      :     0.822348
      dz2     :     0.003674  d :     0.160765
      dxz     :     0.039754
      dyz     :     0.032200
      dx2y2   :     0.038682
      dxy     :     0.046455
      f0      :     0.002126  f :     0.014685
      f+1     :     0.001092
      f-1     :     0.000697
      f+2     :     0.002358
      f-2     :     0.000734
      f+3     :     0.002505
      f-3     :     0.005174

 12 C s       :     3.148329  s :     3.148329
      pz      :     0.948643  p :     2.481045
      px      :     0.709217
      py      :     0.823185
      dz2     :     0.004471  d :     0.150372
      dxz     :     0.037185
      dyz     :     0.027535
      dx2y2   :     0.038146
      dxy     :     0.043036
      f0      :     0.002086  f :     0.014257
      f+1     :     0.001103
      f-1     :     0.000711
      f+2     :     0.002243
      f-2     :     0.000585
      f+3     :     0.002458
      f-3     :     0.005071

 13 C s       :     3.148992  s :     3.148992
      pz      :     0.951148  p :     2.486998
      px      :     0.810740
      py      :     0.725109
      dz2     :     0.004462  d :     0.151131
      dxz     :     0.029697
      dyz     :     0.035599
      dx2y2   :     0.040149
      dxy     :     0.041226
      f0      :     0.002122  f :     0.014320
      f+1     :     0.000737
      f-1     :     0.001066
      f+2     :     0.001728
      f-2     :     0.001104
      f+3     :     0.004215
      f-3     :     0.003348

 14 C s       :     3.273340  s :     3.273340
      pz      :     1.027477  p :     2.888689
      px      :     0.895070
      py      :     0.966142
      dz2     :     0.004842  d :     0.073635
      dxz     :     0.019657
      dyz     :     0.007407
      dx2y2   :     0.026645
      dxy     :     0.015083
      f0      :     0.001450  f :     0.007582
      f+1     :     0.000406
      f-1     :     0.000758
      f+2     :     0.000082
      f-2     :     0.001209
      f+3     :     0.002209
      f-3     :     0.001467

 15 C s       :     3.272494  s :     3.272494
      pz      :     1.027235  p :     2.888739
      px      :     0.971191
      py      :     0.890313
      dz2     :     0.004841  d :     0.073519
      dxz     :     0.008912
      dyz     :     0.018048
      dx2y2   :     0.027079
      dxy     :     0.014639
      f0      :     0.001459  f :     0.007579
      f+1     :     0.000717
      f-1     :     0.000448
      f+2     :     0.000376
      f-2     :     0.000888
      f+3     :     0.002036
      f-3     :     0.001655

 16 C s       :     3.285056  s :     3.285056
      pz      :     0.980445  p :     2.862148
      px      :     0.981412
      py      :     0.900291
      dz2     :     0.004816  d :     0.077673
      dxz     :     0.009645
      dyz     :     0.022328
      dx2y2   :     0.026324
      dxy     :     0.014560
      f0      :     0.001429  f :     0.007674
      f+1     :     0.000694
      f-1     :     0.000444
      f+2     :     0.000510
      f-2     :     0.000924
      f+3     :     0.002045
      f-3     :     0.001628

 17 C s       :     3.284403  s :     3.284403
      pz      :     0.979144  p :     2.859934
      px      :     0.904443
      py      :     0.976347
      dz2     :     0.004687  d :     0.077422
      dxz     :     0.024580
      dyz     :     0.007297
      dx2y2   :     0.026022
      dxy     :     0.014835
      f0      :     0.001440  f :     0.007672
      f+1     :     0.000383
      f-1     :     0.000745
      f+2     :     0.000096
      f-2     :     0.001325
      f+3     :     0.002205
      f-3     :     0.001478

 18 C s       :     3.304417  s :     3.304417
      pz      :     0.979369  p :     2.883459
      px      :     1.015116
      py      :     0.888974
      dz2     :     0.003279  d :     0.075264
      dxz     :     0.003254
      dyz     :     0.032180
      dx2y2   :     0.026685
      dxy     :     0.009867
      f0      :     0.001372  f :     0.006982
      f+1     :     0.000555
      f-1     :     0.000486
      f+2     :     0.000427
      f-2     :     0.000817
      f+3     :     0.001397
      f-3     :     0.001928

 19 C s       :     3.312122  s :     3.312122
      pz      :     0.977280  p :     2.882746
      px      :     0.890179
      py      :     1.015287
      dz2     :     0.003273  d :     0.074812
      dxz     :     0.031825
      dyz     :     0.003296
      dx2y2   :     0.026150
      dxy     :     0.010269
      f0      :     0.001376  f :     0.006987
      f+1     :     0.000481
      f-1     :     0.000563
      f+2     :     0.000433
      f-2     :     0.000805
      f+3     :     0.001927
      f-3     :     0.001402

 20 C s       :     3.152090  s :     3.152090
      pz      :     0.948963  p :     2.476829
      px      :     0.729566
      py      :     0.798301
      dz2     :     0.004183  d :     0.150465
      dxz     :     0.034852
      dyz     :     0.028824
      dx2y2   :     0.040954
      dxy     :     0.041652
      f0      :     0.002121  f :     0.014447
      f+1     :     0.001064
      f-1     :     0.000768
      f+2     :     0.001713
      f-2     :     0.001149
      f+3     :     0.003422
      f-3     :     0.004210

 21 C s       :     3.153360  s :     3.153360
      pz      :     0.951422  p :     2.479909
      px      :     0.816716
      py      :     0.711771
      dz2     :     0.004335  d :     0.150518
      dxz     :     0.027868
      dyz     :     0.036007
      dx2y2   :     0.037270
      dxy     :     0.045038
      f0      :     0.002136  f :     0.014470
      f+1     :     0.000724
      f-1     :     0.001106
      f+2     :     0.002255
      f-2     :     0.000608
      f+3     :     0.005157
      f-3     :     0.002484

 22 C s       :     3.276443  s :     3.276443
      pz      :     1.020635  p :     2.888584
      px      :     0.968065
      py      :     0.899884
      dz2     :     0.004793  d :     0.075859
      dxz     :     0.007063
      dyz     :     0.023271
      dx2y2   :     0.026078
      dxy     :     0.014655
      f0      :     0.001458  f :     0.007718
      f+1     :     0.000767
      f-1     :     0.000398
      f+2     :     0.000074
      f-2     :     0.001361
      f+3     :     0.001459
      f-3     :     0.002201

 23 C s       :     3.275864  s :     3.275864
      pz      :     1.020152  p :     2.884316
      px      :     0.894310
      py      :     0.969854
      dz2     :     0.004800  d :     0.075689
      dxz     :     0.021228
      dyz     :     0.008937
      dx2y2   :     0.026113
      dxy     :     0.014611
      f0      :     0.001456  f :     0.007716
      f+1     :     0.000441
      f-1     :     0.000725
      f+2     :     0.000454
      f-2     :     0.000979
      f+3     :     0.001658
      f-3     :     0.002003

 24 H s       :     0.848940  s :     0.848940
      pz      :     0.011093  p :     0.021448
      px      :     0.004162
      py      :     0.006192

 25 H s       :     0.840805  s :     0.840805
      pz      :     0.008161  p :     0.021312
      px      :     0.004150
      py      :     0.009001

 26 H s       :     0.849528  s :     0.849528
      pz      :     0.010799  p :     0.021445
      px      :     0.006651
      py      :     0.003995

 27 H s       :     0.840679  s :     0.840679
      pz      :     0.008458  p :     0.021316
      px      :     0.008816
      py      :     0.004042

 28 H s       :     0.831129  s :     0.831129
      pz      :     0.005690  p :     0.022427
      px      :     0.003217
      py      :     0.013520

 29 H s       :     0.831287  s :     0.831287
      pz      :     0.005664  p :     0.022429
      px      :     0.013498
      py      :     0.003267

 30 H s       :     0.822302  s :     0.822302
      pz      :     0.004828  p :     0.021976
      px      :     0.003269
      py      :     0.013879

 31 H s       :     0.822262  s :     0.822262
      pz      :     0.004789  p :     0.021974
      px      :     0.013317
      py      :     0.003869

 32 H s       :     0.819318  s :     0.819318
      pz      :     0.004527  p :     0.021834
      px      :     0.013358
      py      :     0.003949

 33 H s       :     0.819520  s :     0.819520
      pz      :     0.004502  p :     0.021840
      px      :     0.003323
      py      :     0.014016

 34 H s       :     0.819403  s :     0.819403
      pz      :     0.004775  p :     0.022005
      px      :     0.013906
      py      :     0.003324

 35 H s       :     0.819846  s :     0.819846
      pz      :     0.004769  p :     0.022016
      px      :     0.003306
      py      :     0.013941

 36 H s       :     0.824898  s :     0.824898
      pz      :     0.004789  p :     0.021933
      px      :     0.013836
      py      :     0.003309

 37 H s       :     0.825100  s :     0.825100
      pz      :     0.004783  p :     0.021938
      px      :     0.003918
      py      :     0.013237

 38 Mgs       :     4.568540  s :     4.568540
      pz      :     2.139181  p :     6.509641
      px      :     2.193408
      py      :     2.177052
      dz2     :     0.045916  d :     0.283430
      dxz     :     0.034620
      dyz     :     0.020530
      dx2y2   :     0.023132
      dxy     :     0.159232

 39 O s       :     3.760844  s :     3.760844
      pz      :     1.678844  p :     4.696468
      px      :     1.636250
      py      :     1.381374
      dz2     :     0.004681  d :     0.025726
      dxz     :     0.002834
      dyz     :     0.005561
      dx2y2   :     0.003747
      dxy     :     0.008903
      f0      :     0.000168  f :     0.001487
      f+1     :     0.000069
      f-1     :     0.000236
      f+2     :     0.000222
      f-2     :     0.000216
      f+3     :     0.000213
      f-3     :     0.000363

 40 C s       :     3.273882  s :     3.273882
      pz      :     0.998776  p :     2.863675
      px      :     1.094864
      py      :     0.770035
      dz2     :     0.026881  d :     0.086304
      dxz     :     0.005238
      dyz     :     0.014209
      dx2y2   :     0.011317
      dxy     :     0.028659
      f0      :     0.001120  f :     0.007897
      f+1     :     0.000044
      f-1     :     0.002214
      f+2     :     0.000882
      f-2     :     0.001189
      f+3     :     0.001072
      f-3     :     0.001376

 41 H s       :     0.825010  s :     0.825010
      pz      :     0.012622  p :     0.019747
      px      :     0.004189
      py      :     0.002936

 42 H s       :     0.833440  s :     0.833440
      pz      :     0.003876  p :     0.019839
      px      :     0.010709
      py      :     0.005254

 43 H s       :     0.825267  s :     0.825267
      pz      :     0.004320  p :     0.020534
      px      :     0.009394
      py      :     0.006820

 44 H s       :     0.581877  s :     0.581877
      pz      :     0.012933  p :     0.046419
      px      :     0.017658
      py      :     0.015828



                     *******************************
                     * LOEWDIN POPULATION ANALYSIS *
                     *******************************

----------------------
LOEWDIN ATOMIC CHARGES
----------------------
   0 N :    0.196914
   1 N :    0.169812
   2 N :    0.174318
   3 N :    0.186293
   4 C :   -0.190515
   5 C :   -0.190356
   6 C :   -0.186150
   7 C :   -0.185699
   8 C :   -0.145490
   9 C :   -0.144678
  10 C :   -0.199723
  11 C :   -0.198566
  12 C :   -0.218279
  13 C :   -0.219158
  14 C :   -0.130573
  15 C :   -0.129573
  16 C :   -0.114214
  17 C :   -0.113486
  18 C :   -0.077752
  19 C :   -0.078077
  20 C :   -0.222353
  21 C :   -0.223594
  22 C :   -0.136366
  23 C :   -0.136712
  24 H :    0.150591
  25 H :    0.147835
  26 H :    0.150555
  27 H :    0.147891
  28 H :    0.161569
  29 H :    0.161709
  30 H :    0.145076
  31 H :    0.145179
  32 H :    0.147347
  33 H :    0.147418
  34 H :    0.167053
  35 H :    0.166999
  36 H :    0.144109
  37 H :    0.144131
  38 Mg:    0.076231
  39 O :    0.046300
  40 C :   -0.310977
  41 H :    0.112708
  42 H :    0.119398
  43 H :    0.129573
  44 H :    0.213281

-------------------------------
LOEWDIN REDUCED ORBITAL CHARGES
-------------------------------
  0 N s       :     2.971802  s :     2.971802
      pz      :     1.137868  p :     3.607130
      px      :     1.260951
      py      :     1.208312
      dz2     :     0.016339  d :     0.205631
      dxz     :     0.022506
      dyz     :     0.029565
      dx2y2   :     0.073700
      dxy     :     0.063521
      f0      :     0.001155  f :     0.018523
      f+1     :     0.001211
      f-1     :     0.001454
      f+2     :     0.002852
      f-2     :     0.000486
      f+3     :     0.006724
      f-3     :     0.004641

  1 N s       :     2.972248  s :     2.972248
      pz      :     1.203267  p :     3.640800
      px      :     1.186356
      py      :     1.251177
      dz2     :     0.016040  d :     0.198629
      dxz     :     0.030813
      dyz     :     0.022943
      dx2y2   :     0.069530
      dxy     :     0.059303
      f0      :     0.001095  f :     0.018511
      f+1     :     0.001380
      f-1     :     0.001252
      f+2     :     0.003449
      f-2     :     0.000341
      f+3     :     0.004754
      f-3     :     0.006241

  2 N s       :     2.969432  s :     2.969432
      pz      :     1.201841  p :     3.638683
      px      :     1.199910
      py      :     1.236933
      dz2     :     0.016104  d :     0.198998
      dxz     :     0.029652
      dyz     :     0.023825
      dx2y2   :     0.068683
      dxy     :     0.060734
      f0      :     0.001107  f :     0.018569
      f+1     :     0.001459
      f-1     :     0.001181
      f+2     :     0.003340
      f-2     :     0.000413
      f+3     :     0.004542
      f-3     :     0.006527

  3 N s       :     2.972406  s :     2.972406
      pz      :     1.174606  p :     3.619575
      px      :     1.247509
      py      :     1.197460
      dz2     :     0.015938  d :     0.202881
      dxz     :     0.025133
[...]
  0-1A  ->  1-1A    2.179165   17576.2   569.0   0.206623510   0.02482   0.09812  -0.12318   0.00455
  0-1A  ->  2-1A    2.545121   20527.8   487.1   0.010249898   0.00144  -0.02919  -0.02421   0.00019
  0-1A  ->  3-1A    3.352337   27038.4   369.8   1.341216530   0.24785   0.38968   0.30984  -0.00133
  0-1A  ->  4-1A    3.546846   28607.2   349.6   1.056527820   0.20657  -0.28189   0.35637  -0.01051
  0-1A  ->  5-1A    4.067691   32808.1   304.8   0.001898325   0.00043  -0.01525   0.01383  -0.00138
  0-1A  ->  6-1A    4.164164   33586.3   297.7   0.037191419   0.00854  -0.07241  -0.05739  -0.00043
  0-1A  ->  7-1A    4.542896   36640.9   272.9   0.150302162   0.03764  -0.15312  -0.11892  -0.00709
  0-1A  ->  8-1A    4.730861   38157.0   262.1   0.081464102   0.02124   0.08897  -0.11540   0.00341
  0-1A  ->  9-1A    4.821369   38887.0   257.2   0.001296693   0.00034  -0.00680   0.01719   0.00172
  0-1A  -> 10-1A    4.916288   39652.5   252.2   0.000392933   0.00011   0.00210   0.01005   0.00102
  0-1A  -> 11-1A    4.990541   40251.4   248.4   0.103117497   0.02837  -0.10608   0.13082  -0.00057
  0-1A  -> 12-1A    5.071487   40904.3   244.5   0.019207813   0.00537  -0.05518  -0.04799   0.00468
  0-1A  -> 13-1A    5.190315   41862.7   238.9   0.002842156   0.00081  -0.01321   0.01999  -0.01546
  0-1A  -> 14-1A    5.262362   42443.8   235.6   0.023078193   0.00669   0.06334   0.05162  -0.00426
  0-1A  -> 15-1A    5.294388   42702.1   234.2   0.002581883   0.00075  -0.01179   0.02478  -0.00065
  0-1A  -> 16-1A    5.359583   43228.0   231.3   0.143791725   0.04248  -0.13106   0.15903  -0.00376
  0-1A  -> 17-1A    5.372670   43333.5   230.8   0.018446313   0.00546  -0.05808  -0.04552  -0.00423
  0-1A  -> 18-1A    5.503680   44390.2   225.3   0.145781894   0.04423   0.13018  -0.16502   0.00712
  0-1A  -> 19-1A    5.649965   45570.0   219.4   0.002886495   0.00090  -0.01178   0.00248   0.02746
  0-1A  -> 20-1A    5.794383   46734.9   214.0   0.017561224   0.00561  -0.04669   0.05813   0.00704
  0-1A  -> 21-1A    5.832980   47046.2   212.6   0.001649737   0.00053  -0.01579   0.01676   0.00067
  0-1A  -> 22-1A    5.846549   47155.6   212.1   0.000998201   0.00032   0.01546  -0.00900   0.00130
  0-1A  -> 23-1A    5.966863   48126.0   207.8   0.008581675   0.00282  -0.03215   0.04229   0.00074
  0-1A  -> 24-1A    5.987775   48294.7   207.1   0.001365142   0.00045   0.01526   0.01288  -0.00719
  0-1A  -> 25-1A    6.106390   49251.4   203.0   0.000297845   0.00010   0.00132   0.00975  -0.00186
  0-1A  -> 26-1A    6.134693   49479.6   202.1   0.010331083   0.00349  -0.04253   0.04101   0.00169
  0-1A  -> 27-1A    6.173975   49796.5   200.8   0.002194780   0.00075  -0.02180   0.01626  -0.00275
  0-1A  -> 28-1A    6.231489   50260.4   199.0   0.006135476   0.00211  -0.03622  -0.02726   0.00723
  0-1A  -> 29-1A    6.302048   50829.4   196.7   0.002144315   0.00074  -0.00013  -0.00176  -0.02724
  0-1A  -> 30-1A    6.348244   51202.0   195.3   0.001915463   0.00067   0.01313  -0.01868   0.01220

------------------------------------------------------------------------------------------
                     CD SPECTRUM VIA TRANSITION ELECTRIC DIPOLE MOMENTS    
------------------------------------------------------------------------------------------
     Transition      Energy     Energy  Wavelength    R        MX        MY        MZ   
                      (eV)      (cm-1)    (nm)   (1e40*cgs)   (au)      (au)      (au)  
------------------------------------------------------------------------------------------
  0-1A  ->  1-1A    2.179165   17576.2   569.0    7.33657  -0.04605  -0.01036   0.99604
  0-1A  ->  2-1A    2.545121   20527.8   487.1   -0.33441  -0.00834   0.01277  -0.00567
  0-1A  ->  3-1A    3.352337   27038.4   369.8  -29.88106   0.07869  -0.12405  -0.01066
  0-1A  ->  4-1A    3.546846   28607.2   349.6    5.59053   0.11012   0.09453   0.10581
  0-1A  ->  5-1A    4.067691   32808.1   304.8   -1.93820  -0.01387   0.00585   0.69070
  0-1A  ->  6-1A    4.164164   33586.3   297.7   -3.15020  -0.03490   0.06184   0.00822
  0-1A  ->  7-1A    4.542896   36640.9   272.9   -3.75995  -0.02844   0.04804  -0.00350
  0-1A  ->  8-1A    4.730861   38157.0   262.1    1.22376  -0.05627  -0.03333   0.46924
  0-1A  ->  9-1A    4.821369   38887.0   257.2   13.28087  -0.17230   0.21965   0.02708
  0-1A  -> 10-1A    4.916288   39652.5   252.2    0.96296   0.03881   0.03133   0.00018
  0-1A  -> 11-1A    4.990541   40251.4   248.4    2.57769   0.01849   0.02667   0.79555
  0-1A  -> 12-1A    5.071487   40904.3   244.5   -1.43351  -0.00150   0.01141  -0.02274
  0-1A  -> 13-1A    5.190315   41862.7   238.9    2.90571  -0.06395   0.04150   0.03196
  0-1A  -> 14-1A    5.262362   42443.8   235.6    3.21031   0.02746  -0.00783   0.00697
  0-1A  -> 15-1A    5.294388   42702.1   234.2   -3.01563  -0.15264  -0.12570  -0.09605
  0-1A  -> 16-1A    5.359583   43228.0   231.3   -4.43914   0.05742   0.04597   0.40779
  0-1A  -> 17-1A    5.372670   43333.5   230.8   -2.28815  -0.01024   0.03431  -0.00172
  0-1A  -> 18-1A    5.503680   44390.2   225.3    3.06241  -0.04347  -0.03095   0.26489
  0-1A  -> 19-1A    5.649965   45570.0   219.4    0.42032  -0.00660   0.03875   0.00070
  0-1A  -> 20-1A    5.794383   46734.9   214.0   11.04209   0.01115   0.03362   0.45368
  0-1A  -> 21-1A    5.832980   47046.2   212.6    0.41315   0.02261   0.03115   0.08399
  0-1A  -> 22-1A    5.846549   47155.6   212.1   -1.73089  -0.08583  -0.05428   0.01304
  0-1A  -> 23-1A    5.966863   48126.0   207.8   -2.24470   0.04203   0.00868  -0.08488
  0-1A  -> 24-1A    5.987775   48294.7   207.1   -2.93435  -0.04869  -0.01956   0.04759
  0-1A  -> 25-1A    6.106390   49251.4   203.0    1.40392   0.11577   0.07803   0.12006
  0-1A  -> 26-1A    6.134693   49479.6   202.1   -3.02936  -0.01310  -0.05089   0.08890
  0-1A  -> 27-1A    6.173975   49796.5   200.8    0.45423  -0.05187  -0.04262   0.07270
  0-1A  -> 28-1A    6.231489   50260.4   199.0    9.62705  -0.06187  -0.08418   0.02942
  0-1A  -> 29-1A    6.302048   50829.4   196.7    1.10319  -0.10460   0.11596  -0.02924
  0-1A  -> 30-1A    6.348244   51202.0   195.3  -10.14692  -0.14502   0.07408  -0.14082

------------------------------------------------------------------------------------------
                     CD SPECTRUM VIA TRANSITION VELOCITY DIPOLE MOMENTS    
------------------------------------------------------------------------------------------
     Transition      Energy     Energy  Wavelength    R        MX        MY        MZ   
                      (eV)      (cm-1)    (nm)   (1e40*cgs)   (au)      (au)      (au)  
------------------------------------------------------------------------------------------
  0-1A  ->  1-1A    2.179165   17576.2   569.0    7.58842  -0.04605  -0.01036   0.99604
  0-1A  ->  2-1A    2.545121   20527.8   487.1   -0.33573  -0.00834   0.01277  -0.00567
  0-1A  ->  3-1A    3.352337   27038.4   369.8  -29.68377   0.07869  -0.12405  -0.01066
  0-1A  ->  4-1A    3.546846   28607.2   349.6    5.55331   0.11012   0.09453   0.10581
  0-1A  ->  5-1A    4.067691   32808.1   304.8   -2.09151  -0.01387   0.00585   0.69070
  0-1A  ->  6-1A    4.164164   33586.3   297.7   -3.16001  -0.03490   0.06184   0.00822
  0-1A  ->  7-1A    4.542896   36640.9   272.9   -3.76784  -0.02844   0.04804  -0.00350
  0-1A  ->  8-1A    4.730861   38157.0   262.1    1.18941  -0.05627  -0.03333   0.46924
  0-1A  ->  9-1A    4.821369   38887.0   257.2   13.28723  -0.17230   0.21965   0.02708
  0-1A  -> 10-1A    4.916288   39652.5   252.2    1.03523   0.03881   0.03133   0.00018
  0-1A  -> 11-1A    4.990541   40251.4   248.4    2.76612   0.01849   0.02667   0.79555
  0-1A  -> 12-1A    5.071487   40904.3   244.5   -1.44440  -0.00150   0.01141  -0.02274
  0-1A  -> 13-1A    5.190315   41862.7   238.9    2.91732  -0.06395   0.04150   0.03196
  0-1A  -> 14-1A    5.262362   42443.8   235.6    3.18268   0.02746  -0.00783   0.00697
  0-1A  -> 15-1A    5.294388   42702.1   234.2   -3.03459  -0.15264  -0.12570  -0.09605
  0-1A  -> 16-1A    5.359583   43228.0   231.3   -4.18080   0.05742   0.04597   0.40779
  0-1A  -> 17-1A    5.372670   43333.5   230.8   -2.29226  -0.01024   0.03431  -0.00172
  0-1A  -> 18-1A    5.503680   44390.2   225.3    3.10772  -0.04347  -0.03095   0.26489
  0-1A  -> 19-1A    5.649965   45570.0   219.4    0.43811  -0.00660   0.03875   0.00070
  0-1A  -> 20-1A    5.794383   46734.9   214.0   10.24805   0.01115   0.03362   0.45368
  0-1A  -> 21-1A    5.832980   47046.2   212.6    0.48561   0.02261   0.03115   0.08399
  0-1A  -> 22-1A    5.846549   47155.6   212.1   -1.80213  -0.08583  -0.05428   0.01304
  0-1A  -> 23-1A    5.966863   48126.0   207.8   -2.25014   0.04203   0.00868  -0.08488
  0-1A  -> 24-1A    5.987775   48294.7   207.1   -2.86478  -0.04869  -0.01956   0.04759
  0-1A  -> 25-1A    6.106390   49251.4   203.0    1.45057   0.11577   0.07803   0.12006
  0-1A  -> 26-1A    6.134693   49479.6   202.1   -2.88562  -0.01310  -0.05089   0.08890
  0-1A  -> 27-1A    6.173975   49796.5   200.8    0.49422  -0.05187  -0.04262   0.07270
  0-1A  -> 28-1A    6.231489   50260.4   199.0    9.77570  -0.06187  -0.08418   0.02942
  0-1A  -> 29-1A    6.302048   50829.4   196.7    1.23425  -0.10460   0.11596  -0.02924
  0-1A  -> 30-1A    6.348244   51202.0   195.3  -10.11663  -0.14502   0.07408  -0.14082

Total run time:    11377.432 sec

           *** ORCA-CIS/TD-DFT FINISHED WITHOUT ERROR ***
-----------------------
CIS/TD-DFT TOTAL ENERGY
-----------------------

    E(SCF)  =  -1305.372972063 Eh
    DE(CIS) =      0.080082855 Eh (Root  1)
    ----------------------------- ---------
    E(tot)  =  -1305.292889208 Eh


Maximum memory used throughout the entire CIS-calculation: 2678.7 MB
=> NOW LEAVING ORCA_CIS

-------------------------   --------------------
FINAL SINGLE POINT ENERGY     -1305.292889208466
-------------------------   --------------------



           ************************************************************
           *        Program running with 4 parallel MPI-processes     *
           *              working on a common directory               *
           ************************************************************

------------------------------------------------------------------------------
                              ORCA PROPERTY CALCULATIONS
------------------------------------------------------------------------------

GBWName                                 ... tddft.gbw
Number of atoms                         ...     45
Number of basis functions               ...    946
Max core memory                         ...   3000 MB

Electric properties:
Dipole moment                           ... YES
Quadrupole moment                       ...  NO
Static polarizability (Dipole/Dipole)   ...  NO
Static polarizability (Dipole/Quad.)    ...  NO
Static polarizability (Quad./Quad.)     ...  NO
Static polarizability (Velocity)        ...  NO
Static hyperpolarizability              ...  NO

Atomic electric properties:
Dipole moment                           ...  NO
Quadrupole moment                       ...  NO
Static polarizability                   ...  NO

Choice of electric origin               ... Center of mass
Position of electric origin             ...    -0.077141     0.049892     0.452512

General magnetic properties:
Magnetizability                         ...  NO

EPR properties:
g-Tensor (aka g-matrix)                 ...  NO
Zero-Field splitting spin-orbit         ...  NO
Zero-field splitting spin-spin          ...  NO
Hyperfine couplings                     ...  NO (   0 nuclei)
Quadrupole couplings                    ...  NO (   0 nuclei)
Contact density                         ...  NO (   0 nuclei)

NMR properties:
Chemical shifts                         ...  NO (   0 nuclei)
Spin-rotation constants                 ...  NO (   0 nuclei)
Spin-spin couplings                     ...  NO (   0 nuclei,    0 pairs)

Choice of magnetic origin               ... GIAO
Position of magnetic origin             ...     0.000000     0.000000     0.000000

Properties with geometric perturbations:
SCF Hessian                             ...  NO
IR spectrum                             ...  NO
VCD spectrum                            ...  NO
X-ray spectroscopy properties:
SCF XES/XAS/RIXS spectra                ...  NO

SCF SOC stabilization energy            ...  NO
Diagonal Born-Oppenheimer correction    ...  NO

-------------
DIPOLE MOMENT
-------------

Method             : SCF
Type of density    : Electron Density
Multiplicity       :   1
Irrep              :   0
Energy             : -1305.3729720634687510 Eh
Basis              : AO
                                X                 Y                 Z
Electronic contribution:     -4.552575845      -1.748995347      -5.528477647
Nuclear contribution   :      5.006084294       2.352758219       6.921870493
                        -----------------------------------------
Total Dipole Moment    :      0.453508449       0.603762872       1.393392846
                        -----------------------------------------
Magnitude (a.u.)       :      1.584847987
Magnitude (Debye)      :      4.028363445



--------------------
Rotational spectrum 
--------------------
 
Rotational constants in cm-1:             0.007903             0.007607             0.004332 
Rotational constants in MHz :           236.928580           228.062756           129.873859 

Dipole components along the rotational axes: 
x,y,z [a.u.] :     0.707740     0.028933     1.417748 
x,y,z [Debye]:     1.798932     0.073543     3.603630 

 

Dipole moment calculation done in   0.5 sec 

Maximum memory used throughout the entire PROP-calculation: 107.1 MB

--------------------------------
SUGGESTED CITATIONS FOR THIS RUN
--------------------------------

Below you find a list of papers that are relevant to this ORCA run
We neither can nor want to force you to cite these papers, but we appreciate if you do
You receive ORCA, which is the product of decades of hard work by many enthusiastic individuals, for free
The only thing we kindly ask in return is that you cite our papers,
We deeply appreciate it, if you show your appreciation for ORCA by not just citing the generic ORCA reference.

Please note that relegating all ORCA citations to the supporting information does *not* help us.
SI sections are not indexed - citations you put there will not count into any citation statistics
But we need these citations in order to attract the funding resources that allow us to do what we are doing

Therefore, if you are a happy ORCA user, please consider citing a few of the papers listed below in the main body of your paper

In addition to the list printed below, the program has created the file tddft.bibtex that contains the list in bibtex format
You can import this file easily into all common literature databanks and citation aid programs

It goes without saying that in many instances, there are alternative algorithms to achieve similar
results as the ones you have gotten from ORCA. It is, of course, also the case that in some instances
ORCA just re-implements algorithms worked out by others. We are fully aware of that and we are also
fully appreciative of our colleagues work. Hence this citation list should not be read as indicating
that the listed papers, which are focused on our own work, are the only ones worth citing. It simply
meant to make it easier for users to cite ORCA specific papers. It is not a substitute for doing your
own literature research and citing the relevant literature in a scientifically appropriate manner.

List of essential papers. We consider these as the minimum necessary citations

  1. Neese, F.
     Software update: the ORCA program system, version 6.0
     WIRES Comput. Molec. Sci. 2025 15(1), e70019
     doi.org/10.1002/wcms.70019

List of papers to cite with high priority. The work reported in these papers was absolutely
necessary for this run to complete.
Our perspective: the developers of density functionals and basis sets usually get cited in chemistry papers
Good! But without the algorithms to do something with them, the functionals or basis sets would not do anything.
Hence, in our opinion, the algorithm design and method developments papers are equally worthy of getting cited

  1. Neese, F.; Olbrich, G.
     Efficient use of the resolution of the identity approximation in time-dependent density functional calculations with hybrid density functionals
     Chem. Phys. Lett. 2002 362 , 170-178
     doi.org/10.1016/s0009-2614(02)01053-9
  2. Neese, F.
     An improvement of the resolution of the identity approximation for the formation of the Coulomb matrix
     J. Comp. Chem. 2003 24(14), 1740-1747
     doi.org/10.1002/jcc.10318
  3. Neese, F.; Wennmohs, F.; Hansen, A.; Becker, U.
     Efficient, approximate and parallel Hartree-Fock and hybrid DFT calculations. A 'chain-of-spheres' algorithm for the Hartree-Fock exchange
     Chem. Phys. 2009 356(1-3), 98-109
     doi.org/10.1016/j.chemphys.2008.10.036
  4. Garcia-Rates, M.; Neese, F.
     Effect of the Solute Cavity on the Solvation Energy and its Derivatives within the Framework of the Gaussian Charge Scheme
     J. Comput. Chem. 2020 41 , 922-939
     doi.org/10.1002/jcc.26139
  5. Helmich-Paris, B.; de Souza, B.; Neese, F.; Izsák, R.
     An improved chain of spheres for exchange algorithm
     J. Chem. Phys. 2021 155(10), 104109
     doi.org/10.1063/5.0058766
  6. Neese, F.
     The SHARK Integral Generation and Digestion System
     J. Comp. Chem. 2022 44(3), 381
     doi.org/10.1002/jcc.26942

List of suggested additional citations. These are papers that are important in the 'surrounding' of 
of this run, or papers that preceded the highly important papers. If you like your results we are grateful for a citation.

  1. Izsak, R.; Neese, F.
     An overlap fitted chain of spheres exchange method
     J. Chem. Phys. 2011 135 , 144105
     doi.org/10.1063/1.3646921
  2. Izsak, R.; Hansen, A.; Neese, F.
     The resolution of identity and chain of spheres approximations for the LPNO-CCSD singles Fock term
     Molec. Phys. 2012 110 , 2413-2417
     doi.org/10.1080/00268976.2012.687466
  3. Neese, F.
     The ORCA program system
     WIRES Comput. Molec. Sci. 2012 2(1), 73-78
     doi.org/10.1002/wcms.81
  4. Izsak, R.; Neese, F.; Klopper, W.
     Robust fitting techniques in the chain of spheres approximation to the Fock exchange: The role of the complementary space
     J. Chem. Phys. 2013 139 , 
     doi.org/10.1063/1.4819264
  5. Neese, F.
     Software update: the ORCA program system, version 4.0
     WIRES Comput. Molec. Sci. 2018 8(1), 1-6
     doi.org/10.1002/wcms.1327
  6. Neese, F.; Wennmohs, F.; Becker, U.; Riplinger, C.
     The ORCA quantum chemistry program package
     J. Chem. Phys. 2020 152(22), 224108
     doi.org/10.1063/5.0004608
  7. Neese, F.
     Software update: The ORCA program system—Version 5.0
     WIRES Comput. Molec. Sci. 2022 12(1), e1606
     doi.org/10.1002/wcms.1606

List of optional additional citations

  1. Neese, F.
     Approximate second-order SCF convergence for spin unrestricted wavefunctions
     Chem. Phys. Lett. 2000 325(1-3), 93-98
     doi.org/10.1016/s0009-2614(00)00662-x

Timings for individual modules:

Sum of individual times          ...    13761.055 sec (= 229.351 min)
Startup calculation              ...       19.318 sec (=   0.322 min)   0.1 %
SCF iterations                   ...     2357.427 sec (=  39.290 min)  17.1 %
Property integrals               ...        1.325 sec (=   0.022 min)   0.0 %
Property calculations            ...        3.303 sec (=   0.055 min)   0.0 %
CIS module                       ...    11379.682 sec (= 189.661 min)  82.7 %
                             ****ORCA TERMINATED NORMALLY****
TOTAL RUN TIME: 0 days 3 hours 49 minutes 21 seconds 734 msec
