
                                 *****************
                                 * O   R   C   A *
                                 *****************

                                            #,                                       
                                            ###                                      
                                            ####                                     
                                            #####                                    
                                            ######                                   
                                           ########,                                 
                                     ,,################,,,,,                         
                               ,,#################################,,                 
                          ,,##########################################,,             
                       ,#########################################, ''#####,          
                    ,#############################################,,   '####,        
                  ,##################################################,,,,####,       
                ,###########''''           ''''###############################       
              ,#####''   ,,,,##########,,,,          '''####'''          '####       
            ,##' ,,,,###########################,,,                        '##       
           ' ,,###''''                  '''############,,,                           
         ,,##''                                '''############,,,,        ,,,,,,###''
      ,#''                                            '''#######################'''  
     '                                                          ''''####''''         
             ,#######,   #######,   ,#######,      ##                                
            ,#'     '#,  ##    ##  ,#'     '#,    #''#        ,####,    ,#,          
            ##       ##  ##   ,#'  ##            #'  '#       #'       ,# #          
            ##       ##  #######   ##           ,######,      #####,      #          
            '#,     ,#'  ##    ##  '#,     ,#' ,#      #,     #,   #      #          
             '#######'   ##     ##  '#######'  #'      '#     '####' #    #          



                #########################################################
                #                        -***-                          #
                #          Department of theory and spectroscopy        #
                #                                                       #
                #                      Frank Neese                      #
                #                                                       #
                #     Directorship, Architecture, Infrastructure        #
                #                    SHARK, DRIVERS                     #
                #        Core code/Algorithms in most modules           #
                #                                                       #
                #        Max Planck Institute fuer Kohlenforschung      #
                #                Kaiser Wilhelm Platz 1                 #
                #                 D-45470 Muelheim/Ruhr                 #
                #                      Germany                          #
                #                                                       #
                #                  All rights reserved                  #
                #                        -***-                          #
                #########################################################


                         Program Version 6.1.1  -  RELEASE   -
                                (GIT: $487d211c$)
                          ($2025-11-21 10:33:24 +0100$)


 With contributions from (in alphabetic order):
[Max-Planck-Institut fuer Kohlenforschung]                               
  Daniel Aravena         : Magnetic Suceptibility                        
  Michael Atanasov       : Ab Initio Ligand Field Theory (pilot matlab implementation)
  Alexander A. Auer      : GIAO ZORA, VPT2 properties, NMR spectrum      
  Ute Becker             : All parallelization in ORCA, NUMFREQ, NUMCALC 
  Giovanni Bistoni       : ED, misc. LED, open-shell LED, HFLD           
  Dmytro Bykov           : pre 5.0 version of the SCF Hessian            
  Marcos Casanova-Páez   : Triplet and SCS-CIS(D). UHF-(DLPNO)-IP/EA/STEOM-CCSD. UHF-CVS-IP/STEOM-CCSD   
  Vijay G. Chilkuri      : MRCI spin determinant printing, contributions to CSF-ICE 
  Pauline Colinet        : FMM embedding                                 
  Dipayan Datta          : RHF DLPNO-CCSD density                        
  Achintya Kumar Dutta   : EOM-CC, STEOM-CC                              
  Nicolas Foglia         : Exact transition moments, OPA infrastructure, MCD improvements    
  Dmitry Ganyushin       : Spin-Orbit,Spin-Spin,Magnetic field MRCI      
  Miquel Garcia-Rates    : C-PCM and meta-GGA Hessian, CCSD/C-PCM, Gaussian charge scheme 
  Tiago L. C. Gouveia    : GS-ROHF, GS-ROCIS                             
  Yang Guo               : DLPNO-NEVPT2, F12-NEVPT2, CIM, IAO-localization        
  Andreas Hansen         : Spin unrestricted coupled pair/coupled cluster methods 
  Ingolf Harden          : AUTO-CI MPn and infrastructure                
  Benjamin Helmich-Paris : MC-RPA, TRAH-(SCF,CASSCF), AVAS, COSX integrals, SCF dyn. polar., MC-PDFT, srDFT 
  Lee Huntington         : MR-EOM, pCC                                   
  Robert Izsak           : Overlap fitted RIJCOSX, COSX-SCS-MP3, EOM     
  Riya Kayal             : Wick's Theorem for AUTO-CI, AUTO-CI UHF-CCSDT 
  Emily Kempfer          : AUTO-CI RHF CISDT and CCSDT, approximate NEVPT4
  Christian Kollmar      : KDIIS, OOCD, Brueckner-CCSD(T), CCSD density, CASPT2, CASPT2-K, improved NEVPT2 
  Axel Koslowski         : Symmetry handling                             
  Simone Kossmann        : meta-GGA functionals, TD-DFT gradient, OOMP2, (MP2 Hessian; deprecated post 5.0) 
  Lucas Lang             : DCDCAS, Hyperfine gauge corrections, ICE-SOC+SSC
  Marvin Lechner         : AUTO-CI (C++ implementation), FIC-MRCC        
  Spencer Leger          : CASSCF response                               
  Dagmar Lenk            : GEPOL surface, SMD, ORCA-2-JSON               
  Dimitrios Liakos       : Extrapolation schemes; Compound Job, Property file
  Dimitrios Manganas     : Further ROCIS development; embedding schemes. LFT, Crystal Embedding 
  Dimitrios Pantazis     : SARC Basis sets                               
  Anastasios Papadopoulos: AUTO-CI, single reference methods and gradients 
  Taras Petrenko         : pre 6.0 DFT Hessian and TD-DFT gradient,  ECA, NRVS 
  Petra Pikulova         : Analytic Raman intensities                    
  Peter Pinski           : DLPNO-MP2, DLPNO-MP2 Gradient                 
  Shashank Vittal Rao    : ES-AILFT, MagRelax                            
  Christoph Reimann      : Effective Core Potentials                     
  Marius Retegan         : Local ZFS, SOC                                
  Christoph Riplinger    : Optimizer, TS searches, QM/MM, DLPNO-CCSD(T), (RO)-DLPNO pert. Triples 
  Michael Roemelt        : Original ROCIS implementation, recursive CI coupling coefficients
  Masaaki Saitow         : Open-shell DLPNO-CCSD energy and density      
  Barbara Sandhoefer     : DKH picture change effects                    
  Yorick L. A. Schmerwitz: GMF and freeze-and-release deltaSCF, NEB S-IDPP initial path                    
  Kantharuban Sivalingam : CASSCF convergence/infrastructure, NEVPT2, NEVPT3, NEVPT4(SD), FIC-MRCI and CEPA variants
  Bernardo de Souza      : ESD, SOC TD-DFT                               
  Georgi L. Stoychev     : AutoAux, RI-MP2 NMR, DLPNO-MP2 response, X2C  
  Van Anh Tran           : RI-MP2 g-tensors                              
  Willem Van den Heuvel  : Paramagnetic NMR                              
  Zikuan Wang            : NOTCH, Electric field optimization            
  Frank Wennmohs         : Technical directorship and infrastructure     
  Hang Xu                : AUTO-CI-Response properties                   
                                                                         
[FACCTs GmbH]                                                            
  Markus Bursch, Nicolas Foglia, Miquel Garcia-Rates, Ingolf Harden, Hagen Neugebauer, Anastasios Papadopoulos, 
  Christoph Riplinger, Bernardo de Souza, Georgi L. Stoychev                                                    
                                                                 
  APM, various basis sets, CI-OPT, improved COSX, DLPNO-Multilevel,           
  DOCKER, DRACO, updates on ESD, Fragmentator, GOAT, IRC, LR-CPCM, L-BFGS, MBIS, meta-GGA TD-DFT gradient, ML-optimized integration grids, 
  MM, NACMEs, nearIR, NEB, NEB-TS, NL-DFT gradient (VV10), 2- and 3-layer-ONIOM, interface openCOSMO-RS, QMMM,   
  Crystal-QMMM, RESP, rigid body optimization, SF, symmetry and pop. for TD-DFT, various functionals, SOLVATOR                                   
                                                                         
[Other institutions]                                                     
  V. Asgeirsson          : NEB                                           
  Christoph Bannwarth    : sTDA-DFT, sTD-DFT, PBEh-3c, B97-3c, D3        
  Giovanni Bistoni       : ETS/NOCV, ADLD/ADEX, COVALED                  
  Martin Brehm           : Molecular dynamics                            
  Ronald Cardenas        : ETS/NOCV                                      
  Martina Colucci        : COVALED                                       
  Sebastian Ehlert       : rSCAN, r2SCAN, r2SCAN-3c, D4, dhf basis sets  
  Marvin Friede          : D4 for Fr, Ra, Ac-Lr                          
  Lars Goerigk           : TD-DFT with DH, B97 family of functionals     
  Stefan Grimme          : VdW corrections, initial TS optimization, DFT functionals, gCP, sTDA/sTD-DF 
  Waldemar Hujo          : DFT-NL                                        
  H. Jonsson             : NEB                                           
  Holger Kruse           : gCP                                           
  Marcel Mueller         : wB97X-3c, vDZP basis set                      
  Hagen Neugebauer       : wr2SCAN, Native XTB                           
  Gianluca Regni         : ADLD/ADEX                                     
  Tobias Risthaus        : pre 6.0 range-separated hybrid DFT and stability analysis
  Lukas Wittmann         : regularized MP2, r2SCAN double-hybrids, wr2SCAN        
                                                                         
We gratefully acknowledge several colleagues who have allowed us to      
interface, adapt or use parts of their codes:                            
  Ed Valeev, F. Pavosevic, A. Kumar             : LibInt (2-el integral package), F12 methods 
  Garnet Chan, S. Sharma, J. Yang, R. Olivares  : DMRG                   
  Ulf Ekstrom                                   : XCFun DFT Library      
  Mihaly Kallay                                 : mrcc  (arbitrary order and MRCC methods)
  Frank Weinhold                                : gennbo (NPA and NBO analysis)           
  Simon Mueller                                 : openCOSMO-RS                            
  Christopher J. Cramer and Donald G. Truhlar   : smd solvation model                     
  S Lehtola, MJT Oliveira, MAL Marques          : LibXC Library                           
  Liviu Ungur et al                             : ANISO software                          


 Your calculation uses the libint2 library for the computation of 2-el integrals
 For citations please refer to: http://libint.valeyev.net

 Your ORCA version has been built with support for libXC version: 7.0.0
 For citations please refer to: https://libxc.gitlab.io

 This ORCA versions uses:
   CBLAS   interface :  Fast vector & matrix operations
   LAPACKE interface :  Fast linear algebra routines
   SCALAPACK package :  Parallel linear algebra routines
   Shared memory     :  Shared parallel matrices
   BLAS/LAPACK       :  OpenBLAS 0.3.29  USE64BITINT DYNAMIC_ARCH NO_AFFINITY Haswell SINGLE_THREADED
        Core in use  :  Haswell
   Copyright (c) 2011-2014, The OpenBLAS Project


  ***********************************
  * Starting time: Fri Jul 10 19:00:45 2026
  * Host name:     steezy
  * Process ID:    2052709
  * Working dir.:  /home/jannes/chlorophyll-ladder/009-mgchlorin-axial-ligation/mgchlorin_meoh/03_tddft_ch2cl2/pbe0
  ***********************************

NOTE: MaxCore=3000 MB was set to SCF,MP2,MDCI,CIPSI,MRCI,RASCI and CIS
      => If you want to overwrite this, your respective input block should be placed after the MaxCore statement


***************************************
The coordinates will be read from file: /home/jannes/chlorophyll-ladder/009-mgchlorin-axial-ligation/mgchlorin_meoh/01_opt/mgchlorin_meoh_opt_b3lypd4_tzvp.xyz
***************************************


================================================================================

----- Orbital basis set information -----
Your calculation utilizes the basis: def2-TZVP
   F. Weigend and R. Ahlrichs, Phys. Chem. Chem. Phys. 7, 3297 (2005).

----- AuxJ basis set information -----
Your calculation utilizes the auxiliary basis: def2/J
   H-Rn: F. Weigend, Phys. Chem. Chem. Phys. 8, 1057 (2006).
   Fr-Lr: K. Eichkorn, F. Weigend, O. Treutler, R. Ahlrichs; Theor. Chem. Acc. 97, 119 (1997).

================================================================================
                                        WARNINGS
                       Please study these warnings very carefully!
================================================================================


WARNING: CIS/ROCIS methods need fully converged wavefunctions
  ===> : Setting SCFConvForced true
         You can overwrite this default with %scf ConvForced false 


================================================================================
                                       INPUT FILE
================================================================================
NAME = tddft.inp
|  1> %pal nprocs 4 end
|  2> %maxcore 3000
|  3> ! PBE0 def2-TZVP def2/J RIJCOSX DefGrid3 TightSCF CPCM(CH2Cl2)
|  4> %tddft
|  5>   nroots 30
|  6>   tda false
|  7>   triplets false
|  8> end
|  9> * xyzfile 0 1 /home/jannes/chlorophyll-ladder/009-mgchlorin-axial-ligation/mgchlorin_meoh/01_opt/mgchlorin_meoh_opt_b3lypd4_tzvp.xyz
| 10> 
| 11>                          ****END OF INPUT****
================================================================================

                       ****************************
                       * Single Point Calculation *
                       ****************************

---------------------------------
CARTESIAN COORDINATES (ANGSTROEM)
---------------------------------
  N      1.605380    1.370705    0.010756
  N     -1.325018    1.652121   -0.009627
  N      1.232028   -1.551216    0.063420
  N     -1.658017   -1.241468    0.001982
  C      2.882865    3.362718   -0.137984
  C      3.835430    2.175183    0.054140
  C      1.510200    2.720017   -0.061220
  C      2.901777    0.978823    0.042453
  C      0.341822    3.448099   -0.088705
  C      3.352821   -0.321557    0.075899
  C     -0.978230    2.959614   -0.075512
  C      2.584656   -1.500759    0.068758
  C     -2.702893    1.592937   -0.052242
  C      0.873553   -2.882351    0.037106
  C     -2.163581    3.777140   -0.148174
  C      3.124652   -2.838100    0.055537
  C     -3.229396    2.929895   -0.131545
  C      2.064313   -3.691346    0.035551
  C     -3.452298    0.428751   -0.046446
  C     -0.425333   -3.359284    0.011624
  C     -2.976729   -0.890409   -0.029923
  C     -1.607442   -2.604994   -0.009622
  C     -3.791295   -2.071024   -0.058249
  C     -2.938465   -3.138893   -0.046473
  H      3.016458    3.843771   -1.109997
  H      3.003575    4.137758    0.619912
  H      4.367227    2.225015    1.007546
  H      4.591146    2.100197   -0.728603
  H      0.446613    4.524490   -0.148554
  H      4.427241   -0.457394    0.093760
  H     -2.172689    4.854147   -0.213726
  H      4.175221   -3.084234    0.052536
  H     -4.277594    3.181690   -0.181821
  H      2.080890   -4.770156    0.012833
  H     -4.528437    0.548854   -0.081176
  H     -0.542886   -4.436085   -0.004520
  H     -4.869807   -2.084315   -0.092294
  H     -3.189762   -4.188115   -0.068441
  Mg    -0.044077    0.052629    0.240906
  O     -0.192902    0.135749    2.361822
  C     -0.323025   -1.074865    3.126259
  H     -0.244714   -0.857796    4.192747
  H     -1.268096   -1.574313    2.907546
  H      0.498049   -1.719278    2.823789
  H     -0.909876    0.743809    2.578918

----------------------------
CARTESIAN COORDINATES (A.U.)
----------------------------
  NO LB      ZA    FRAG     MASS         X           Y           Z
   0 N     7.0000    0    14.007    3.033728    2.590258    0.020325
   1 N     7.0000    0    14.007   -2.503921    3.122057   -0.018193
   2 N     7.0000    0    14.007    2.328196   -2.931374    0.119847
   3 N     7.0000    0    14.007   -3.133199   -2.346034    0.003745
   4 C     6.0000    0    12.011    5.447825    6.354616   -0.260751
   5 C     6.0000    0    12.011    7.247913    4.110499    0.102309
   6 C     6.0000    0    12.011    2.853865    5.140086   -0.115689
   7 C     6.0000    0    12.011    5.483564    1.849707    0.080224
   8 C     6.0000    0    12.011    0.645951    6.515963   -0.167628
   9 C     6.0000    0    12.011    6.335913   -0.607654    0.143428
  10 C     6.0000    0    12.011   -1.848586    5.592860   -0.142696
  11 C     6.0000    0    12.011    4.884292   -2.836024    0.129935
  12 C     6.0000    0    12.011   -5.107728    3.010214   -0.098723
  13 C     6.0000    0    12.011    1.650775   -5.446854    0.070120
  14 C     6.0000    0    12.011   -4.088575    7.137760   -0.280009
  15 C     6.0000    0    12.011    5.904736   -5.363232    0.104950
  16 C     6.0000    0    12.011   -6.102674    5.536699   -0.248583
  17 C     6.0000    0    12.011    3.900987   -6.975633    0.067182
  18 C     6.0000    0    12.011   -6.523897    0.810222   -0.087769
  19 C     6.0000    0    12.011   -0.803764   -6.348127    0.021966
  20 C     6.0000    0    12.011   -5.625203   -1.682629   -0.056546
  21 C     6.0000    0    12.011   -3.037624   -4.922724   -0.018183
  22 C     6.0000    0    12.011   -7.164509   -3.913669   -0.110074
  23 C     6.0000    0    12.011   -5.552895   -5.931648   -0.087821
  24 H     1.0000    0     1.008    5.700279    7.263675   -2.097591
  25 H     1.0000    0     1.008    5.675934    7.819230    1.171464
  26 H     1.0000    0     1.008    8.252863    4.204670    1.903986
  27 H     1.0000    0     1.008    8.676008    3.968797   -1.376860
  28 H     1.0000    0     1.008    0.843976    8.550046   -0.280727
  29 H     1.0000    0     1.008    8.366272   -0.864350    0.177180
  30 H     1.0000    0     1.008   -4.105788    9.173008   -0.403884
  31 H     1.0000    0     1.008    7.890024   -5.828357    0.099278
  32 H     1.0000    0     1.008   -8.083481    6.012524   -0.343592
  33 H     1.0000    0     1.008    3.932313   -9.014289    0.024250
  34 H     1.0000    0     1.008   -8.557505    1.037183   -0.153401
  35 H     1.0000    0     1.008   -1.025906   -8.382986   -0.008542
  36 H     1.0000    0     1.008   -9.202601   -3.938785   -0.174411
  37 H     1.0000    0     1.008   -6.027776   -7.914391   -0.129334
  38 Mg   12.0000    0    24.305   -0.083293    0.099455    0.455247
  39 O     8.0000    0    15.999   -0.364532    0.256529    4.463197
  40 C     6.0000    0    12.011   -0.610428   -2.031200    5.907773
  41 H     1.0000    0     1.008   -0.462442   -1.621000    7.923144
  42 H     1.0000    0     1.008   -2.396354   -2.975021    5.494466
  43 H     1.0000    0     1.008    0.941176   -3.248965    5.336188
  44 H     1.0000    0     1.008   -1.719416    1.405595    4.873448

--------------------------------
INTERNAL COORDINATES (ANGSTROEM)
--------------------------------
 N      0   0   0     0.000000000000     0.00000000     0.00000000
 N      1   0   0     2.943949636277     0.00000000     0.00000000
 N      1   2   0     2.946148499232    88.21134590     0.00000000
 N      3   1   2     2.907246434952    91.14198993     0.80283161
 C      1   2   3     2.371118856879   117.10011830   176.79280150
 C      5   1   2     1.534448512060    71.12090132   175.91166090
 C      1   2   3     1.354577457895    80.47202694   178.01529490
 C      1   2   3     1.354704071457   168.62833797   356.20463502
 C      7   1   2     1.376940836683   125.97238426     0.68873382
 C      8   1   7     1.376788137243   125.96531761   182.00158737
 C      2   1   3     1.354304095042    80.66184868   181.85410820
 C      3   1   2     1.353578963404    80.58781068   179.96993997
 C      2   1   3     1.379804097188   171.93876484   349.09599393
 C      3   1   2     1.378810120255   171.92704911    14.75804504
 C     11   2   1     1.441764566729   109.83789674   178.79431866
 C     12   3   1     1.442307415004   109.84848565   181.71568801
 C     15  11   2     1.361639756166   106.86389882   359.68457779
 C     16  12   3     1.361155810741   106.84078305     0.29021032
 C     13   2  11     1.384546538748   125.20083731   178.07371685
 C     14   3  12     1.383914546907   125.24517801   180.62139697
 C      4   3   1     1.365013274327   171.21155813   359.88451756
 C      4   3   1     1.364512920659    81.77084562   178.28357442
 C     21   4  22     1.434633254704   109.71506610     0.19759479
 C     23  21   4     1.366674991535   106.77022387   359.83928216
 H      5   1   2     1.092735193853   119.43986673   281.19030166
 H      5   1   2     1.090717440220   127.80711929    70.72221376
 H      6   5   1     1.092828651342   112.08812518   245.22332488
 H      6   5   1     1.090602632117   113.17325790   124.11915742
 H      9   7   1     1.083133991818   116.39044727   180.03511455
 H     10   8   1     1.083120057504   116.34838826   179.71851417
 H     15  11   2     1.079038418866   125.16727673   180.30258196
 H     16  12   3     1.079021084593   125.17373331   179.74534147
 H     17  15  11     1.079188175336   127.91707386   180.70049503
 H     18  16  12     1.079176897696   127.95076069   179.42051705
 H     19  13   2     1.083377417178   116.37838934   179.83430117
 H     20  14   3     1.083318803477   116.40232892   180.16396833
 H     23  21   4     1.079130505309   125.32542253   180.39681959
 H     24  23  21     1.079119974083   127.89548087   180.53227828
 Mg     3   1   2     2.057247178449    46.12819060   351.70352866
 O     39   3   1     2.127755084101    99.19747955   262.02642680
 C     40  39   3     1.437665363230   120.22834514   318.11017527
 H     41  40  39     1.091168725854   110.22358523   172.04514000
 H     41  40  39     1.091074948927   110.93297683   294.68124893
 H     41  40  39     1.086700590974   106.43713720    53.24365280
 H     40  39   3     0.964840899917   107.51039472   191.16449212

---------------------------
INTERNAL COORDINATES (A.U.)
---------------------------
 N      0   0   0     0.000000000000     0.00000000     0.00000000
 N      1   0   0     5.563258564621     0.00000000     0.00000000
 N      1   2   0     5.567413813412    88.21134590     0.00000000
 N      3   1   2     5.493899565879    91.14198993     0.80283161
 C      1   2   3     4.480765270477   117.10011830   176.79280150
 C      5   1   2     2.899687454396    71.12090132   175.91166090
 C      1   2   3     2.559780422605    80.47202694   178.01529490
 C      1   2   3     2.560019687561   168.62833797   356.20463502
 C      7   1   2     2.602041083943   125.97238426     0.68873382
 C      8   1   7     2.601752523821   125.96531761   182.00158737
 C      2   1   3     2.559263841677    80.66184868   181.85410820
 C      3   1   2     2.557893541471    80.58781068   179.96993997
 C      2   1   3     2.607451862147   171.93876484   349.09599393
 C      3   1   2     2.605573517961   171.92704911    14.75804504
 C     11   2   1     2.724540180709   109.83789674   178.79431866
 C     12   3   1     2.725566015281   109.84848565   181.71568801
 C     15  11   2     2.573126232212   106.86389882   359.68457779
 C     16  12   3     2.572211707897   106.84078305     0.29021032
 C     13   2  11     2.616413777902   125.20083731   178.07371685
 C     14   3  12     2.615219486404   125.24517801   180.62139697
 C      4   3   1     2.579501257645   171.21155813   359.88451756
 C      4   3   1     2.578555726242    81.77084562   178.28357442
 C     21   4  22     2.711063954007   109.71506610     0.19759479
 C     23  21   4     2.582641448080   106.77022387   359.83928216
 H      5   1   2     2.064970253280   119.43986673   281.19030166
 H      5   1   2     2.061157251507   127.80711929    70.72221376
 H      6   5   1     2.065146862339   112.08812518   245.22332488
 H      6   5   1     2.060940295635   113.17325790   124.11915742
 H      9   7   1     2.046826610876   116.39044727   180.03511455
 H     10   8   1     2.046800278840   116.34838826   179.71851417
 H     15  11   2     2.039087099636   125.16727673   180.30258196
 H     16  12   3     2.039054342607   125.17373331   179.74534147
 H     17  15  11     2.039370098351   127.91707386   180.70049503
 H     18  16  12     2.039348786700   127.95076069   179.42051705
 H     19  13   2     2.047286618141   116.37838934   179.83430117
 H     20  14   3     2.047175854298   116.40232892   180.16396833
 H     23  21   4     2.039261117793   125.32542253   180.39681959
 H     24  23  21     2.039241216662   127.89548087   180.53227828
 Mg     3   1   2     3.887633757051    46.12819060   351.70352866
 O     39   3   1     4.020874389010    99.19747955   262.02642680
 C     40  39   3     2.716793808729   120.22834514   318.11017527
 H     41  40  39     2.062010057764   110.22358523   172.04514000
 H     41  40  39     2.061832845054   110.93297683   294.68124893
 H     41  40  39     2.053566506511   106.43713720    53.24365280
 H     40  39   3     1.823285063650   107.51039472   191.16449212

---------------------
BASIS SET INFORMATION
---------------------
There are 5 groups of distinct atoms

 Group   1 Type N   : 11s6p2d1f contracted to 5s3p2d1f pattern {62111/411/11/1}
 Group   2 Type C   : 11s6p2d1f contracted to 5s3p2d1f pattern {62111/411/11/1}
 Group   3 Type H   : 5s1p contracted to 3s1p pattern {311/1}
 Group   4 Type Mg  : 14s8p3d contracted to 5s4p3d pattern {73211/5111/111}
 Group   5 Type O   : 11s6p2d1f contracted to 5s3p2d1f pattern {62111/411/11/1}

Atom   0N    basis set group =>   1
Atom   1N    basis set group =>   1
Atom   2N    basis set group =>   1
Atom   3N    basis set group =>   1
Atom   4C    basis set group =>   2
Atom   5C    basis set group =>   2
Atom   6C    basis set group =>   2
Atom   7C    basis set group =>   2
Atom   8C    basis set group =>   2
Atom   9C    basis set group =>   2
Atom  10C    basis set group =>   2
Atom  11C    basis set group =>   2
Atom  12C    basis set group =>   2
Atom  13C    basis set group =>   2
Atom  14C    basis set group =>   2
Atom  15C    basis set group =>   2
Atom  16C    basis set group =>   2
Atom  17C    basis set group =>   2
Atom  18C    basis set group =>   2
Atom  19C    basis set group =>   2
Atom  20C    basis set group =>   2
Atom  21C    basis set group =>   2
Atom  22C    basis set group =>   2
Atom  23C    basis set group =>   2
Atom  24H    basis set group =>   3
Atom  25H    basis set group =>   3
Atom  26H    basis set group =>   3
Atom  27H    basis set group =>   3
Atom  28H    basis set group =>   3
Atom  29H    basis set group =>   3
Atom  30H    basis set group =>   3
Atom  31H    basis set group =>   3
Atom  32H    basis set group =>   3
Atom  33H    basis set group =>   3
Atom  34H    basis set group =>   3
Atom  35H    basis set group =>   3
Atom  36H    basis set group =>   3
Atom  37H    basis set group =>   3
Atom  38Mg   basis set group =>   4
Atom  39O    basis set group =>   5
Atom  40C    basis set group =>   2
Atom  41H    basis set group =>   3
Atom  42H    basis set group =>   3
Atom  43H    basis set group =>   3
Atom  44H    basis set group =>   3
---------------------------------
AUXILIARY/J BASIS SET INFORMATION
---------------------------------
There are 5 groups of distinct atoms

 Group   1 Type N   : 12s5p4d2f1g contracted to 6s4p3d1f1g pattern {711111/2111/211/2/1}
 Group   2 Type C   : 12s5p4d2f1g contracted to 6s4p3d1f1g pattern {711111/2111/211/2/1}
 Group   3 Type H   : 5s2p1d contracted to 3s1p1d pattern {311/2/1}
 Group   4 Type Mg  : 14s5p5d2f1g contracted to 8s4p4d1f1g pattern {71111111/2111/2111/2/1}
 Group   5 Type O   : 12s5p4d2f1g contracted to 6s4p3d1f1g pattern {711111/2111/211/2/1}

Atom   0N    basis set group =>   1
Atom   1N    basis set group =>   1
Atom   2N    basis set group =>   1
Atom   3N    basis set group =>   1
Atom   4C    basis set group =>   2
Atom   5C    basis set group =>   2
Atom   6C    basis set group =>   2
Atom   7C    basis set group =>   2
Atom   8C    basis set group =>   2
Atom   9C    basis set group =>   2
Atom  10C    basis set group =>   2
Atom  11C    basis set group =>   2
Atom  12C    basis set group =>   2
Atom  13C    basis set group =>   2
Atom  14C    basis set group =>   2
Atom  15C    basis set group =>   2
Atom  16C    basis set group =>   2
Atom  17C    basis set group =>   2
Atom  18C    basis set group =>   2
Atom  19C    basis set group =>   2
Atom  20C    basis set group =>   2
Atom  21C    basis set group =>   2
Atom  22C    basis set group =>   2
Atom  23C    basis set group =>   2
Atom  24H    basis set group =>   3
Atom  25H    basis set group =>   3
Atom  26H    basis set group =>   3
Atom  27H    basis set group =>   3
Atom  28H    basis set group =>   3
Atom  29H    basis set group =>   3
Atom  30H    basis set group =>   3
Atom  31H    basis set group =>   3
Atom  32H    basis set group =>   3
Atom  33H    basis set group =>   3
Atom  34H    basis set group =>   3
Atom  35H    basis set group =>   3
Atom  36H    basis set group =>   3
Atom  37H    basis set group =>   3
Atom  38Mg   basis set group =>   4
Atom  39O    basis set group =>   5
Atom  40C    basis set group =>   2
Atom  41H    basis set group =>   3
Atom  42H    basis set group =>   3
Atom  43H    basis set group =>   3
Atom  44H    basis set group =>   3


           ************************************************************
           *        Program running with 4 parallel MPI-processes     *
           *              working on a common directory               *
           ************************************************************
------------------------------------------------------------------------------
                             ORCA STARTUP CALCULATIONS
                           -- RI-GTO INTEGRALS CHOSEN --
------------------------------------------------------------------------------
------------------------------------------------------------------------------
                   ___                                                        
                  /   \      - P O W E R E D   B Y -                         
                 /     \                                                     
                 |  |  |   _    _      __       _____    __    __             
                 |  |  |  | |  | |    /  \     |  _  \  |  |  /  |          
                  \  \/   | |  | |   /    \    | | | |  |  | /  /          
                 / \  \   | |__| |  /  /\  \   | |_| |  |  |/  /          
                |  |  |   |  __  | /  /__\  \  |    /   |      \           
                |  |  |   | |  | | |   __   |  |    \   |  |\   \          
                \     /   | |  | | |  |  |  |  | |\  \  |  | \   \       
                 \___/    |_|  |_| |__|  |__|  |_| \__\ |__|  \__/        
                                                                              
                      - O R C A' S   B I G   F R I E N D -                    
                                      &                                       
                       - I N T E G R A L  F E E D E R -                       
                                                                              
 v1 FN, 2020, v2 2021, v3 2022-2024                                           
------------------------------------------------------------------------------


----------------------
SHARK INTEGRAL PACKAGE
----------------------

Number of atoms                             ...     45
Number of basis functions                   ...    946
Number of shells                            ...    370
Maximum angular momentum                    ...      3
Integral batch strategy                     ... SHARK/LIBINT Hybrid
RI-J (if used) integral strategy            ... SPLIT-RIJ (Revised 2003 algorithm where possible)
Printlevel                                  ...      1
Contraction scheme used                     ... SEGMENTED contraction
Prescreening option                         ... SCHWARTZ
   Thresh                                   ... 2.500e-11
   Tcut                                     ... 2.500e-12
   Tpresel                                  ... 2.500e-12 
Coulomb Range Separation                    ... NOT USED
Exchange Range Separation                   ... NOT USED
Multipole approximations                    ... NOT USED
Finite Nucleus Model                        ... NOT USED
CABS basis                                  ... NOT available
Auxiliary Coulomb fitting basis             ... AVAILABLE
   # of basis functions in Aux-J            ...   1528
   # of shells in Aux-J                     ...    498
   Maximum angular momentum in Aux-J        ...      4
Auxiliary J/K fitting basis                 ... NOT available
Auxiliary Correlation fitting basis         ... NOT available
Auxiliary 'external' fitting basis          ... NOT available

Checking pre-screening integrals            ... done (  0.0 sec) Dimension = 370
   => SHARK Basis and OBASIS are compatible. Storing Pre-screening
Shell pair information
Shell pair cut-off parameter TPreSel        ...   2.5e-12
Total number of shell pairs                 ...     68635
Shell pairs after pre-screening             ...     48682
Total number of primitive shell pairs       ...    214192
Primitive shell pairs kept                  ...     98342
          la=0 lb=0:  12091 shell pairs
          la=1 lb=0:  14017 shell pairs
          la=1 lb=1:   4036 shell pairs
          la=2 lb=0:   7126 shell pairs
          la=2 lb=1:   4229 shell pairs
          la=2 lb=2:   1138 shell pairs
          la=3 lb=0:   3039 shell pairs
          la=3 lb=1:   1867 shell pairs
          la=3 lb=2:    933 shell pairs
          la=3 lb=3:    206 shell pairs

Checking whether 4 symmetric matrices of dimension 946 fit in memory
:Max Core in MB      =   3000.00
 MB in use           =     62.14
 MB left             =   2937.86
 MB needed           =     13.67
 Data fit in memory  = YES
Calculating RI/J V-Matrix + Cholesky decomp.... done (  0.2 sec)
Calculating Nuclear repulsion               ... done (  0.0 sec) ENN=   2586.255132687129 Eh

Diagonalization of the overlap matrix:
Smallest eigenvalue                        ... 1.011e-05
Time for diagonalization                   ...    0.260 sec
Threshold for overlap eigenvalues          ... 1.000e-07
Number of eigenvalues below threshold      ... 0
Time for construction of square roots      ...    0.131 sec
Total time needed                          ...    0.399 sec

-------------------
DFT GRID GENERATION
-------------------

General Integration Accuracy     IntAcc      ... 4.959
Radial Grid Type                 RadialGrid  ... OptM3 with GC (2021)
Angular Grid (max. ang.)         AngularGrid ... 6 (Lebedev-590)
Angular grid pruning method      GridPruning ... 4 (adaptive)
Weight generation scheme         WeightScheme... mBecke (2022)
Basis function cutoff            BFCut       ... 1.0000e-11
Integration weight cutoff        WCut        ... 1.0000e-14
Partially contracted basis set               ... off
Rotationally invariant grid construction     ... off
Angular grids for H and He will be reduced by one unit

Total number of grid points                  ...   533935
Total number of batches                      ...     8367
Average number of points per batch           ...       63
Average number of grid points per atom       ...    11865

--------------------
COSX GRID GENERATION
--------------------

GRIDX 1
-------
General Integration Accuracy     IntAcc      ... 4.020
Radial Grid Type                 RadialGrid  ... OptM3 with GC (2021)
Angular Grid (max. ang.)         AngularGrid ... 2 (Lebedev-110)
Angular grid pruning method      GridPruning ... 4 (adaptive)
Weight generation scheme         WeightScheme... mBecke (2022)
Basis function cutoff            BFCut       ... 1.0000e-11
Integration weight cutoff        WCut        ... 1.0000e-14
Partially contracted basis set               ... on
Rotationally invariant grid construction     ... off
Angular grids for H and He will be reduced by one unit

Total number of grid points                  ...    60163
Total number of batches                      ...      491
Average number of points per batch           ...      122
Average number of grid points per atom       ...     1337
UseSFitting                                  ... on

GRIDX 2
-------
General Integration Accuracy     IntAcc      ... 4.338
Radial Grid Type                 RadialGrid  ... OptM3 with GC (2021)
Angular Grid (max. ang.)         AngularGrid ... 3 (Lebedev-194)
Angular grid pruning method      GridPruning ... 4 (adaptive)
Weight generation scheme         WeightScheme... mBecke (2022)
Basis function cutoff            BFCut       ... 1.0000e-11
Integration weight cutoff        WCut        ... 1.0000e-14
Partially contracted basis set               ... on
Rotationally invariant grid construction     ... off
Angular grids for H and He will be reduced by one unit

Total number of grid points                  ...   131937
Total number of batches                      ...     1050
Average number of points per batch           ...      125
Average number of grid points per atom       ...     2932
UseSFitting                                  ... on

GRIDX 3
-------
General Integration Accuracy     IntAcc      ... 4.871
Radial Grid Type                 RadialGrid  ... OptM3 with GC (2021)
Angular Grid (max. ang.)         AngularGrid ... 4 (Lebedev-302)
Angular grid pruning method      GridPruning ... 4 (adaptive)
Weight generation scheme         WeightScheme... mBecke (2022)
Basis function cutoff            BFCut       ... 1.0000e-11
Integration weight cutoff        WCut        ... 1.0000e-14
Partially contracted basis set               ... on
Rotationally invariant grid construction     ... off
Angular grids for H and He will be reduced by one unit

Total number of grid points                  ...   244368
Total number of batches                      ...     1933
Average number of points per batch           ...      126
Average number of grid points per atom       ...     5430
UseSFitting                                  ... on
Grids setup in  17.5 sec
Initializing property integral containers    ... done (  0.0 sec)

SHARK setup successfully completed in  19.1 seconds

Maximum memory used throughout the entire STARTUP-calculation: 180.2 MB


           ************************************************************
           *        Program running with 4 parallel MPI-processes     *
           *              working on a common directory               *
           ************************************************************
-------------------------------------------------------------------------------
                                 ORCA GUESS
                   Start orbitals & Density for SCF / CASSCF
-------------------------------------------------------------------------------

------------
SCF SETTINGS
------------
Hamiltonian:
 Density Functional     Method          .... DFT(GTOs)
 Exchange Functional    Exchange        .... PBE
   PBE kappa parameter   XKappa         ....  0.804000
   PBE mue parameter    XMuePBE         ....  0.219520
 Correlation Functional Correlation     .... PBE
   PBE beta parameter  CBetaPBE         ....  0.066725
 LDA part of GGA corr.  LDAOpt          .... PW91-LDA
 Gradients option       PostSCFGGA      .... off
 Hybrid DFT is turned on
   Fraction HF Exchange ScalHFX         ....  0.250000
   Scaling of DF-GGA-X  ScalDFX         ....  0.750000
   Scaling of DF-GGA-C  ScalDFC         ....  1.000000
   Scaling of DF-LDA-C  ScalLDAC        ....  1.000000
   Perturbative correction              ....  0.000000
   NL short-range parameter             ....  6.900000
 RI-approximation to the Coulomb term is turned on
   Number of AuxJ basis functions       .... 1528
   RIJ-COSX (HFX calculated with COS-X)).... on


General Settings:
 Integral files         IntName         .... tddft
 Hartree-Fock type      HFTyp           .... RHF
 Total Charge           Charge          ....    0
 Multiplicity           Mult            ....    1
 Number of Electrons    NEL             ....  192
 Basis Dimension        Dim             ....  946
 Nuclear Repulsion      ENuc            ....   2586.2551326871 Eh

Convergence Acceleration:
 AO-DIIS                CNVDIIS         .... on
   Start iteration      DIISMaxIt       ....    12
   Startup error        DIISStart       ....  0.200000
   # of expansion vecs  DIISMaxEq       ....     5
   Bias factor          DIISBfac        ....   1.050
   Max. coefficient     DIISMaxC        ....  10.000
 MO-DIIS                CNVKDIIS        .... off
 Trust-Rad. Augm. Hess. CNVTRAH         .... auto
   Auto Start mean grad. ratio tolernc. ....  1.125000
   Auto Start start iteration           ....    50
   Auto Start num. interpolation iter.  ....    10
   Max. Number of Micro iterations      ....    24
   Max. Number of Macro iterations      .... Maxiter - #DIIS iter
   Number of Davidson start vectors     ....     2
   Converg. threshold    (grad. norm)   ....   1.000e-05
   Grad. Scal. Fac. for Micro threshold ....   0.100
   Minimum threshold for Micro iter.    ....   1.000e-02
   NR start threshold (gradient norm)   ....   1.000e-04
   Initial trust radius                 ....   0.400
   Minimum AH scaling param. (alpha)    ....   1.000
   Maximum AH scaling param. (alpha)    .... 1000.000
   Quad. conv. algorithm                .... NR
   White noise on init. David. guess    .... on
   Maximum white noise                  ....   0.010
   Pseudo random numbers                .... off
   Inactive MOs                         .... canonical
   Orbital update algorithm             .... Taylor
   Preconditioner                       .... Diag
   Full preconditioner red. dimension   ....   250
 SOSCF                 CNVSOSCF           .... on
   Start iteration     SOSCFMaxIt         ....   150
   Startup grad/error  SOSCFStart         ....  0.003300
   Hessian update      SOSCFHessUp        .... L-BFGS
   Autom. constraints  SOSCFAutoConstrain .... off
 Level Shifting         CNVShift        .... on
   Level shift para.    LevelShift      ....    0.2500
   Turn off err/grad.   ShiftErr        ....    0.0010
 Zerner damping         CNVZerner       .... off
 Static damping         CNVDamp         .... on
   Fraction old density DampFac         ....    0.7000
   Max. Damping (<1)    DampMax         ....    0.9800
   Min. Damping (>=0)   DampMin         ....    0.0000
   Turn off err/grad.   DampErr         ....    0.1000

SCF Procedure:
 Maximum # iterations   MaxIter         ....   125
 SCF integral mode      SCFMode         .... Direct
   Integral package                     .... SHARK and LIBINT hybrid scheme
 Reset frequency        DirectResetFreq ....    20
 Integral Threshold     Thresh          ....  2.500e-11 Eh
 Primitive CutOff       TCut            ....  2.500e-12 Eh

Convergence Tolerance:
 Convergence Check Mode ConvCheckMode   .... Total+1el-Energy
 Convergence forced     ConvForced      .... 1
 Energy Change          TolE            ....  1.000e-08 Eh
 1-El. energy change                    ....  1.000e-05 Eh
 Orbital Gradient       TolG            ....  1.000e-05
 Orbital Rotation angle TolX            ....  1.000e-05
 DIIS Error             TolErr          ....  5.000e-07

------------------------------
INITIAL GUESS: MODEL POTENTIAL
------------------------------
Loading Hartree-Fock densities                     ... done
Calculating cut-offs                               ... done
Initializing the effective Hamiltonian             ... done
Setting up the integral package (SHARK)            ... done
Starting the Coulomb interaction                   ... done (   2.4 sec)
Making the grid                                    ... done (   0.8 sec)
Mapping shells                                     ... done
Starting the XC term evaluation                    ... done (   1.3 sec)
  promolecular density results
     # of electrons  =    191.993554049
     EX              =   -163.178308982
     EC              =     -6.513574054
     EX+EC           =   -169.691883037
Transforming the Hamiltonian                       ... done (   0.2 sec)
Diagonalizing the Hamiltonian                      ... done (   0.3 sec)
Back transforming the eigenvectors                 ... done (   0.1 sec)
Now organizing SCF variables                       ... done
                      ------------------
                      INITIAL GUESS DONE (   5.0 sec)
                      ------------------
             **** ENERGY FILE WAS UPDATED (tddft.en.tmp) ****
Finished Guess after   5.5 sec
Maximum memory used throughout the entire GUESS-calculation: 104.2 MB


           ************************************************************
           *        Program running with 4 parallel MPI-processes     *
           *              working on a common directory               *
           ************************************************************

-------------------------------------------------------------------------------------------
                                      ORCA LEAN-SCF
                              memory conserving SCF solver
-------------------------------------------------------------------------------------------

--------------------
CPCM SOLVATION MODEL
--------------------
CPCM parameters:
  Epsilon                                         ...       8.9990
  Refrac                                          ...       1.4242
  Rsolv                                           ...       1.3000
  Surface type                                    ... GAUSSIAN VDW
  Discretization scheme                           ... Constant charge density
    Threshold for H atoms                         ...       5.0000 (charges/Ang^2)
    Threshold for non-H atoms                     ...       5.0000 (charges/Ang^2)
  Epsilon function type                           ...         CPCM
Solvent:                                          ... DICHLOROMETHANE
Radii:
  Scheme                                          ... Element-dependent radii
  Radius for N  used is    3.5149 Bohr (=   1.8600 Ang.)
  Radius for C  used is    3.8550 Bohr (=   2.0400 Ang.)
  Radius for H  used is    2.4944 Bohr (=   1.3200 Ang.)
  Radius for Mg used is    3.9231 Bohr (=   2.0760 Ang.)
  Radius for O  used is    3.4469 Bohr (=   1.8240 Ang.)
Calculating surface                               ...        done! (  0.0s)
Cavity surface points                             ...         3952
Cavity Volume                                     ...    2800.1199
Cavity Surface-area                               ...    1332.7310
Calculating surface distance matrix               ...        done! (  0.4s)
Performing Cholesky decomposition & store         ...        done! (  0.7s)
Overall time for CPCM initialization              ...                 1.1s

----------------------------------------D-I-I-S--------------------------------------------
Iteration    Energy (Eh)           Delta-E    RMSDP     MaxDP     DIISErr   Damp  Time(sec)
-------------------------------------------------------------------------------------------
               ***  Starting incremental Fock matrix formation  ***
    1    -1303.9673570506824944     0.00e+00  1.70e-03  4.21e-02  2.25e-01  0.700 112.7
    2    -1304.2340153030272631    -2.67e-01  1.30e-03  2.72e-02  1.09e-01  0.700  56.7
                               ***Turning on AO-DIIS***
    3    -1304.3524030002404288    -1.18e-01  6.50e-04  1.68e-02  4.24e-02  0.700  54.7
    4    -1304.4219920723835457    -6.96e-02  1.28e-03  3.70e-02  2.46e-02  0.000  51.8
    5    -1304.5706074293907477    -1.49e-01  2.01e-04  4.87e-03  6.13e-03  0.000  54.5
                              *** Initializing SOSCF ***
---------------------------------------S-O-S-C-F--------------------------------------
Iteration    Energy (Eh)           Delta-E    RMSDP     MaxDP     MaxGrad    Time(sec)
--------------------------------------------------------------------------------------
    6    -1304.5712884667373146    -6.81e-04  8.42e-05  1.77e-03  2.10e-03    47.0
               *** Restarting incremental Fock matrix formation ***
    7    -1304.5713311059121224    -4.26e-05  7.38e-05  1.74e-03  2.05e-04   149.9
    8    -1304.5713344139362562    -3.31e-06  2.72e-05  6.12e-04  1.62e-04    86.0
    9    -1304.5713378225391352    -3.41e-06  2.04e-05  4.56e-04  5.90e-05    93.1
   10    -1304.5713380544384563    -2.32e-07  5.48e-06  1.76e-04  3.84e-05    69.0
   11    -1304.5713382558965350    -2.01e-07  6.58e-06  2.62e-04  2.42e-05    59.7
   12    -1304.5713382436051688     1.23e-08  4.80e-06  2.14e-04  1.36e-05    81.9
   13    -1304.5713382405187986     3.09e-09  5.28e-06  1.94e-04  5.86e-06    50.7
                 **** Energy Check signals convergence ****

               *****************************************************
               *                     SUCCESS                       *
               *           SCF CONVERGED AFTER  13 CYCLES          *
               *****************************************************

Recomputing exchange energy using gridx3       ... done (  210.308 sec)
Old exchange energy                            :    -41.574359898 Eh
New exchange energy                            :    -41.574356928 Eh
Exchange energy change after final integration :      0.000002970 Eh
Total energy after final integration           :  -1304.571335284 Eh
             **** ENERGY FILE WAS UPDATED (tddft.en.tmp) ****

----------------
TOTAL SCF ENERGY
----------------

Total Energy       :      -1304.57133528363602 Eh          -35499.19078 eV

Components:
Nuclear Repulsion  :       2586.25513268712893 Eh           70375.57999 eV
Electronic Energy  :      -3890.80750060600576 Eh         -105874.25463 eV
One Electron Energy:      -6927.27101198929995 Eh         -188500.62742 eV
Two Electron Energy:       3036.46351138329419 Eh           82626.37279 eV
CPCM Dielectric    :         -0.01897033473031 Eh              -0.51621 eV

Virial components:
Potential Energy   :      -2603.18836268638051 Eh          -70836.35660 eV
Kinetic Energy     :       1298.61702740274450 Eh           35337.16582 eV
Virial Ratio       :          2.00458511459133

DFT components:
N(Alpha)           :       95.999988225677 electrons
N(Beta)            :       95.999988225677 electrons
N(Total)           :      191.999976451354 electrons
E(X)               :     -124.398675073466 Eh       
E(C)               :       -6.522733924408 Eh       
E(XC)              :     -130.921408997874 Eh       

CPCM Solvation Model Properties:
Surface-charge          :         -0.03782683869232
Corrected charge        :          0.00000000000000
Outlying charge corr.   :          0.00006618086797 Eh               0.00180 eV
Free-energy (cav+disp)  :  This term is not implemented in the current solvation scheme

---------------
SCF CONVERGENCE
---------------

  Last Energy change         ...   -3.0864e-09  Tolerance :   1.0000e-08
  Last MAX-Density change    ...    1.9401e-04  Tolerance :   1.0000e-07
  Last RMS-Density change    ...    5.2804e-06  Tolerance :   5.0000e-09
  Last DIIS Error            ...    2.1045e-03  Tolerance :   5.0000e-07
  Last Orbital Gradient      ...    5.8606e-06  Tolerance :   1.0000e-05
  Last Orbital Rotation      ...    2.4868e-05  Tolerance :   1.0000e-05


----------------
ORBITAL ENERGIES
----------------

  NO   OCC          E(Eh)            E(eV) 
   0   2.0000     -46.850937     -1274.8788 
   1   2.0000     -19.238125      -523.4960 
   2   2.0000     -14.387599      -391.5065 
   3   2.0000     -14.365770      -390.9125 
   4   2.0000     -14.365477      -390.9045 
   5   2.0000     -14.365407      -390.9026 
   6   2.0000     -10.266925      -279.3772 
   7   2.0000     -10.266881      -279.3760 
   8   2.0000     -10.265434      -279.3367 
   9   2.0000     -10.258134      -279.1380 
  10   2.0000     -10.258079      -279.1365 
  11   2.0000     -10.251811      -278.9660 
  12   2.0000     -10.251568      -278.9593 
  13   2.0000     -10.250295      -278.9247 
  14   2.0000     -10.250147      -278.9207 
  15   2.0000     -10.231725      -278.4194 
  16   2.0000     -10.231409      -278.4108 
  17   2.0000     -10.224826      -278.2317 
  18   2.0000     -10.224588      -278.2252 
  19   2.0000     -10.222542      -278.1695 
  20   2.0000     -10.222491      -278.1681 
  21   2.0000     -10.218747      -278.0663 
  22   2.0000     -10.218686      -278.0646 
  23   2.0000     -10.217600      -278.0350 
  24   2.0000     -10.216855      -278.0148 
  25   2.0000     -10.216068      -277.9934 
  26   2.0000     -10.216013      -277.9919 
  27   2.0000      -3.073938       -83.6461 
  28   2.0000      -1.799314       -48.9618 
  29   2.0000      -1.796097       -48.8743 
  30   2.0000      -1.795830       -48.8670 
  31   2.0000      -1.074731       -29.2449 
  32   2.0000      -0.987894       -26.8820 
  33   2.0000      -0.979384       -26.6504 
  34   2.0000      -0.978026       -26.6135 
  35   2.0000      -0.969072       -26.3698 
  36   2.0000      -0.835878       -22.7454 
  37   2.0000      -0.810372       -22.0513 
  38   2.0000      -0.807143       -21.9635 
  39   2.0000      -0.792420       -21.5628 
  40   2.0000      -0.785780       -21.3822 
  41   2.0000      -0.783809       -21.3285 
  42   2.0000      -0.778857       -21.1938 
  43   2.0000      -0.755675       -20.5630 
  44   2.0000      -0.736158       -20.0319 
  45   2.0000      -0.717024       -19.5112 
  46   2.0000      -0.675154       -18.3719 
  47   2.0000      -0.670053       -18.2331 
  48   2.0000      -0.626385       -17.0448 
  49   2.0000      -0.595722       -16.2104 
  50   2.0000      -0.588207       -16.0059 
  51   2.0000      -0.583765       -15.8850 
  52   2.0000      -0.582624       -15.8540 
  53   2.0000      -0.565426       -15.3860 
  54   2.0000      -0.549297       -14.9471 
  55   2.0000      -0.543999       -14.8030 
  56   2.0000      -0.533874       -14.5274 
  57   2.0000      -0.527707       -14.3596 
  58   2.0000      -0.514766       -14.0075 
  59   2.0000      -0.511637       -13.9224 
  60   2.0000      -0.502785       -13.6815 
  61   2.0000      -0.487912       -13.2767 
  62   2.0000      -0.476391       -12.9633 
  63   2.0000      -0.463358       -12.6086 
  64   2.0000      -0.450968       -12.2715 
  65   2.0000      -0.448779       -12.2119 
  66   2.0000      -0.435033       -11.8378 
  67   2.0000      -0.430979       -11.7275 
  68   2.0000      -0.428501       -11.6601 
  69   2.0000      -0.427207       -11.6249 
  70   2.0000      -0.416583       -11.3358 
  71   2.0000      -0.416466       -11.3326 
  72   2.0000      -0.413250       -11.2451 
  73   2.0000      -0.397064       -10.8046 
  74   2.0000      -0.394369       -10.7313 
  75   2.0000      -0.387976       -10.5574 
  76   2.0000      -0.386017       -10.5040 
  77   2.0000      -0.383823       -10.4443 
  78   2.0000      -0.379260       -10.3202 
  79   2.0000      -0.375815       -10.2264 
  80   2.0000      -0.375487       -10.2175 
  81   2.0000      -0.368873       -10.0375 
  82   2.0000      -0.365595        -9.9484 
  83   2.0000      -0.362301        -9.8587 
  84   2.0000      -0.330433        -8.9915 
  85   2.0000      -0.326408        -8.8820 
  86   2.0000      -0.320370        -8.7177 
  87   2.0000      -0.315021        -8.5722 
  88   2.0000      -0.291133        -7.9221 
  89   2.0000      -0.289533        -7.8786 
  90   2.0000      -0.280230        -7.6255 
  91   2.0000      -0.266183        -7.2432 
  92   2.0000      -0.257552        -7.0084 
  93   2.0000      -0.255517        -6.9530 
  94   2.0000      -0.203165        -5.5284 
  95   2.0000      -0.192029        -5.2254 
  96   0.0000      -0.087236        -2.3738 
  97   0.0000      -0.065312        -1.7772 
  98   0.0000       0.003816         0.1038 
  99   0.0000       0.017721         0.4822 
 100   0.0000       0.032500         0.8844 
 101   0.0000       0.048565         1.3215 
 102   0.0000       0.054952         1.4953 
 103   0.0000       0.057373         1.5612 
 104   0.0000       0.065074         1.7707 
 105   0.0000       0.070106         1.9077 
 106   0.0000       0.075195         2.0462 
*Only the first 10 virtual orbitals were printed.

                    ********************************
                    * MULLIKEN POPULATION ANALYSIS *
                    ********************************

-----------------------
MULLIKEN ATOMIC CHARGES
-----------------------
   0 N :   -0.280735
   1 N :   -0.336335
   2 N :   -0.324372
   3 N :   -0.301599
   4 C :   -0.161429
   5 C :   -0.163148
   6 C :    0.204374
   7 C :    0.199276
   8 C :   -0.500139
   9 C :   -0.499909
  10 C :    0.344573
  11 C :    0.342465
  12 C :    0.310002
  13 C :    0.300316
  14 C :   -0.256992
  15 C :   -0.259447
  16 C :   -0.253077
  17 C :   -0.247560
  18 C :   -0.454874
  19 C :   -0.465524
  20 C :    0.314916
  21 C :    0.305295
  22 C :   -0.265392
  23 C :   -0.252966
  24 H :    0.124228
  25 H :    0.134315
  26 H :    0.123260
  27 H :    0.134891
  28 H :    0.144396
  29 H :    0.144209
  30 H :    0.147079
  31 H :    0.147033
  32 H :    0.148671
  33 H :    0.148450
  34 H :    0.149218
  35 H :    0.147860
  36 H :    0.145725
  37 H :    0.145800
  38 Mg:    0.573652
  39 O :   -0.462318
  40 C :   -0.234314
  41 H :    0.158433
  42 H :    0.147681
  43 H :    0.157777
  44 H :    0.376237
Sum of atomic charges:   -0.0000000

--------------------------------
MULLIKEN REDUCED ORBITAL CHARGES
--------------------------------
  0 N s       :     3.648615  s :     3.648615
      pz      :     1.269625  p :     3.566196
      px      :     1.178406
      py      :     1.118165
      dz2     :     0.004405  d :     0.062313
      dxz     :     0.009610
      dyz     :     0.011384
      dx2y2   :     0.019233
      dxy     :     0.017682
      f0      :     0.000645  f :     0.003611
      f+1     :     0.000301
      f-1     :     0.000341
      f+2     :     0.000493
      f-2     :     0.000127
      f+3     :     0.000975
      f-3     :     0.000727

  1 N s       :     3.645479  s :     3.645479
      pz      :     1.355649  p :     3.627039
      px      :     1.111797
      py      :     1.159593
      dz2     :     0.004549  d :     0.060184
      dxz     :     0.010678
      dyz     :     0.009559
      dx2y2   :     0.018631
      dxy     :     0.016768
      f0      :     0.000644  f :     0.003632
      f+1     :     0.000379
      f-1     :     0.000348
      f+2     :     0.000580
      f-2     :     0.000108
      f+3     :     0.000707
      f-3     :     0.000866

  2 N s       :     3.641430  s :     3.641430
      pz      :     1.356977  p :     3.619015
      px      :     1.104703
      py      :     1.157335
      dz2     :     0.004532  d :     0.060284
      dxz     :     0.011308
      dyz     :     0.008923
      dx2y2   :     0.018254
      dxy     :     0.017267
      f0      :     0.000659  f :     0.003644
      f+1     :     0.000366
      f-1     :     0.000357
      f+2     :     0.000572
      f-2     :     0.000112
      f+3     :     0.000665
      f-3     :     0.000913

  3 N s       :     3.638095  s :     3.638095
      pz      :     1.326632  p :     3.598043
      px      :     1.167635
      py      :     1.103776
      dz2     :     0.004578  d :     0.061787
      dxz     :     0.009785
      dyz     :     0.011691
      dx2y2   :     0.018749
      dxy     :     0.016984
      f0      :     0.000651  f :     0.003673
      f+1     :     0.000345
      f-1     :     0.000366
      f+2     :     0.000621
      f-2     :     0.000110
      f+3     :     0.000892
      f-3     :     0.000687

  4 C s       :     3.100635  s :     3.100635
      pz      :     1.061111  p :     2.970228
      px      :     0.900281
      py      :     1.008837
      dz2     :     0.006264  d :     0.084822
      dxz     :     0.017375
      dyz     :     0.017883
      dx2y2   :     0.025081
      dxy     :     0.018219
      f0      :     0.000685  f :     0.005743
      f+1     :     0.000220
      f-1     :     0.000994
      f+2     :     0.000418
      f-2     :     0.000769
      f+3     :     0.001302
      f-3     :     0.001355

  5 C s       :     3.102960  s :     3.102960
      pz      :     1.059709  p :     2.969578
      px      :     1.004585
      py      :     0.905283
      dz2     :     0.005900  d :     0.084866
      dxz     :     0.017994
      dyz     :     0.017729
      dx2y2   :     0.024615
      dxy     :     0.018627
      f0      :     0.000631  f :     0.005745
      f+1     :     0.001072
      f-1     :     0.000199
      f+2     :     0.000338
      f-2     :     0.000845
      f+3     :     0.001071
      f-3     :     0.001587

  6 C s       :     3.149524  s :     3.149524
      pz      :     0.870198  p :     2.463465
      px      :     0.882402
      py      :     0.710864
      dz2     :     0.003406  d :     0.168599
      dxz     :     0.028568
      dyz     :     0.038838
      dx2y2   :     0.044567
      dxy     :     0.053219
      f0      :     0.001934  f :     0.014038
      f+1     :     0.000734
      f-1     :     0.001089
      f+2     :     0.001708
      f-2     :     0.001166
      f+3     :     0.005205
      f-3     :     0.002202

  7 C s       :     3.148371  s :     3.148371
      pz      :     0.871646  p :     2.469453
      px      :     0.745887
      py      :     0.851920
      dz2     :     0.003201  d :     0.168856
      dxz     :     0.034313
      dyz     :     0.033330
      dx2y2   :     0.045925
      dxy     :     0.052088
      f0      :     0.001952  f :     0.014044
      f+1     :     0.001052
      f-1     :     0.000737
      f+2     :     0.001451
      f-2     :     0.001420
      f+3     :     0.003602
      f-3     :     0.003829

  8 C s       :     3.398500  s :     3.398500
      pz      :     1.098919  p :     3.021855
      px      :     0.946155
      py      :     0.976781
      dz2     :     0.002521  d :     0.072517
      dxz     :     0.024188
      dyz     :     0.003809
      dx2y2   :     0.032133
      dxy     :     0.009867
      f0      :     0.001482  f :     0.007266
      f+1     :     0.000696
      f-1     :     0.000680
      f+2     :     0.000430
      f-2     :     0.000773
      f+3     :     0.002053
      f-3     :     0.001152

  9 C s       :     3.400058  s :     3.400058
      pz      :     1.098564  p :     3.020281
      px      :     0.968942
      py      :     0.952776
      dz2     :     0.002530  d :     0.072305
      dxz     :     0.003780
      dyz     :     0.024229
      dx2y2   :     0.032477
      dxy     :     0.009289
      f0      :     0.001483  f :     0.007265
      f+1     :     0.000688
      f-1     :     0.000695
      f+2     :     0.000438
      f-2     :     0.000755
      f+3     :     0.001260
      f-3     :     0.001947

 10 C s       :     3.101823  s :     3.101823
      pz      :     0.883835  p :     2.367785
      px      :     0.768029
      py      :     0.715920
      dz2     :     0.003963  d :     0.171324
      dxz     :     0.034961
      dyz     :     0.037099
      dx2y2   :     0.044229
      dxy     :     0.051073
      f0      :     0.002081  f :     0.014494
      f+1     :     0.000831
      f-1     :     0.001083
      f+2     :     0.001877
      f-2     :     0.001173
      f+3     :     0.004152
      f-3     :     0.003296

 11 C s       :     3.106609  s :     3.106609
      pz      :     0.883601  p :     2.364114
      px      :     0.700976
      py      :     0.779537
      dz2     :     0.003670  d :     0.172282
      dxz     :     0.040475
      dyz     :     0.032191
      dx2y2   :     0.042694
      dxy     :     0.053250
      f0      :     0.002114  f :     0.014530
      f+1     :     0.001095
      f-1     :     0.000784
      f+2     :     0.002349
      f-2     :     0.000700
      f+3     :     0.002219
      f-3     :     0.005270

 12 C s       :     3.089757  s :     3.089757
      pz      :     0.939355  p :     2.420754
      px      :     0.697109
      py      :     0.784290
      dz2     :     0.004620  d :     0.165271
      dxz     :     0.038246
      dyz     :     0.029184
      dx2y2   :     0.042544
      dxy     :     0.050676
      f0      :     0.002093  f :     0.014216
      f+1     :     0.001105
      f-1     :     0.000798
      f+2     :     0.002250
      f-2     :     0.000608
      f+3     :     0.002193
      f-3     :     0.005168

 13 C s       :     3.093017  s :     3.093017
      pz      :     0.942173  p :     2.426208
      px      :     0.764784
      py      :     0.719252
      dz2     :     0.004725  d :     0.166174
      dxz     :     0.031403
      dyz     :     0.036599
      dx2y2   :     0.043352
      dxy     :     0.050095
      f0      :     0.002129  f :     0.014285
      f+1     :     0.000823
      f-1     :     0.001070
      f+2     :     0.001746
      f-2     :     0.001114
      f+3     :     0.004176
      f-3     :     0.003227

 14 C s       :     3.279515  s :     3.279515
      pz      :     1.020319  p :     2.883694
      px      :     0.935135
      py      :     0.928240
      dz2     :     0.005100  d :     0.086129
      dxz     :     0.020677
      dyz     :     0.007970
      dx2y2   :     0.032300
      dxy     :     0.020083
      f0      :     0.001473  f :     0.007654
      f+1     :     0.000521
      f-1     :     0.000826
      f+2     :     0.000089
      f-2     :     0.001245
      f+3     :     0.002252
      f-3     :     0.001248

 15 C s       :     3.281073  s :     3.281073
      pz      :     1.020275  p :     2.884715
      px      :     0.936697
      py      :     0.927744
      dz2     :     0.005092  d :     0.086009
      dxz     :     0.009443
      dyz     :     0.019108
      dx2y2   :     0.032824
      dxy     :     0.019542
      f0      :     0.001481  f :     0.007651
      f+1     :     0.000791
      f-1     :     0.000557
      f+2     :     0.000395
      f-2     :     0.000914
      f+3     :     0.001924
      f-3     :     0.001589

 16 C s       :     3.288851  s :     3.288851
      pz      :     0.990650  p :     2.868312
      px      :     0.944181
      py      :     0.933481
      dz2     :     0.004981  d :     0.088228
      dxz     :     0.009899
      dyz     :     0.021889
      dx2y2   :     0.031924
      dxy     :     0.019536
      f0      :     0.001451  f :     0.007687
      f+1     :     0.000768
      f-1     :     0.000555
      f+2     :     0.000492
      f-2     :     0.000925
      f+3     :     0.001940
      f-3     :     0.001556

 17 C s       :     3.286535  s :     3.286535
      pz      :     0.989930  p :     2.865462
      px      :     0.940703
      py      :     0.934829
      dz2     :     0.004823  d :     0.087881
      dxz     :     0.023874
      dyz     :     0.007786
      dx2y2   :     0.031479
      dxy     :     0.019919
      f0      :     0.001460  f :     0.007682
      f+1     :     0.000503
      f-1     :     0.000812
      f+2     :     0.000094
      f-2     :     0.001308
      f+3     :     0.002249
      f-3     :     0.001256

 18 C s       :     3.429161  s :     3.429161
      pz      :     0.997725  p :     2.936248
      px      :     0.976253
      py      :     0.962270
      dz2     :     0.002606  d :     0.082342
      dxz     :     0.003520
      dyz     :     0.031229
      dx2y2   :     0.034488
      dxy     :     0.010500
      f0      :     0.001389  f :     0.007124
      f+1     :     0.000631
      f-1     :     0.000635
      f+2     :     0.000430
      f-2     :     0.000807
      f+3     :     0.001199
      f-3     :     0.002033

 19 C s       :     3.443418  s :     3.443418
      pz      :     0.995258  p :     2.933151
      px      :     0.964150
      py      :     0.973743
      dz2     :     0.002560  d :     0.081829
      dxz     :     0.030957
      dyz     :     0.003536
      dx2y2   :     0.033977
      dxy     :     0.010799
      f0      :     0.001392  f :     0.007126
      f+1     :     0.000631
      f-1     :     0.000636
      f+2     :     0.000437
      f-2     :     0.000796
      f+3     :     0.002036
      f-3     :     0.001199

 20 C s       :     3.093056  s :     3.093056
      pz      :     0.936944  p :     2.412105
      px      :     0.720438
      py      :     0.754723
      dz2     :     0.004206  d :     0.165545
      dxz     :     0.036301
      dyz     :     0.030811
      dx2y2   :     0.043810
      dxy     :     0.050416
      f0      :     0.002123  f :     0.014378
      f+1     :     0.001069
      f-1     :     0.000847
      f+2     :     0.001742
      f-2     :     0.001149
      f+3     :     0.003290
      f-3     :     0.004159

 21 C s       :     3.097386  s :     3.097386
      pz      :     0.940286  p :     2.417313
      px      :     0.776728
      py      :     0.700299
      dz2     :     0.004523  d :     0.165600
      dxz     :     0.029405
      dyz     :     0.037864
      dx2y2   :     0.041720
      dxy     :     0.052088
      f0      :     0.002140  f :     0.014406
      f+1     :     0.000808
      f-1     :     0.001105
      f+2     :     0.002275
      f-2     :     0.000615
      f+3     :     0.005254
      f-3     :     0.002211

 22 C s       :     3.284889  s :     3.284889
      pz      :     1.016164  p :     2.885545
      px      :     0.931353
      py      :     0.938028
      dz2     :     0.004984  d :     0.087225
      dxz     :     0.007750
      dyz     :     0.023035
      dx2y2   :     0.031732
      dxy     :     0.019724
      f0      :     0.001475  f :     0.007733
      f+1     :     0.000833
      f-1     :     0.000515
      f+2     :     0.000079
      f-2     :     0.001336
      f+3     :     0.001244
      f-3     :     0.002252

 23 C s       :     3.278222  s :     3.278222
      pz      :     1.015826  p :     2.880056
      px      :     0.929608
      py      :     0.934623
      dz2     :     0.004963  d :     0.086958
      dxz     :     0.021130
      dyz     :     0.009459
      dx2y2   :     0.031946
      dxy     :     0.019461
      f0      :     0.001474  f :     0.007730
      f+1     :     0.000553
      f-1     :     0.000796
      f+2     :     0.000449
      f-2     :     0.000963
      f+3     :     0.001592
      f-3     :     0.001903

 24 H s       :     0.853816  s :     0.853816
      pz      :     0.011036  p :     0.021956
      px      :     0.004474
      py      :     0.006447

 25 H s       :     0.843864  s :     0.843864
      pz      :     0.008233  p :     0.021821
      px      :     0.004460
      py      :     0.009128

 26 H s       :     0.854781  s :     0.854781
      pz      :     0.010757  p :     0.021958
      px      :     0.006895
      py      :     0.004306

 27 H s       :     0.843290  s :     0.843290
      pz      :     0.008513  p :     0.021819
      px      :     0.008955
      py      :     0.004351

 28 H s       :     0.832892  s :     0.832892
      pz      :     0.005750  p :     0.022712
      px      :     0.003596
      py      :     0.013365

 29 H s       :     0.833076  s :     0.833076
      pz      :     0.005724  p :     0.022716
      px      :     0.013345
      py      :     0.003647

 30 H s       :     0.830547  s :     0.830547
      pz      :     0.005015  p :     0.022373
      px      :     0.003647
      py      :     0.013711

 31 H s       :     0.830595  s :     0.830595
      pz      :     0.004978  p :     0.022372
      px      :     0.013177
      py      :     0.004218

 32 H s       :     0.829044  s :     0.829044
      pz      :     0.004811  p :     0.022285
      px      :     0.013198
      py      :     0.004276

 33 H s       :     0.829258  s :     0.829258
      pz      :     0.004787  p :     0.022292
      px      :     0.003683
      py      :     0.013823

 34 H s       :     0.828345  s :     0.828345
      pz      :     0.005103  p :     0.022437
      px      :     0.013659
      py      :     0.003675

 35 H s       :     0.829691  s :     0.829691
      pz      :     0.005093  p :     0.022449
      px      :     0.003658
      py      :     0.013698

 36 H s       :     0.831935  s :     0.831935
      pz      :     0.004977  p :     0.022340
      px      :     0.013692
      py      :     0.003671

 37 H s       :     0.831857  s :     0.831857
      pz      :     0.004971  p :     0.022343
      px      :     0.004253
      py      :     0.013120

 38 Mgs       :     4.547832  s :     4.547832
      pz      :     2.156433  p :     6.548868
      px      :     2.201669
      py      :     2.190766
      dz2     :     0.048010  d :     0.329648
      dxz     :     0.041291
      dyz     :     0.030574
      dx2y2   :     0.038387
      dxy     :     0.171385

 39 O s       :     3.760894  s :     3.760894
      pz      :     1.669211  p :     4.672775
      px      :     1.629811
      py      :     1.373753
      dz2     :     0.005005  d :     0.027148
      dxz     :     0.002930
      dyz     :     0.005792
      dx2y2   :     0.003876
      dxy     :     0.009546
      f0      :     0.000168  f :     0.001501
      f+1     :     0.000071
      f-1     :     0.000238
      f+2     :     0.000224
      f-2     :     0.000221
      f+3     :     0.000215
      f-3     :     0.000364

 40 C s       :     3.241635  s :     3.241635
      pz      :     0.998342  p :     2.891072
      px      :     1.106032
      py      :     0.786698
      dz2     :     0.029168  d :     0.094021
      dxz     :     0.005885
      dyz     :     0.015763
      dx2y2   :     0.012241
      dxy     :     0.030964
      f0      :     0.000973  f :     0.007587
      f+1     :     0.000053
      f-1     :     0.002183
      f+2     :     0.000863
      f-2     :     0.001211
      f+3     :     0.001073
      f-3     :     0.001231

 41 H s       :     0.821429  s :     0.821429
      pz      :     0.012559  p :     0.020138
      px      :     0.004429
      py      :     0.003150

 42 H s       :     0.832115  s :     0.832115
      pz      :     0.004122  p :     0.020205
      px      :     0.010726
      py      :     0.005357

 43 H s       :     0.821322  s :     0.821322
      pz      :     0.004560  p :     0.020901
      px      :     0.009467
      py      :     0.006874

 44 H s       :     0.577294  s :     0.577294
      pz      :     0.013240  p :     0.046469
      px      :     0.017472
      py      :     0.015757



                     *******************************
                     * LOEWDIN POPULATION ANALYSIS *
                     *******************************

----------------------
LOEWDIN ATOMIC CHARGES
----------------------
   0 N :    0.204380
   1 N :    0.172323
   2 N :    0.177114
   3 N :    0.186464
   4 C :   -0.194050
   5 C :   -0.193911
   6 C :   -0.194166
   7 C :   -0.193785
   8 C :   -0.136879
   9 C :   -0.136101
  10 C :   -0.210173
  11 C :   -0.209133
  12 C :   -0.219664
  13 C :   -0.220627
  14 C :   -0.130200
  15 C :   -0.129302
  16 C :   -0.119854
  17 C :   -0.119220
  18 C :   -0.085592
  19 C :   -0.085717
  20 C :   -0.223361
  21 C :   -0.224665
  22 C :   -0.133477
  23 C :   -0.133719
  24 H :    0.152909
  25 H :    0.150094
  26 H :    0.152872
  27 H :    0.150144
  28 H :    0.164728
  29 H :    0.164864
  30 H :    0.145905
  31 H :    0.145986
  32 H :    0.147578
  33 H :    0.147635
  34 H :    0.168056
  35 H :    0.168023
  36 H :    0.145466
  37 H :    0.145496
  38 Mg:    0.098328
  39 O :    0.046493
  40 C :   -0.316814
  41 H :    0.112939
  42 H :    0.119679
  43 H :    0.130099
  44 H :    0.212834

-------------------------------
LOEWDIN REDUCED ORBITAL CHARGES
-------------------------------
  0 N s       :     2.977355  s :     2.977355
      pz      :     1.123494  p :     3.588687
      px      :     1.258442
      py      :     1.206751
      dz2     :     0.016673  d :     0.211042
      dxz     :     0.023687
      dyz     :     0.031297
      dx2y2   :     0.074644
      dxy     :     0.064742
      f0      :     0.001165  f :     0.018535
      f+1     :     0.001178
      f-1     :     0.001414
      f+2     :     0.003028
      f-2     :     0.000484
      f+3     :     0.006713
      f-3     :     0.004554

  1 N s       :     2.977251  s :     2.977251
      pz      :     1.198498  p :     3.629066
      px      :     1.183017
      py      :     1.247551
      dz2     :     0.016394  d :     0.202855
      dxz     :     0.031196
      dyz     :     0.024180
      dx2y2   :     0.070497
      dxy     :     0.060587
      f0      :     0.001134  f :     0.018505
      f+1     :     0.001355
      f-1     :     0.001228
      f+2     :     0.003499
      f-2     :     0.000358
      f+3     :     0.004693
      f-3     :     0.006239

  2 N s       :     2.974418  s :     2.974418
      pz      :     1.196782  p :     3.626693
      px      :     1.197290
      py      :     1.232621
      dz2     :     0.016450  d :     0.203211
      dxz     :     0.030955
      dyz     :     0.024136
      dx2y2   :     0.069661
      dxy     :     0.062008
      f0      :     0.001148  f :     0.018564
      f+1     :     0.001426
      f-1     :     0.001161
      f+2     :     0.003426
      f-2     :     0.000397
      f+3     :     0.004478
      f-3     :     0.006527

  3 N s       :     2.976990  s :     2.976990
      pz      :     1.176596  p :     3.611906
      px      :     1.242165
      py      :     1.193145
      dz2     :     0.016362  d :     0.205858
      dxz     :     0.025297
      dyz     :     0.033063
      dx2y2   :     0.070059
      dxy     :     0.061077
      f0      :     0.001123  f :     0.018782
      f+1     :     0.001181
      f-1     :     0.001383
      f+2     :     0.003705
      f-2     :     0.000364
      f+3     :     0.006424
      f-3     :     0.004602

  4 C s       :     2.766943  s :     2.766943
      pz      :     1.036837  p :     3.024193
      px      :     0.983694
      py      :     1.003662
      dz2     :     0.044600  d :     0.363004
      dxz     :     0.049715
      dyz     :     0.090212
      dx2y2   :     0.093441
      dxy     :     0.085035
      f0      :     0.004153  f :     0.039910
      f+1     :     0.003249
      f-1     :     0.003904
      f+2     :     0.004513
      f-2     :     0.005311
[...]
  0-1A  ->  1-1A    2.274937   18348.6   545.0   0.212546808   0.02665  -0.10165   0.12767  -0.00470
  0-1A  ->  2-1A    2.469024   19914.0   502.2   0.014284994   0.00194  -0.03442  -0.02755   0.00017
  0-1A  ->  3-1A    3.291894   26550.9   376.6   1.217868922   0.22100  -0.37176  -0.28774   0.00107
  0-1A  ->  4-1A    3.343753   26969.2   370.8   0.871952828   0.16072   0.24328  -0.31850   0.00955
  0-1A  ->  5-1A    3.730061   30085.0   332.4   0.019568050   0.00402   0.03624  -0.05205   0.00066
  0-1A  ->  6-1A    3.781079   30496.5   327.9   0.020795495   0.00433   0.05025   0.04251  -0.00150
  0-1A  ->  7-1A    4.070549   32831.2   304.6   0.172505734   0.03871   0.15474   0.12142   0.00469
  0-1A  ->  8-1A    4.275748   34486.2   290.0   0.034645762   0.00817  -0.05560   0.07121  -0.00201
  0-1A  ->  9-1A    4.436633   35783.9   279.5   0.001876503   0.00046  -0.00101   0.02138   0.00097
  0-1A  -> 10-1A    4.517158   36433.3   274.5   0.000333292   0.00008  -0.00698   0.00042  -0.00583
  0-1A  -> 11-1A    4.536400   36588.5   273.3   0.141995144   0.03551  -0.11729   0.14747  -0.00227
  0-1A  -> 12-1A    4.680684   37752.3   264.9   0.048569161   0.01253  -0.08979  -0.06685  -0.00044
  0-1A  -> 13-1A    4.718203   38054.9   262.8   0.123721936   0.03218   0.11176  -0.14023   0.00482
  0-1A  -> 14-1A    4.848609   39106.7   255.7   0.014887094   0.00398   0.03479   0.05260  -0.00155
  0-1A  -> 15-1A    4.858328   39185.1   255.2   0.014031396   0.00376   0.05313   0.03057   0.00067
  0-1A  -> 16-1A    4.910002   39601.8   252.5   0.182558556   0.04941   0.14032  -0.17221   0.00801
  0-1A  -> 17-1A    4.979403   40161.6   249.0   0.000218133   0.00006  -0.00756  -0.00041  -0.00158
  0-1A  -> 18-1A    5.090790   41060.0   243.5   0.003201628   0.00090  -0.01794   0.02204   0.00954
  0-1A  -> 19-1A    5.156345   41588.7   240.4   0.002308359   0.00066   0.01043  -0.00321  -0.02318
  0-1A  -> 20-1A    5.230107   42183.7   237.1   0.000133952   0.00004  -0.00453  -0.00339  -0.00258
  0-1A  -> 21-1A    5.275930   42553.2   235.0   0.000111155   0.00003   0.00072   0.00468   0.00314
  0-1A  -> 22-1A    5.345336   43113.0   231.9   0.086283693   0.02542   0.10060  -0.12371  -0.00117
  0-1A  -> 23-1A    5.503495   44388.7   225.3   0.004151187   0.00126   0.02285  -0.02620  -0.00711
  0-1A  -> 24-1A    5.627489   45388.8   220.3   0.005085319   0.00158   0.03130   0.02386  -0.00533
  0-1A  -> 25-1A    5.642638   45511.0   219.7   0.002573720   0.00080   0.00871   0.02369   0.01279
  0-1A  -> 26-1A    5.701111   45982.6   217.5   0.000266169   0.00008   0.00573  -0.00524   0.00484
  0-1A  -> 27-1A    5.730849   46222.4   216.3   0.002023324   0.00064  -0.01729   0.01832  -0.00219
  0-1A  -> 28-1A    5.844156   47136.3   212.2   0.001417239   0.00046  -0.00287   0.00649  -0.02016
  0-1A  -> 29-1A    5.888149   47491.1   210.6   0.000493873   0.00016  -0.01092   0.00597   0.00232
  0-1A  -> 30-1A    5.916242   47717.7   209.6   0.000062149   0.00002  -0.00422   0.00098  -0.00124

------------------------------------------------------------------------------------------
                     CD SPECTRUM VIA TRANSITION ELECTRIC DIPOLE MOMENTS    
------------------------------------------------------------------------------------------
     Transition      Energy     Energy  Wavelength    R        MX        MY        MZ   
                      (eV)      (cm-1)    (nm)   (1e40*cgs)   (au)      (au)      (au)  
------------------------------------------------------------------------------------------
  0-1A  ->  1-1A    2.274937   18348.6   545.0    5.70238   0.04656   0.01293  -0.87944
  0-1A  ->  2-1A    2.469024   19914.0   502.2   -0.39240  -0.00877   0.01367  -0.00720
  0-1A  ->  3-1A    3.291894   26550.9   376.6  -26.68512  -0.07225   0.11702   0.00862
  0-1A  ->  4-1A    3.343753   26969.2   370.8    2.61018  -0.09901  -0.07930  -0.05232
  0-1A  ->  5-1A    3.730061   30085.0   332.4   -0.49288  -0.02720  -0.00842   0.57624
  0-1A  ->  6-1A    3.781079   30496.5   327.9   -2.08147   0.02769  -0.04785  -0.01750
  0-1A  ->  7-1A    4.070549   32831.2   304.6   -5.77307   0.03751  -0.06286  -0.00086
  0-1A  ->  8-1A    4.275748   34486.2   290.0    1.25485   0.04411   0.02446  -0.55800
  0-1A  ->  9-1A    4.436633   35783.9   279.5   12.70234  -0.15353   0.19716   0.03033
  0-1A  -> 10-1A    4.517158   36433.3   274.5    0.07196  -0.01214   0.01656   0.01100
  0-1A  -> 11-1A    4.536400   36588.5   273.3   -1.53208   0.03804   0.03720   0.67074
  0-1A  -> 12-1A    4.680684   37752.3   264.9    0.50536  -0.02250   0.02737   0.01316
  0-1A  -> 13-1A    4.718203   38054.9   262.8    2.24633  -0.01015  -0.00952   0.12990
  0-1A  -> 14-1A    4.848609   39106.7   255.7   -4.71665  -0.00408  -0.02901   0.06737
  0-1A  -> 15-1A    4.858328   39185.1   255.2    3.68046   0.03024  -0.00621  -0.05358
  0-1A  -> 16-1A    4.910002   39601.8   252.5    3.06002  -0.05222  -0.05868  -0.20276
  0-1A  -> 17-1A    4.979403   40161.6   249.0   -2.97262   0.14408   0.11706   0.01590
  0-1A  -> 18-1A    5.090790   41060.0   243.5   -3.10008   0.06780  -0.01571   0.04476
  0-1A  -> 19-1A    5.156345   41588.7   240.4    0.50044  -0.00712  -0.03664  -0.00761
  0-1A  -> 20-1A    5.230107   42183.7   237.1    0.11125  -0.00631  -0.00055  -0.00744
  0-1A  -> 21-1A    5.275930   42553.2   235.0   -0.38058  -0.05335  -0.02873   0.00440
  0-1A  -> 22-1A    5.345336   43113.0   231.9    5.91620  -0.03542  -0.04294  -0.56587
  0-1A  -> 23-1A    5.503495   44388.7   225.3    5.37766  -0.00392  -0.01449  -0.27148
  0-1A  -> 24-1A    5.627489   45388.8   220.3   -1.22324  -0.02125   0.00487  -0.00013
  0-1A  -> 25-1A    5.642638   45511.0   219.7   -0.80350   0.03817  -0.04535   0.02999
  0-1A  -> 26-1A    5.701111   45982.6   217.5    0.14815   0.00810   0.01205   0.01694
  0-1A  -> 27-1A    5.730849   46222.4   216.3    0.40150   0.03429   0.02505  -0.12589
  0-1A  -> 28-1A    5.844156   47136.3   212.2   -0.12975   0.00122   0.01196   0.00715
  0-1A  -> 29-1A    5.888149   47491.1   210.6    0.82696  -0.03148   0.00387   0.01420
  0-1A  -> 30-1A    5.916242   47717.7   209.6    0.51904  -0.03278  -0.03821  -0.11086

------------------------------------------------------------------------------------------
                     CD SPECTRUM VIA TRANSITION VELOCITY DIPOLE MOMENTS    
------------------------------------------------------------------------------------------
     Transition      Energy     Energy  Wavelength    R        MX        MY        MZ   
                      (eV)      (cm-1)    (nm)   (1e40*cgs)   (au)      (au)      (au)  
------------------------------------------------------------------------------------------
  0-1A  ->  1-1A    2.274937   18348.6   545.0    5.93234   0.04656   0.01293  -0.87944
  0-1A  ->  2-1A    2.469024   19914.0   502.2   -0.39387  -0.00877   0.01367  -0.00720
  0-1A  ->  3-1A    3.291894   26550.9   376.6  -26.51183  -0.07225   0.11702   0.00862
  0-1A  ->  4-1A    3.343753   26969.2   370.8    2.57721  -0.09901  -0.07930  -0.05232
  0-1A  ->  5-1A    3.730061   30085.0   332.4   -0.57226  -0.02720  -0.00842   0.57624
  0-1A  ->  6-1A    3.781079   30496.5   327.9   -2.09305   0.02769  -0.04785  -0.01750
  0-1A  ->  7-1A    4.070549   32831.2   304.6   -5.77608   0.03751  -0.06286  -0.00086
  0-1A  ->  8-1A    4.275748   34486.2   290.0    1.22727   0.04411   0.02446  -0.55800
  0-1A  ->  9-1A    4.436633   35783.9   279.5   12.71970  -0.15353   0.19716   0.03033
  0-1A  -> 10-1A    4.517158   36433.3   274.5    0.07822  -0.01214   0.01656   0.01100
  0-1A  -> 11-1A    4.536400   36588.5   273.3   -1.40243   0.03804   0.03720   0.67074
  0-1A  -> 12-1A    4.680684   37752.3   264.9    0.50660  -0.02250   0.02737   0.01316
  0-1A  -> 13-1A    4.718203   38054.9   262.8    2.24617  -0.01015  -0.00952   0.12990
  0-1A  -> 14-1A    4.848609   39106.7   255.7   -4.68932  -0.00408  -0.02901   0.06737
  0-1A  -> 15-1A    4.858328   39185.1   255.2    3.64595   0.03024  -0.00621  -0.05358
  0-1A  -> 16-1A    4.910002   39601.8   252.5    3.01394  -0.05222  -0.05868  -0.20276
  0-1A  -> 17-1A    4.979403   40161.6   249.0   -2.99501   0.14408   0.11706   0.01590
  0-1A  -> 18-1A    5.090790   41060.0   243.5   -2.86057   0.06780  -0.01571   0.04476
  0-1A  -> 19-1A    5.156345   41588.7   240.4    0.54713  -0.00712  -0.03664  -0.00761
  0-1A  -> 20-1A    5.230107   42183.7   237.1    0.12169  -0.00631  -0.00055  -0.00744
  0-1A  -> 21-1A    5.275930   42553.2   235.0   -0.38669  -0.05335  -0.02873   0.00440
  0-1A  -> 22-1A    5.345336   43113.0   231.9    5.78951  -0.03542  -0.04294  -0.56587
  0-1A  -> 23-1A    5.503495   44388.7   225.3    5.17450  -0.00392  -0.01449  -0.27148
  0-1A  -> 24-1A    5.627489   45388.8   220.3   -1.24965  -0.02125   0.00487  -0.00013
  0-1A  -> 25-1A    5.642638   45511.0   219.7   -0.81457   0.03817  -0.04535   0.02999
  0-1A  -> 26-1A    5.701111   45982.6   217.5    0.14689   0.00810   0.01205   0.01694
  0-1A  -> 27-1A    5.730849   46222.4   216.3    0.31846   0.03429   0.02505  -0.12589
  0-1A  -> 28-1A    5.844156   47136.3   212.2   -0.15372   0.00122   0.01196   0.00715
  0-1A  -> 29-1A    5.888149   47491.1   210.6    0.87103  -0.03148   0.00387   0.01420
  0-1A  -> 30-1A    5.916242   47717.7   209.6    0.51562  -0.03278  -0.03821  -0.11086

Total run time:     8958.514 sec

           *** ORCA-CIS/TD-DFT FINISHED WITHOUT ERROR ***
-----------------------
CIS/TD-DFT TOTAL ENERGY
-----------------------

    E(SCF)  =  -1304.571335284 Eh
    DE(CIS) =      0.083602387 Eh (Root  1)
    ----------------------------- ---------
    E(tot)  =  -1304.487732896 Eh


Maximum memory used throughout the entire CIS-calculation: 2678.7 MB
=> NOW LEAVING ORCA_CIS

-------------------------   --------------------
FINAL SINGLE POINT ENERGY     -1304.487732896178
-------------------------   --------------------



           ************************************************************
           *        Program running with 4 parallel MPI-processes     *
           *              working on a common directory               *
           ************************************************************

------------------------------------------------------------------------------
                              ORCA PROPERTY CALCULATIONS
------------------------------------------------------------------------------

GBWName                                 ... tddft.gbw
Number of atoms                         ...     45
Number of basis functions               ...    946
Max core memory                         ...   3000 MB

Electric properties:
Dipole moment                           ... YES
Quadrupole moment                       ...  NO
Static polarizability (Dipole/Dipole)   ...  NO
Static polarizability (Dipole/Quad.)    ...  NO
Static polarizability (Quad./Quad.)     ...  NO
Static polarizability (Velocity)        ...  NO
Static hyperpolarizability              ...  NO

Atomic electric properties:
Dipole moment                           ...  NO
Quadrupole moment                       ...  NO
Static polarizability                   ...  NO

Choice of electric origin               ... Center of mass
Position of electric origin             ...    -0.077141     0.049892     0.452512

General magnetic properties:
Magnetizability                         ...  NO

EPR properties:
g-Tensor (aka g-matrix)                 ...  NO
Zero-Field splitting spin-orbit         ...  NO
Zero-field splitting spin-spin          ...  NO
Hyperfine couplings                     ...  NO (   0 nuclei)
Quadrupole couplings                    ...  NO (   0 nuclei)
Contact density                         ...  NO (   0 nuclei)

NMR properties:
Chemical shifts                         ...  NO (   0 nuclei)
Spin-rotation constants                 ...  NO (   0 nuclei)
Spin-spin couplings                     ...  NO (   0 nuclei,    0 pairs)

Choice of magnetic origin               ... GIAO
Position of magnetic origin             ...     0.000000     0.000000     0.000000

Properties with geometric perturbations:
SCF Hessian                             ...  NO
IR spectrum                             ...  NO
VCD spectrum                            ...  NO
X-ray spectroscopy properties:
SCF XES/XAS/RIXS spectra                ...  NO

SCF SOC stabilization energy            ...  NO
Diagonal Born-Oppenheimer correction    ...  NO

-------------
DIPOLE MOMENT
-------------

Method             : SCF
Type of density    : Electron Density
Multiplicity       :   1
Irrep              :   0
Energy             : -1304.5713352836360173 Eh
Basis              : AO
                                X                 Y                 Z
Electronic contribution:     -4.480978090      -1.684333778      -5.548598011
Nuclear contribution   :      5.006084294       2.352758219       6.921870493
                        -----------------------------------------
Total Dipole Moment    :      0.525106204       0.668424442       1.373272483
                        -----------------------------------------
Magnitude (a.u.)       :      1.615055749
Magnitude (Debye)      :      4.105145472



--------------------
Rotational spectrum 
--------------------
 
Rotational constants in cm-1:             0.007903             0.007607             0.004332 
Rotational constants in MHz :           236.928580           228.062756           129.873859 

Dipole components along the rotational axes: 
x,y,z [a.u.] :     0.804431     0.021281     1.400301 
x,y,z [Debye]:     2.044702     0.054091     3.559282 

 

Dipole moment calculation done in   0.1 sec 

Maximum memory used throughout the entire PROP-calculation: 107.1 MB

--------------------------------
SUGGESTED CITATIONS FOR THIS RUN
--------------------------------

Below you find a list of papers that are relevant to this ORCA run
We neither can nor want to force you to cite these papers, but we appreciate if you do
You receive ORCA, which is the product of decades of hard work by many enthusiastic individuals, for free
The only thing we kindly ask in return is that you cite our papers,
We deeply appreciate it, if you show your appreciation for ORCA by not just citing the generic ORCA reference.

Please note that relegating all ORCA citations to the supporting information does *not* help us.
SI sections are not indexed - citations you put there will not count into any citation statistics
But we need these citations in order to attract the funding resources that allow us to do what we are doing

Therefore, if you are a happy ORCA user, please consider citing a few of the papers listed below in the main body of your paper

In addition to the list printed below, the program has created the file tddft.bibtex that contains the list in bibtex format
You can import this file easily into all common literature databanks and citation aid programs

It goes without saying that in many instances, there are alternative algorithms to achieve similar
results as the ones you have gotten from ORCA. It is, of course, also the case that in some instances
ORCA just re-implements algorithms worked out by others. We are fully aware of that and we are also
fully appreciative of our colleagues work. Hence this citation list should not be read as indicating
that the listed papers, which are focused on our own work, are the only ones worth citing. It simply
meant to make it easier for users to cite ORCA specific papers. It is not a substitute for doing your
own literature research and citing the relevant literature in a scientifically appropriate manner.

List of essential papers. We consider these as the minimum necessary citations

  1. Neese, F.
     Software update: the ORCA program system, version 6.0
     WIRES Comput. Molec. Sci. 2025 15(1), e70019
     doi.org/10.1002/wcms.70019

List of papers to cite with high priority. The work reported in these papers was absolutely
necessary for this run to complete.
Our perspective: the developers of density functionals and basis sets usually get cited in chemistry papers
Good! But without the algorithms to do something with them, the functionals or basis sets would not do anything.
Hence, in our opinion, the algorithm design and method developments papers are equally worthy of getting cited

  1. Neese, F.; Olbrich, G.
     Efficient use of the resolution of the identity approximation in time-dependent density functional calculations with hybrid density functionals
     Chem. Phys. Lett. 2002 362 , 170-178
     doi.org/10.1016/s0009-2614(02)01053-9
  2. Neese, F.
     An improvement of the resolution of the identity approximation for the formation of the Coulomb matrix
     J. Comp. Chem. 2003 24(14), 1740-1747
     doi.org/10.1002/jcc.10318
  3. Neese, F.; Wennmohs, F.; Hansen, A.; Becker, U.
     Efficient, approximate and parallel Hartree-Fock and hybrid DFT calculations. A 'chain-of-spheres' algorithm for the Hartree-Fock exchange
     Chem. Phys. 2009 356(1-3), 98-109
     doi.org/10.1016/j.chemphys.2008.10.036
  4. Garcia-Rates, M.; Neese, F.
     Effect of the Solute Cavity on the Solvation Energy and its Derivatives within the Framework of the Gaussian Charge Scheme
     J. Comput. Chem. 2020 41 , 922-939
     doi.org/10.1002/jcc.26139
  5. Helmich-Paris, B.; de Souza, B.; Neese, F.; Izsák, R.
     An improved chain of spheres for exchange algorithm
     J. Chem. Phys. 2021 155(10), 104109
     doi.org/10.1063/5.0058766
  6. Neese, F.
     The SHARK Integral Generation and Digestion System
     J. Comp. Chem. 2022 44(3), 381
     doi.org/10.1002/jcc.26942

List of suggested additional citations. These are papers that are important in the 'surrounding' of 
of this run, or papers that preceded the highly important papers. If you like your results we are grateful for a citation.

  1. Izsak, R.; Neese, F.
     An overlap fitted chain of spheres exchange method
     J. Chem. Phys. 2011 135 , 144105
     doi.org/10.1063/1.3646921
  2. Izsak, R.; Hansen, A.; Neese, F.
     The resolution of identity and chain of spheres approximations for the LPNO-CCSD singles Fock term
     Molec. Phys. 2012 110 , 2413-2417
     doi.org/10.1080/00268976.2012.687466
  3. Neese, F.
     The ORCA program system
     WIRES Comput. Molec. Sci. 2012 2(1), 73-78
     doi.org/10.1002/wcms.81
  4. Izsak, R.; Neese, F.; Klopper, W.
     Robust fitting techniques in the chain of spheres approximation to the Fock exchange: The role of the complementary space
     J. Chem. Phys. 2013 139 , 
     doi.org/10.1063/1.4819264
  5. Neese, F.
     Software update: the ORCA program system, version 4.0
     WIRES Comput. Molec. Sci. 2018 8(1), 1-6
     doi.org/10.1002/wcms.1327
  6. Neese, F.; Wennmohs, F.; Becker, U.; Riplinger, C.
     The ORCA quantum chemistry program package
     J. Chem. Phys. 2020 152(22), 224108
     doi.org/10.1063/5.0004608
  7. Neese, F.
     Software update: The ORCA program system—Version 5.0
     WIRES Comput. Molec. Sci. 2022 12(1), e1606
     doi.org/10.1002/wcms.1606

List of optional additional citations

  1. Neese, F.
     Approximate second-order SCF convergence for spin unrestricted wavefunctions
     Chem. Phys. Lett. 2000 325(1-3), 93-98
     doi.org/10.1016/s0009-2614(00)00662-x

Timings for individual modules:

Sum of individual times          ...    10216.582 sec (= 170.276 min)
Startup calculation              ...       19.432 sec (=   0.324 min)   0.2 %
SCF iterations                   ...     1236.172 sec (=  20.603 min)  12.1 %
Property integrals               ...        1.148 sec (=   0.019 min)   0.0 %
Property calculations            ...        0.832 sec (=   0.014 min)   0.0 %
CIS module                       ...     8958.997 sec (= 149.317 min)  87.7 %
                             ****ORCA TERMINATED NORMALLY****
TOTAL RUN TIME: 0 days 2 hours 50 minutes 17 seconds 10 msec
