
                                 *****************
                                 * O   R   C   A *
                                 *****************

                                            #,                                       
                                            ###                                      
                                            ####                                     
                                            #####                                    
                                            ######                                   
                                           ########,                                 
                                     ,,################,,,,,                         
                               ,,#################################,,                 
                          ,,##########################################,,             
                       ,#########################################, ''#####,          
                    ,#############################################,,   '####,        
                  ,##################################################,,,,####,       
                ,###########''''           ''''###############################       
              ,#####''   ,,,,##########,,,,          '''####'''          '####       
            ,##' ,,,,###########################,,,                        '##       
           ' ,,###''''                  '''############,,,                           
         ,,##''                                '''############,,,,        ,,,,,,###''
      ,#''                                            '''#######################'''  
     '                                                          ''''####''''         
             ,#######,   #######,   ,#######,      ##                                
            ,#'     '#,  ##    ##  ,#'     '#,    #''#        ,####,    ,#,          
            ##       ##  ##   ,#'  ##            #'  '#       #'       ,# #          
            ##       ##  #######   ##           ,######,      #####,      #          
            '#,     ,#'  ##    ##  '#,     ,#' ,#      #,     #,   #      #          
             '#######'   ##     ##  '#######'  #'      '#     '####' #    #          



                #########################################################
                #                        -***-                          #
                #          Department of theory and spectroscopy        #
                #                                                       #
                #                      Frank Neese                      #
                #                                                       #
                #     Directorship, Architecture, Infrastructure        #
                #                    SHARK, DRIVERS                     #
                #        Core code/Algorithms in most modules           #
                #                                                       #
                #        Max Planck Institute fuer Kohlenforschung      #
                #                Kaiser Wilhelm Platz 1                 #
                #                 D-45470 Muelheim/Ruhr                 #
                #                      Germany                          #
                #                                                       #
                #                  All rights reserved                  #
                #                        -***-                          #
                #########################################################


                         Program Version 6.1.1  -  RELEASE   -
                                (GIT: $487d211c$)
                          ($2025-11-21 10:33:24 +0100$)


 With contributions from (in alphabetic order):
[Max-Planck-Institut fuer Kohlenforschung]                               
  Daniel Aravena         : Magnetic Suceptibility                        
  Michael Atanasov       : Ab Initio Ligand Field Theory (pilot matlab implementation)
  Alexander A. Auer      : GIAO ZORA, VPT2 properties, NMR spectrum      
  Ute Becker             : All parallelization in ORCA, NUMFREQ, NUMCALC 
  Giovanni Bistoni       : ED, misc. LED, open-shell LED, HFLD           
  Dmytro Bykov           : pre 5.0 version of the SCF Hessian            
  Marcos Casanova-Páez   : Triplet and SCS-CIS(D). UHF-(DLPNO)-IP/EA/STEOM-CCSD. UHF-CVS-IP/STEOM-CCSD   
  Vijay G. Chilkuri      : MRCI spin determinant printing, contributions to CSF-ICE 
  Pauline Colinet        : FMM embedding                                 
  Dipayan Datta          : RHF DLPNO-CCSD density                        
  Achintya Kumar Dutta   : EOM-CC, STEOM-CC                              
  Nicolas Foglia         : Exact transition moments, OPA infrastructure, MCD improvements    
  Dmitry Ganyushin       : Spin-Orbit,Spin-Spin,Magnetic field MRCI      
  Miquel Garcia-Rates    : C-PCM and meta-GGA Hessian, CCSD/C-PCM, Gaussian charge scheme 
  Tiago L. C. Gouveia    : GS-ROHF, GS-ROCIS                             
  Yang Guo               : DLPNO-NEVPT2, F12-NEVPT2, CIM, IAO-localization        
  Andreas Hansen         : Spin unrestricted coupled pair/coupled cluster methods 
  Ingolf Harden          : AUTO-CI MPn and infrastructure                
  Benjamin Helmich-Paris : MC-RPA, TRAH-(SCF,CASSCF), AVAS, COSX integrals, SCF dyn. polar., MC-PDFT, srDFT 
  Lee Huntington         : MR-EOM, pCC                                   
  Robert Izsak           : Overlap fitted RIJCOSX, COSX-SCS-MP3, EOM     
  Riya Kayal             : Wick's Theorem for AUTO-CI, AUTO-CI UHF-CCSDT 
  Emily Kempfer          : AUTO-CI RHF CISDT and CCSDT, approximate NEVPT4
  Christian Kollmar      : KDIIS, OOCD, Brueckner-CCSD(T), CCSD density, CASPT2, CASPT2-K, improved NEVPT2 
  Axel Koslowski         : Symmetry handling                             
  Simone Kossmann        : meta-GGA functionals, TD-DFT gradient, OOMP2, (MP2 Hessian; deprecated post 5.0) 
  Lucas Lang             : DCDCAS, Hyperfine gauge corrections, ICE-SOC+SSC
  Marvin Lechner         : AUTO-CI (C++ implementation), FIC-MRCC        
  Spencer Leger          : CASSCF response                               
  Dagmar Lenk            : GEPOL surface, SMD, ORCA-2-JSON               
  Dimitrios Liakos       : Extrapolation schemes; Compound Job, Property file
  Dimitrios Manganas     : Further ROCIS development; embedding schemes. LFT, Crystal Embedding 
  Dimitrios Pantazis     : SARC Basis sets                               
  Anastasios Papadopoulos: AUTO-CI, single reference methods and gradients 
  Taras Petrenko         : pre 6.0 DFT Hessian and TD-DFT gradient,  ECA, NRVS 
  Petra Pikulova         : Analytic Raman intensities                    
  Peter Pinski           : DLPNO-MP2, DLPNO-MP2 Gradient                 
  Shashank Vittal Rao    : ES-AILFT, MagRelax                            
  Christoph Reimann      : Effective Core Potentials                     
  Marius Retegan         : Local ZFS, SOC                                
  Christoph Riplinger    : Optimizer, TS searches, QM/MM, DLPNO-CCSD(T), (RO)-DLPNO pert. Triples 
  Michael Roemelt        : Original ROCIS implementation, recursive CI coupling coefficients
  Masaaki Saitow         : Open-shell DLPNO-CCSD energy and density      
  Barbara Sandhoefer     : DKH picture change effects                    
  Yorick L. A. Schmerwitz: GMF and freeze-and-release deltaSCF, NEB S-IDPP initial path                    
  Kantharuban Sivalingam : CASSCF convergence/infrastructure, NEVPT2, NEVPT3, NEVPT4(SD), FIC-MRCI and CEPA variants
  Bernardo de Souza      : ESD, SOC TD-DFT                               
  Georgi L. Stoychev     : AutoAux, RI-MP2 NMR, DLPNO-MP2 response, X2C  
  Van Anh Tran           : RI-MP2 g-tensors                              
  Willem Van den Heuvel  : Paramagnetic NMR                              
  Zikuan Wang            : NOTCH, Electric field optimization            
  Frank Wennmohs         : Technical directorship and infrastructure     
  Hang Xu                : AUTO-CI-Response properties                   
                                                                         
[FACCTs GmbH]                                                            
  Markus Bursch, Nicolas Foglia, Miquel Garcia-Rates, Ingolf Harden, Hagen Neugebauer, Anastasios Papadopoulos, 
  Christoph Riplinger, Bernardo de Souza, Georgi L. Stoychev                                                    
                                                                 
  APM, various basis sets, CI-OPT, improved COSX, DLPNO-Multilevel,           
  DOCKER, DRACO, updates on ESD, Fragmentator, GOAT, IRC, LR-CPCM, L-BFGS, MBIS, meta-GGA TD-DFT gradient, ML-optimized integration grids, 
  MM, NACMEs, nearIR, NEB, NEB-TS, NL-DFT gradient (VV10), 2- and 3-layer-ONIOM, interface openCOSMO-RS, QMMM,   
  Crystal-QMMM, RESP, rigid body optimization, SF, symmetry and pop. for TD-DFT, various functionals, SOLVATOR                                   
                                                                         
[Other institutions]                                                     
  V. Asgeirsson          : NEB                                           
  Christoph Bannwarth    : sTDA-DFT, sTD-DFT, PBEh-3c, B97-3c, D3        
  Giovanni Bistoni       : ETS/NOCV, ADLD/ADEX, COVALED                  
  Martin Brehm           : Molecular dynamics                            
  Ronald Cardenas        : ETS/NOCV                                      
  Martina Colucci        : COVALED                                       
  Sebastian Ehlert       : rSCAN, r2SCAN, r2SCAN-3c, D4, dhf basis sets  
  Marvin Friede          : D4 for Fr, Ra, Ac-Lr                          
  Lars Goerigk           : TD-DFT with DH, B97 family of functionals     
  Stefan Grimme          : VdW corrections, initial TS optimization, DFT functionals, gCP, sTDA/sTD-DF 
  Waldemar Hujo          : DFT-NL                                        
  H. Jonsson             : NEB                                           
  Holger Kruse           : gCP                                           
  Marcel Mueller         : wB97X-3c, vDZP basis set                      
  Hagen Neugebauer       : wr2SCAN, Native XTB                           
  Gianluca Regni         : ADLD/ADEX                                     
  Tobias Risthaus        : pre 6.0 range-separated hybrid DFT and stability analysis
  Lukas Wittmann         : regularized MP2, r2SCAN double-hybrids, wr2SCAN        
                                                                         
We gratefully acknowledge several colleagues who have allowed us to      
interface, adapt or use parts of their codes:                            
  Ed Valeev, F. Pavosevic, A. Kumar             : LibInt (2-el integral package), F12 methods 
  Garnet Chan, S. Sharma, J. Yang, R. Olivares  : DMRG                   
  Ulf Ekstrom                                   : XCFun DFT Library      
  Mihaly Kallay                                 : mrcc  (arbitrary order and MRCC methods)
  Frank Weinhold                                : gennbo (NPA and NBO analysis)           
  Simon Mueller                                 : openCOSMO-RS                            
  Christopher J. Cramer and Donald G. Truhlar   : smd solvation model                     
  S Lehtola, MJT Oliveira, MAL Marques          : LibXC Library                           
  Liviu Ungur et al                             : ANISO software                          


 Your calculation uses the libint2 library for the computation of 2-el integrals
 For citations please refer to: http://libint.valeyev.net

 Your ORCA version has been built with support for libXC version: 7.0.0
 For citations please refer to: https://libxc.gitlab.io

 This ORCA versions uses:
   CBLAS   interface :  Fast vector & matrix operations
   LAPACKE interface :  Fast linear algebra routines
   SCALAPACK package :  Parallel linear algebra routines
   Shared memory     :  Shared parallel matrices
   BLAS/LAPACK       :  OpenBLAS 0.3.29  USE64BITINT DYNAMIC_ARCH NO_AFFINITY Haswell SINGLE_THREADED
        Core in use  :  Haswell
   Copyright (c) 2011-2014, The OpenBLAS Project


  ***********************************
  * Starting time: Fri Jul 10 19:59:42 2026
  * Host name:     steezy
  * Process ID:    2059363
  * Working dir.:  /home/jannes/chlorophyll-ladder/009-mgchlorin-axial-ligation/mgchlorin_meoh/03_tddft_ch2cl2/wb97xd
  ***********************************

NOTE: MaxCore=3000 MB was set to SCF,MP2,MDCI,CIPSI,MRCI,RASCI and CIS
      => If you want to overwrite this, your respective input block should be placed after the MaxCore statement


***************************************
The coordinates will be read from file: /home/jannes/chlorophyll-ladder/009-mgchlorin-axial-ligation/mgchlorin_meoh/01_opt/mgchlorin_meoh_opt_b3lypd4_tzvp.xyz
***************************************


Your calculation utilizes the atom-pairwise dispersion correction
with the zero-damping scheme (D30)


XCFun DFT library Copyright 2009-2010 Ulf Ekstrom and contributors.
See http://admol.org/xcfun for more information.
This is free software; see the source code for copying conditions.
There is ABSOLUTELY NO WARRANTY; not even for MERCHANTABILITY or FITNESS FOR A PARTICULAR PURPOSE.
For details see the documentation.
Scientific users of this library should cite U. Ekstrom, L. Visscher, R. Bast, A. J. Thorvaldsen and K. Ruud;
J.Chem.Theor.Comp. 2010, DOI: 10.1021/ct100117s
XCFun Version 0.99 

================================================================================

----- Orbital basis set information -----
Your calculation utilizes the basis: def2-TZVP
   F. Weigend and R. Ahlrichs, Phys. Chem. Chem. Phys. 7, 3297 (2005).

----- AuxJ basis set information -----
Your calculation utilizes the auxiliary basis: def2/J
   H-Rn: F. Weigend, Phys. Chem. Chem. Phys. 8, 1057 (2006).
   Fr-Lr: K. Eichkorn, F. Weigend, O. Treutler, R. Ahlrichs; Theor. Chem. Acc. 97, 119 (1997).

================================================================================
                                        WARNINGS
                       Please study these warnings very carefully!
================================================================================


WARNING: CIS/ROCIS methods need fully converged wavefunctions
  ===> : Setting SCFConvForced true
         You can overwrite this default with %scf ConvForced false 


================================================================================
                                       INPUT FILE
================================================================================
NAME = tddft.inp
|  1> %pal nprocs 4 end
|  2> %maxcore 3000
|  3> ! wB97X-D3 def2-TZVP def2/J RIJCOSX DefGrid3 TightSCF CPCM(CH2Cl2)
|  4> %tddft
|  5>   nroots 30
|  6>   tda false
|  7>   triplets false
|  8> end
|  9> * xyzfile 0 1 /home/jannes/chlorophyll-ladder/009-mgchlorin-axial-ligation/mgchlorin_meoh/01_opt/mgchlorin_meoh_opt_b3lypd4_tzvp.xyz
| 10> 
| 11>                          ****END OF INPUT****
================================================================================

                       ****************************
                       * Single Point Calculation *
                       ****************************

---------------------------------
CARTESIAN COORDINATES (ANGSTROEM)
---------------------------------
  N      1.605380    1.370705    0.010756
  N     -1.325018    1.652121   -0.009627
  N      1.232028   -1.551216    0.063420
  N     -1.658017   -1.241468    0.001982
  C      2.882865    3.362718   -0.137984
  C      3.835430    2.175183    0.054140
  C      1.510200    2.720017   -0.061220
  C      2.901777    0.978823    0.042453
  C      0.341822    3.448099   -0.088705
  C      3.352821   -0.321557    0.075899
  C     -0.978230    2.959614   -0.075512
  C      2.584656   -1.500759    0.068758
  C     -2.702893    1.592937   -0.052242
  C      0.873553   -2.882351    0.037106
  C     -2.163581    3.777140   -0.148174
  C      3.124652   -2.838100    0.055537
  C     -3.229396    2.929895   -0.131545
  C      2.064313   -3.691346    0.035551
  C     -3.452298    0.428751   -0.046446
  C     -0.425333   -3.359284    0.011624
  C     -2.976729   -0.890409   -0.029923
  C     -1.607442   -2.604994   -0.009622
  C     -3.791295   -2.071024   -0.058249
  C     -2.938465   -3.138893   -0.046473
  H      3.016458    3.843771   -1.109997
  H      3.003575    4.137758    0.619912
  H      4.367227    2.225015    1.007546
  H      4.591146    2.100197   -0.728603
  H      0.446613    4.524490   -0.148554
  H      4.427241   -0.457394    0.093760
  H     -2.172689    4.854147   -0.213726
  H      4.175221   -3.084234    0.052536
  H     -4.277594    3.181690   -0.181821
  H      2.080890   -4.770156    0.012833
  H     -4.528437    0.548854   -0.081176
  H     -0.542886   -4.436085   -0.004520
  H     -4.869807   -2.084315   -0.092294
  H     -3.189762   -4.188115   -0.068441
  Mg    -0.044077    0.052629    0.240906
  O     -0.192902    0.135749    2.361822
  C     -0.323025   -1.074865    3.126259
  H     -0.244714   -0.857796    4.192747
  H     -1.268096   -1.574313    2.907546
  H      0.498049   -1.719278    2.823789
  H     -0.909876    0.743809    2.578918

----------------------------
CARTESIAN COORDINATES (A.U.)
----------------------------
  NO LB      ZA    FRAG     MASS         X           Y           Z
   0 N     7.0000    0    14.007    3.033728    2.590258    0.020325
   1 N     7.0000    0    14.007   -2.503921    3.122057   -0.018193
   2 N     7.0000    0    14.007    2.328196   -2.931374    0.119847
   3 N     7.0000    0    14.007   -3.133199   -2.346034    0.003745
   4 C     6.0000    0    12.011    5.447825    6.354616   -0.260751
   5 C     6.0000    0    12.011    7.247913    4.110499    0.102309
   6 C     6.0000    0    12.011    2.853865    5.140086   -0.115689
   7 C     6.0000    0    12.011    5.483564    1.849707    0.080224
   8 C     6.0000    0    12.011    0.645951    6.515963   -0.167628
   9 C     6.0000    0    12.011    6.335913   -0.607654    0.143428
  10 C     6.0000    0    12.011   -1.848586    5.592860   -0.142696
  11 C     6.0000    0    12.011    4.884292   -2.836024    0.129935
  12 C     6.0000    0    12.011   -5.107728    3.010214   -0.098723
  13 C     6.0000    0    12.011    1.650775   -5.446854    0.070120
  14 C     6.0000    0    12.011   -4.088575    7.137760   -0.280009
  15 C     6.0000    0    12.011    5.904736   -5.363232    0.104950
  16 C     6.0000    0    12.011   -6.102674    5.536699   -0.248583
  17 C     6.0000    0    12.011    3.900987   -6.975633    0.067182
  18 C     6.0000    0    12.011   -6.523897    0.810222   -0.087769
  19 C     6.0000    0    12.011   -0.803764   -6.348127    0.021966
  20 C     6.0000    0    12.011   -5.625203   -1.682629   -0.056546
  21 C     6.0000    0    12.011   -3.037624   -4.922724   -0.018183
  22 C     6.0000    0    12.011   -7.164509   -3.913669   -0.110074
  23 C     6.0000    0    12.011   -5.552895   -5.931648   -0.087821
  24 H     1.0000    0     1.008    5.700279    7.263675   -2.097591
  25 H     1.0000    0     1.008    5.675934    7.819230    1.171464
  26 H     1.0000    0     1.008    8.252863    4.204670    1.903986
  27 H     1.0000    0     1.008    8.676008    3.968797   -1.376860
  28 H     1.0000    0     1.008    0.843976    8.550046   -0.280727
  29 H     1.0000    0     1.008    8.366272   -0.864350    0.177180
  30 H     1.0000    0     1.008   -4.105788    9.173008   -0.403884
  31 H     1.0000    0     1.008    7.890024   -5.828357    0.099278
  32 H     1.0000    0     1.008   -8.083481    6.012524   -0.343592
  33 H     1.0000    0     1.008    3.932313   -9.014289    0.024250
  34 H     1.0000    0     1.008   -8.557505    1.037183   -0.153401
  35 H     1.0000    0     1.008   -1.025906   -8.382986   -0.008542
  36 H     1.0000    0     1.008   -9.202601   -3.938785   -0.174411
  37 H     1.0000    0     1.008   -6.027776   -7.914391   -0.129334
  38 Mg   12.0000    0    24.305   -0.083293    0.099455    0.455247
  39 O     8.0000    0    15.999   -0.364532    0.256529    4.463197
  40 C     6.0000    0    12.011   -0.610428   -2.031200    5.907773
  41 H     1.0000    0     1.008   -0.462442   -1.621000    7.923144
  42 H     1.0000    0     1.008   -2.396354   -2.975021    5.494466
  43 H     1.0000    0     1.008    0.941176   -3.248965    5.336188
  44 H     1.0000    0     1.008   -1.719416    1.405595    4.873448

--------------------------------
INTERNAL COORDINATES (ANGSTROEM)
--------------------------------
 N      0   0   0     0.000000000000     0.00000000     0.00000000
 N      1   0   0     2.943949636277     0.00000000     0.00000000
 N      1   2   0     2.946148499232    88.21134590     0.00000000
 N      3   1   2     2.907246434952    91.14198993     0.80283161
 C      1   2   3     2.371118856879   117.10011830   176.79280150
 C      5   1   2     1.534448512060    71.12090132   175.91166090
 C      1   2   3     1.354577457895    80.47202694   178.01529490
 C      1   2   3     1.354704071457   168.62833797   356.20463502
 C      7   1   2     1.376940836683   125.97238426     0.68873382
 C      8   1   7     1.376788137243   125.96531761   182.00158737
 C      2   1   3     1.354304095042    80.66184868   181.85410820
 C      3   1   2     1.353578963404    80.58781068   179.96993997
 C      2   1   3     1.379804097188   171.93876484   349.09599393
 C      3   1   2     1.378810120255   171.92704911    14.75804504
 C     11   2   1     1.441764566729   109.83789674   178.79431866
 C     12   3   1     1.442307415004   109.84848565   181.71568801
 C     15  11   2     1.361639756166   106.86389882   359.68457779
 C     16  12   3     1.361155810741   106.84078305     0.29021032
 C     13   2  11     1.384546538748   125.20083731   178.07371685
 C     14   3  12     1.383914546907   125.24517801   180.62139697
 C      4   3   1     1.365013274327   171.21155813   359.88451756
 C      4   3   1     1.364512920659    81.77084562   178.28357442
 C     21   4  22     1.434633254704   109.71506610     0.19759479
 C     23  21   4     1.366674991535   106.77022387   359.83928216
 H      5   1   2     1.092735193853   119.43986673   281.19030166
 H      5   1   2     1.090717440220   127.80711929    70.72221376
 H      6   5   1     1.092828651342   112.08812518   245.22332488
 H      6   5   1     1.090602632117   113.17325790   124.11915742
 H      9   7   1     1.083133991818   116.39044727   180.03511455
 H     10   8   1     1.083120057504   116.34838826   179.71851417
 H     15  11   2     1.079038418866   125.16727673   180.30258196
 H     16  12   3     1.079021084593   125.17373331   179.74534147
 H     17  15  11     1.079188175336   127.91707386   180.70049503
 H     18  16  12     1.079176897696   127.95076069   179.42051705
 H     19  13   2     1.083377417178   116.37838934   179.83430117
 H     20  14   3     1.083318803477   116.40232892   180.16396833
 H     23  21   4     1.079130505309   125.32542253   180.39681959
 H     24  23  21     1.079119974083   127.89548087   180.53227828
 Mg     3   1   2     2.057247178449    46.12819060   351.70352866
 O     39   3   1     2.127755084101    99.19747955   262.02642680
 C     40  39   3     1.437665363230   120.22834514   318.11017527
 H     41  40  39     1.091168725854   110.22358523   172.04514000
 H     41  40  39     1.091074948927   110.93297683   294.68124893
 H     41  40  39     1.086700590974   106.43713720    53.24365280
 H     40  39   3     0.964840899917   107.51039472   191.16449212

---------------------------
INTERNAL COORDINATES (A.U.)
---------------------------
 N      0   0   0     0.000000000000     0.00000000     0.00000000
 N      1   0   0     5.563258564621     0.00000000     0.00000000
 N      1   2   0     5.567413813412    88.21134590     0.00000000
 N      3   1   2     5.493899565879    91.14198993     0.80283161
 C      1   2   3     4.480765270477   117.10011830   176.79280150
 C      5   1   2     2.899687454396    71.12090132   175.91166090
 C      1   2   3     2.559780422605    80.47202694   178.01529490
 C      1   2   3     2.560019687561   168.62833797   356.20463502
 C      7   1   2     2.602041083943   125.97238426     0.68873382
 C      8   1   7     2.601752523821   125.96531761   182.00158737
 C      2   1   3     2.559263841677    80.66184868   181.85410820
 C      3   1   2     2.557893541471    80.58781068   179.96993997
 C      2   1   3     2.607451862147   171.93876484   349.09599393
 C      3   1   2     2.605573517961   171.92704911    14.75804504
 C     11   2   1     2.724540180709   109.83789674   178.79431866
 C     12   3   1     2.725566015281   109.84848565   181.71568801
 C     15  11   2     2.573126232212   106.86389882   359.68457779
 C     16  12   3     2.572211707897   106.84078305     0.29021032
 C     13   2  11     2.616413777902   125.20083731   178.07371685
 C     14   3  12     2.615219486404   125.24517801   180.62139697
 C      4   3   1     2.579501257645   171.21155813   359.88451756
 C      4   3   1     2.578555726242    81.77084562   178.28357442
 C     21   4  22     2.711063954007   109.71506610     0.19759479
 C     23  21   4     2.582641448080   106.77022387   359.83928216
 H      5   1   2     2.064970253280   119.43986673   281.19030166
 H      5   1   2     2.061157251507   127.80711929    70.72221376
 H      6   5   1     2.065146862339   112.08812518   245.22332488
 H      6   5   1     2.060940295635   113.17325790   124.11915742
 H      9   7   1     2.046826610876   116.39044727   180.03511455
 H     10   8   1     2.046800278840   116.34838826   179.71851417
 H     15  11   2     2.039087099636   125.16727673   180.30258196
 H     16  12   3     2.039054342607   125.17373331   179.74534147
 H     17  15  11     2.039370098351   127.91707386   180.70049503
 H     18  16  12     2.039348786700   127.95076069   179.42051705
 H     19  13   2     2.047286618141   116.37838934   179.83430117
 H     20  14   3     2.047175854298   116.40232892   180.16396833
 H     23  21   4     2.039261117793   125.32542253   180.39681959
 H     24  23  21     2.039241216662   127.89548087   180.53227828
 Mg     3   1   2     3.887633757051    46.12819060   351.70352866
 O     39   3   1     4.020874389010    99.19747955   262.02642680
 C     40  39   3     2.716793808729   120.22834514   318.11017527
 H     41  40  39     2.062010057764   110.22358523   172.04514000
 H     41  40  39     2.061832845054   110.93297683   294.68124893
 H     41  40  39     2.053566506511   106.43713720    53.24365280
 H     40  39   3     1.823285063650   107.51039472   191.16449212

---------------------
BASIS SET INFORMATION
---------------------
There are 5 groups of distinct atoms

 Group   1 Type N   : 11s6p2d1f contracted to 5s3p2d1f pattern {62111/411/11/1}
 Group   2 Type C   : 11s6p2d1f contracted to 5s3p2d1f pattern {62111/411/11/1}
 Group   3 Type H   : 5s1p contracted to 3s1p pattern {311/1}
 Group   4 Type Mg  : 14s8p3d contracted to 5s4p3d pattern {73211/5111/111}
 Group   5 Type O   : 11s6p2d1f contracted to 5s3p2d1f pattern {62111/411/11/1}

Atom   0N    basis set group =>   1
Atom   1N    basis set group =>   1
Atom   2N    basis set group =>   1
Atom   3N    basis set group =>   1
Atom   4C    basis set group =>   2
Atom   5C    basis set group =>   2
Atom   6C    basis set group =>   2
Atom   7C    basis set group =>   2
Atom   8C    basis set group =>   2
Atom   9C    basis set group =>   2
Atom  10C    basis set group =>   2
Atom  11C    basis set group =>   2
Atom  12C    basis set group =>   2
Atom  13C    basis set group =>   2
Atom  14C    basis set group =>   2
Atom  15C    basis set group =>   2
Atom  16C    basis set group =>   2
Atom  17C    basis set group =>   2
Atom  18C    basis set group =>   2
Atom  19C    basis set group =>   2
Atom  20C    basis set group =>   2
Atom  21C    basis set group =>   2
Atom  22C    basis set group =>   2
Atom  23C    basis set group =>   2
Atom  24H    basis set group =>   3
Atom  25H    basis set group =>   3
Atom  26H    basis set group =>   3
Atom  27H    basis set group =>   3
Atom  28H    basis set group =>   3
Atom  29H    basis set group =>   3
Atom  30H    basis set group =>   3
Atom  31H    basis set group =>   3
Atom  32H    basis set group =>   3
Atom  33H    basis set group =>   3
Atom  34H    basis set group =>   3
Atom  35H    basis set group =>   3
Atom  36H    basis set group =>   3
Atom  37H    basis set group =>   3
Atom  38Mg   basis set group =>   4
Atom  39O    basis set group =>   5
Atom  40C    basis set group =>   2
Atom  41H    basis set group =>   3
Atom  42H    basis set group =>   3
Atom  43H    basis set group =>   3
Atom  44H    basis set group =>   3
---------------------------------
AUXILIARY/J BASIS SET INFORMATION
---------------------------------
There are 5 groups of distinct atoms

 Group   1 Type N   : 12s5p4d2f1g contracted to 6s4p3d1f1g pattern {711111/2111/211/2/1}
 Group   2 Type C   : 12s5p4d2f1g contracted to 6s4p3d1f1g pattern {711111/2111/211/2/1}
 Group   3 Type H   : 5s2p1d contracted to 3s1p1d pattern {311/2/1}
 Group   4 Type Mg  : 14s5p5d2f1g contracted to 8s4p4d1f1g pattern {71111111/2111/2111/2/1}
 Group   5 Type O   : 12s5p4d2f1g contracted to 6s4p3d1f1g pattern {711111/2111/211/2/1}

Atom   0N    basis set group =>   1
Atom   1N    basis set group =>   1
Atom   2N    basis set group =>   1
Atom   3N    basis set group =>   1
Atom   4C    basis set group =>   2
Atom   5C    basis set group =>   2
Atom   6C    basis set group =>   2
Atom   7C    basis set group =>   2
Atom   8C    basis set group =>   2
Atom   9C    basis set group =>   2
Atom  10C    basis set group =>   2
Atom  11C    basis set group =>   2
Atom  12C    basis set group =>   2
Atom  13C    basis set group =>   2
Atom  14C    basis set group =>   2
Atom  15C    basis set group =>   2
Atom  16C    basis set group =>   2
Atom  17C    basis set group =>   2
Atom  18C    basis set group =>   2
Atom  19C    basis set group =>   2
Atom  20C    basis set group =>   2
Atom  21C    basis set group =>   2
Atom  22C    basis set group =>   2
Atom  23C    basis set group =>   2
Atom  24H    basis set group =>   3
Atom  25H    basis set group =>   3
Atom  26H    basis set group =>   3
Atom  27H    basis set group =>   3
Atom  28H    basis set group =>   3
Atom  29H    basis set group =>   3
Atom  30H    basis set group =>   3
Atom  31H    basis set group =>   3
Atom  32H    basis set group =>   3
Atom  33H    basis set group =>   3
Atom  34H    basis set group =>   3
Atom  35H    basis set group =>   3
Atom  36H    basis set group =>   3
Atom  37H    basis set group =>   3
Atom  38Mg   basis set group =>   4
Atom  39O    basis set group =>   5
Atom  40C    basis set group =>   2
Atom  41H    basis set group =>   3
Atom  42H    basis set group =>   3
Atom  43H    basis set group =>   3
Atom  44H    basis set group =>   3


           ************************************************************
           *        Program running with 4 parallel MPI-processes     *
           *              working on a common directory               *
           ************************************************************
------------------------------------------------------------------------------
                             ORCA STARTUP CALCULATIONS
                           -- RI-GTO INTEGRALS CHOSEN --
------------------------------------------------------------------------------
------------------------------------------------------------------------------
                   ___                                                        
                  /   \      - P O W E R E D   B Y -                         
                 /     \                                                     
                 |  |  |   _    _      __       _____    __    __             
                 |  |  |  | |  | |    /  \     |  _  \  |  |  /  |          
                  \  \/   | |  | |   /    \    | | | |  |  | /  /          
                 / \  \   | |__| |  /  /\  \   | |_| |  |  |/  /          
                |  |  |   |  __  | /  /__\  \  |    /   |      \           
                |  |  |   | |  | | |   __   |  |    \   |  |\   \          
                \     /   | |  | | |  |  |  |  | |\  \  |  | \   \       
                 \___/    |_|  |_| |__|  |__|  |_| \__\ |__|  \__/        
                                                                              
                      - O R C A' S   B I G   F R I E N D -                    
                                      &                                       
                       - I N T E G R A L  F E E D E R -                       
                                                                              
 v1 FN, 2020, v2 2021, v3 2022-2024                                           
------------------------------------------------------------------------------


----------------------
SHARK INTEGRAL PACKAGE
----------------------

Number of atoms                             ...     45
Number of basis functions                   ...    946
Number of shells                            ...    370
Maximum angular momentum                    ...      3
Integral batch strategy                     ... SHARK/LIBINT Hybrid
RI-J (if used) integral strategy            ... SPLIT-RIJ (Revised 2003 algorithm where possible)
Printlevel                                  ...      1
Contraction scheme used                     ... SEGMENTED contraction
Prescreening option                         ... SCHWARTZ
   Thresh                                   ... 2.500e-11
   Tcut                                     ... 2.500e-12
   Tpresel                                  ... 2.500e-12 
Coulomb Range Separation                    ... NOT USED
Exchange Range Separation                   ... Long Range
   Mu parameter                             ... 2.500e-01
   Scaling (regular/separated)              ... 1.957e-01 8.043e-01
Robust (split-)RI terms used:
  metric    (central integrals)             ... YES
  density   (r.h.s.  integrals)             ... YES
  potential (l.h.s.  integrals)             ... YES
Multipole approximations                    ... NOT USED
Finite Nucleus Model                        ... NOT USED
CABS basis                                  ... NOT available
Auxiliary Coulomb fitting basis             ... AVAILABLE
   # of basis functions in Aux-J            ...   1528
   # of shells in Aux-J                     ...    498
   Maximum angular momentum in Aux-J        ...      4
Auxiliary J/K fitting basis                 ... NOT available
Auxiliary Correlation fitting basis         ... NOT available
Auxiliary 'external' fitting basis          ... NOT available

Checking pre-screening integrals            ... done (  0.0 sec) Dimension = 370
   => SHARK Basis and OBASIS are compatible. Storing Pre-screening
Shell pair information
Shell pair cut-off parameter TPreSel        ...   2.5e-12
Total number of shell pairs                 ...     68635
Shell pairs after pre-screening             ...     48682
Total number of primitive shell pairs       ...    214192
Primitive shell pairs kept                  ...     98342
          la=0 lb=0:  12091 shell pairs
          la=1 lb=0:  14017 shell pairs
          la=1 lb=1:   4036 shell pairs
          la=2 lb=0:   7126 shell pairs
          la=2 lb=1:   4229 shell pairs
          la=2 lb=2:   1138 shell pairs
          la=3 lb=0:   3039 shell pairs
          la=3 lb=1:   1867 shell pairs
          la=3 lb=2:    933 shell pairs
          la=3 lb=3:    206 shell pairs

Checking whether 4 symmetric matrices of dimension 946 fit in memory
:Max Core in MB      =   3000.00
 MB in use           =     62.14
 MB left             =   2937.86
 MB needed           =     13.67
 Data fit in memory  = YES
Calculating RI/J V-Matrix + Cholesky decomp.... done (  0.9 sec)
Calculating Nuclear repulsion               ... done (  0.0 sec) ENN=   2586.255132687129 Eh

Diagonalization of the overlap matrix:
Smallest eigenvalue                        ... 1.011e-05
Time for diagonalization                   ...    0.420 sec
Threshold for overlap eigenvalues          ... 1.000e-07
Number of eigenvalues below threshold      ... 0
Time for construction of square roots      ...    0.227 sec
Total time needed                          ...    0.662 sec

-------------------
DFT GRID GENERATION
-------------------

General Integration Accuracy     IntAcc      ... 4.959
Radial Grid Type                 RadialGrid  ... OptM3 with GC (2021)
Angular Grid (max. ang.)         AngularGrid ... 6 (Lebedev-590)
Angular grid pruning method      GridPruning ... 4 (adaptive)
Weight generation scheme         WeightScheme... mBecke (2022)
Basis function cutoff            BFCut       ... 1.0000e-11
Integration weight cutoff        WCut        ... 1.0000e-14
Partially contracted basis set               ... off
Rotationally invariant grid construction     ... off
Angular grids for H and He will be reduced by one unit

Total number of grid points                  ...   533935
Total number of batches                      ...     8367
Average number of points per batch           ...       63
Average number of grid points per atom       ...    11865

--------------------
COSX GRID GENERATION
--------------------

GRIDX 1
-------
General Integration Accuracy     IntAcc      ... 4.020
Radial Grid Type                 RadialGrid  ... OptM3 with GC (2021)
Angular Grid (max. ang.)         AngularGrid ... 2 (Lebedev-110)
Angular grid pruning method      GridPruning ... 4 (adaptive)
Weight generation scheme         WeightScheme... mBecke (2022)
Basis function cutoff            BFCut       ... 1.0000e-11
Integration weight cutoff        WCut        ... 1.0000e-14
Partially contracted basis set               ... on
Rotationally invariant grid construction     ... off
Angular grids for H and He will be reduced by one unit

Total number of grid points                  ...    60163
Total number of batches                      ...      491
Average number of points per batch           ...      122
Average number of grid points per atom       ...     1337
UseSFitting                                  ... on

GRIDX 2
-------
General Integration Accuracy     IntAcc      ... 4.338
Radial Grid Type                 RadialGrid  ... OptM3 with GC (2021)
Angular Grid (max. ang.)         AngularGrid ... 3 (Lebedev-194)
Angular grid pruning method      GridPruning ... 4 (adaptive)
Weight generation scheme         WeightScheme... mBecke (2022)
Basis function cutoff            BFCut       ... 1.0000e-11
Integration weight cutoff        WCut        ... 1.0000e-14
Partially contracted basis set               ... on
Rotationally invariant grid construction     ... off
Angular grids for H and He will be reduced by one unit

Total number of grid points                  ...   131937
Total number of batches                      ...     1050
Average number of points per batch           ...      125
Average number of grid points per atom       ...     2932
UseSFitting                                  ... on

GRIDX 3
-------
General Integration Accuracy     IntAcc      ... 4.871
Radial Grid Type                 RadialGrid  ... OptM3 with GC (2021)
Angular Grid (max. ang.)         AngularGrid ... 4 (Lebedev-302)
Angular grid pruning method      GridPruning ... 4 (adaptive)
Weight generation scheme         WeightScheme... mBecke (2022)
Basis function cutoff            BFCut       ... 1.0000e-11
Integration weight cutoff        WCut        ... 1.0000e-14
Partially contracted basis set               ... on
Rotationally invariant grid construction     ... off
Angular grids for H and He will be reduced by one unit

Total number of grid points                  ...   244368
Total number of batches                      ...     1933
Average number of points per batch           ...      126
Average number of grid points per atom       ...     5430
UseSFitting                                  ... on
Grids setup in  40.6 sec
Initializing property integral containers    ... done (  0.0 sec)

SHARK setup successfully completed in  47.8 seconds

Maximum memory used throughout the entire STARTUP-calculation: 180.2 MB


           ************************************************************
           *        Program running with 4 parallel MPI-processes     *
           *              working on a common directory               *
           ************************************************************
-------------------------------------------------------------------------------
                                 ORCA GUESS
                   Start orbitals & Density for SCF / CASSCF
-------------------------------------------------------------------------------

------------
SCF SETTINGS
------------
Hamiltonian:
 Density Functional     Method          .... DFT(GTOs)
 Exchange Functional    Exchange        .... WB97X-D3
 Correlation Functional Correlation     .... WB97X-D3
 Gradients option       PostSCFGGA      .... off
 Hybrid DFT is turned on
   Fraction HF Exchange ScalHFX         ....  0.195728
   Scaling of DF-GGA-X  ScalDFX         ....  0.000000
   Scaling of DF-GGA-C  ScalDFC         ....  1.000000
   Scaling of DF-LDA-C  ScalLDAC        ....  1.000000
   Perturbative correction              ....  0.000000
 Long-range corrected/Screened/Range-Separated Hybrid DFT is turned on
   Amount of maximum screened exact exchange              ....  0.804272
   Range separation parameter mu (erf(mu*r12)/r12)        ....  0.250000
 RI-approximation to the Coulomb term is turned on
   Number of AuxJ basis functions       .... 1528
   RIJ-COSX (HFX calculated with COS-X)).... on


General Settings:
 Integral files         IntName         .... tddft
 Hartree-Fock type      HFTyp           .... RHF
 Total Charge           Charge          ....    0
 Multiplicity           Mult            ....    1
 Number of Electrons    NEL             ....  192
 Basis Dimension        Dim             ....  946
 Nuclear Repulsion      ENuc            ....   2586.2551326871 Eh

Convergence Acceleration:
 AO-DIIS                CNVDIIS         .... on
   Start iteration      DIISMaxIt       ....    12
   Startup error        DIISStart       ....  0.200000
   # of expansion vecs  DIISMaxEq       ....     5
   Bias factor          DIISBfac        ....   1.050
   Max. coefficient     DIISMaxC        ....  10.000
 MO-DIIS                CNVKDIIS        .... off
 Trust-Rad. Augm. Hess. CNVTRAH         .... auto
   Auto Start mean grad. ratio tolernc. ....  1.125000
   Auto Start start iteration           ....    50
   Auto Start num. interpolation iter.  ....    10
   Max. Number of Micro iterations      ....    24
   Max. Number of Macro iterations      .... Maxiter - #DIIS iter
   Number of Davidson start vectors     ....     2
   Converg. threshold    (grad. norm)   ....   1.000e-05
   Grad. Scal. Fac. for Micro threshold ....   0.100
   Minimum threshold for Micro iter.    ....   1.000e-02
   NR start threshold (gradient norm)   ....   1.000e-04
   Initial trust radius                 ....   0.400
   Minimum AH scaling param. (alpha)    ....   1.000
   Maximum AH scaling param. (alpha)    .... 1000.000
   Quad. conv. algorithm                .... NR
   White noise on init. David. guess    .... on
   Maximum white noise                  ....   0.010
   Pseudo random numbers                .... off
   Inactive MOs                         .... canonical
   Orbital update algorithm             .... Taylor
   Preconditioner                       .... Diag
   Full preconditioner red. dimension   ....   250
 SOSCF                 CNVSOSCF           .... on
   Start iteration     SOSCFMaxIt         ....   150
   Startup grad/error  SOSCFStart         ....  0.003300
   Hessian update      SOSCFHessUp        .... L-BFGS
   Autom. constraints  SOSCFAutoConstrain .... off
 Level Shifting         CNVShift        .... on
   Level shift para.    LevelShift      ....    0.2500
   Turn off err/grad.   ShiftErr        ....    0.0010
 Zerner damping         CNVZerner       .... off
 Static damping         CNVDamp         .... on
   Fraction old density DampFac         ....    0.7000
   Max. Damping (<1)    DampMax         ....    0.9800
   Min. Damping (>=0)   DampMin         ....    0.0000
   Turn off err/grad.   DampErr         ....    0.1000

SCF Procedure:
 Maximum # iterations   MaxIter         ....   125
 SCF integral mode      SCFMode         .... Direct
   Integral package                     .... SHARK and LIBINT hybrid scheme
 Reset frequency        DirectResetFreq ....    20
 Integral Threshold     Thresh          ....  2.500e-11 Eh
 Primitive CutOff       TCut            ....  2.500e-12 Eh

Convergence Tolerance:
 Convergence Check Mode ConvCheckMode   .... Total+1el-Energy
 Convergence forced     ConvForced      .... 1
 Energy Change          TolE            ....  1.000e-08 Eh
 1-El. energy change                    ....  1.000e-05 Eh
 Orbital Gradient       TolG            ....  1.000e-05
 Orbital Rotation angle TolX            ....  1.000e-05
 DIIS Error             TolErr          ....  5.000e-07

------------------------------
INITIAL GUESS: MODEL POTENTIAL
------------------------------
Loading Hartree-Fock densities                     ... done
Calculating cut-offs                               ... done
Initializing the effective Hamiltonian             ... done
Setting up the integral package (SHARK)            ... done
Starting the Coulomb interaction                   ... done (   3.6 sec)
Making the grid                                    ... done (   1.6 sec)
Mapping shells                                     ... done
Starting the XC term evaluation                    ... done (   5.1 sec)
  promolecular density results
     # of electrons  =    191.993554049
     EX              =   -163.178308982
     EC              =     -6.513574054
     EX+EC           =   -169.691883037
Transforming the Hamiltonian                       ... done (   0.7 sec)
Diagonalizing the Hamiltonian                      ... done (   0.4 sec)
Back transforming the eigenvectors                 ... done (   0.1 sec)
Now organizing SCF variables                       ... done
                      ------------------
                      INITIAL GUESS DONE (  11.6 sec)
                      ------------------
             **** ENERGY FILE WAS UPDATED (tddft.en.tmp) ****
Finished Guess after  12.4 sec
Maximum memory used throughout the entire GUESS-calculation: 104.2 MB


           ************************************************************
           *        Program running with 4 parallel MPI-processes     *
           *              working on a common directory               *
           ************************************************************

-------------------------------------------------------------------------------------------
                                      ORCA LEAN-SCF
                              memory conserving SCF solver
-------------------------------------------------------------------------------------------

--------------------
CPCM SOLVATION MODEL
--------------------
CPCM parameters:
  Epsilon                                         ...       8.9990
  Refrac                                          ...       1.4242
  Rsolv                                           ...       1.3000
  Surface type                                    ... GAUSSIAN VDW
  Discretization scheme                           ... Constant charge density
    Threshold for H atoms                         ...       5.0000 (charges/Ang^2)
    Threshold for non-H atoms                     ...       5.0000 (charges/Ang^2)
  Epsilon function type                           ...         CPCM
Solvent:                                          ... DICHLOROMETHANE
Radii:
  Scheme                                          ... Element-dependent radii
  Radius for N  used is    3.5149 Bohr (=   1.8600 Ang.)
  Radius for C  used is    3.8550 Bohr (=   2.0400 Ang.)
  Radius for H  used is    2.4944 Bohr (=   1.3200 Ang.)
  Radius for Mg used is    3.9231 Bohr (=   2.0760 Ang.)
  Radius for O  used is    3.4469 Bohr (=   1.8240 Ang.)
Calculating surface                               ...        done! (  0.0s)
Cavity surface points                             ...         3952
Cavity Volume                                     ...    2800.1199
Cavity Surface-area                               ...    1332.7310
Calculating surface distance matrix               ...        done! (  0.7s)
Performing Cholesky decomposition & store         ...        done! (  6.1s)
Overall time for CPCM initialization              ...                 6.8s

----------------------------------------D-I-I-S--------------------------------------------
Iteration    Energy (Eh)           Delta-E    RMSDP     MaxDP     DIISErr   Damp  Time(sec)
-------------------------------------------------------------------------------------------
               ***  Starting incremental Fock matrix formation  ***
    1    -1305.0018564660072116     0.00e+00  1.58e-03  3.60e-02  2.20e-01  0.700 305.4
    2    -1305.2374199527084784    -2.36e-01  1.28e-03  2.65e-02  1.21e-01  0.700 140.3
                               ***Turning on AO-DIIS***
    3    -1305.3613877281977693    -1.24e-01  8.08e-04  2.24e-02  5.55e-02  0.700 123.6
    4    -1305.4363076666868437    -7.49e-02  1.80e-03  4.87e-02  3.84e-02  0.000 120.9
    5    -1305.5978590223230640    -1.62e-01  2.12e-04  7.15e-03  5.08e-03  0.000 131.8
                              *** Initializing SOSCF ***
---------------------------------------S-O-S-C-F--------------------------------------
Iteration    Energy (Eh)           Delta-E    RMSDP     MaxDP     MaxGrad    Time(sec)
--------------------------------------------------------------------------------------
    6    -1305.5984595117420213    -6.00e-04  1.00e-04  3.88e-03  2.57e-03   123.3
               *** Restarting incremental Fock matrix formation ***
    7    -1305.5986445516118692    -1.85e-04  9.73e-05  2.67e-03  2.42e-03   289.8
    8    -1305.5988206858460217    -1.76e-04  1.65e-04  5.12e-03  1.47e-03   203.6
    9    -1305.5989571967625125    -1.37e-04  4.85e-05  1.35e-03  6.61e-04   217.9
   10    -1305.5989725407866899    -1.53e-05  1.92e-05  6.28e-04  3.35e-04   218.5
   11    -1305.5989796232233857    -7.08e-06  9.19e-06  2.85e-04  7.04e-05   191.2
   12    -1305.5989803498928268    -7.27e-07  5.73e-06  1.31e-04  5.74e-05   166.6
   13    -1305.5989806153866084    -2.65e-07  5.06e-06  2.07e-04  7.60e-06   154.9
   14    -1305.5989805984058876     1.70e-08  4.25e-06  1.92e-04  4.59e-06   144.5
   15    -1305.5989806049169601    -6.51e-09  5.71e-06  1.90e-04  2.54e-06   147.1
                 **** Energy Check signals convergence ****

               *****************************************************
               *                     SUCCESS                       *
               *           SCF CONVERGED AFTER  15 CYCLES          *
               *****************************************************

Recomputing exchange energy using gridx3       ... done (  433.920 sec)
Old exchange energy                            :    -53.124468922 Eh
New exchange energy                            :    -53.124474976 Eh
Exchange energy change after final integration :     -0.000006054 Eh
Total energy after final integration           :  -1305.598986653 Eh
             **** ENERGY FILE WAS UPDATED (tddft.en.tmp) ****

----------------
TOTAL SCF ENERGY
----------------

Total Energy       :      -1305.59898665339006 Eh          -35527.15459 eV

Components:
Nuclear Repulsion  :       2586.25513268712893 Eh           70375.57999 eV
Electronic Energy  :      -3891.83479156395379 Eh         -105902.20864 eV
One Electron Energy:      -6927.47587322415438 Eh         -188506.20198 eV
Two Electron Energy:       3035.64108166020060 Eh           82603.99334 eV
CPCM Dielectric    :         -0.01932172267238 Eh              -0.52577 eV

Virial components:
Potential Energy   :      -2605.47913099560083 Eh          -70898.69157 eV
Kinetic Energy     :       1299.88014434221100 Eh           35371.53698 eV
Virial Ratio       :          2.00439951509073

DFT components:
N(Alpha)           :       95.999987708379 electrons
N(Beta)            :       95.999987708379 electrons
N(Total)           :      191.999975416758 electrons
E(XC)              :     -120.486875176965 Eh       

CPCM Solvation Model Properties:
Surface-charge          :         -0.03718113602163
Corrected charge        :         -0.00000000000000
Outlying charge corr.   :          0.00006394074229 Eh               0.00174 eV
Free-energy (cav+disp)  :  This term is not implemented in the current solvation scheme

---------------
SCF CONVERGENCE
---------------

  Last Energy change         ...    6.5111e-09  Tolerance :   1.0000e-08
  Last MAX-Density change    ...    1.8987e-04  Tolerance :   1.0000e-07
  Last RMS-Density change    ...    5.7052e-06  Tolerance :   5.0000e-09
  Last DIIS Error            ...    2.5688e-03  Tolerance :   5.0000e-07
  Last Orbital Gradient      ...    2.5360e-06  Tolerance :   1.0000e-05
  Last Orbital Rotation      ...    1.1952e-05  Tolerance :   1.0000e-05


----------------
ORBITAL ENERGIES
----------------

  NO   OCC          E(Eh)            E(eV) 
   0   2.0000     -46.834294     -1274.4259 
   1   2.0000     -19.263949      -524.1987 
   2   2.0000     -14.419427      -392.3726 
   3   2.0000     -14.404391      -391.9634 
   4   2.0000     -14.402265      -391.9055 
   5   2.0000     -14.402213      -391.9041 
   6   2.0000     -10.323117      -280.9063 
   7   2.0000     -10.323015      -280.9035 
   8   2.0000     -10.321693      -280.8675 
   9   2.0000     -10.315630      -280.7026 
  10   2.0000     -10.315442      -280.6975 
  11   2.0000     -10.304166      -280.3906 
  12   2.0000     -10.304021      -280.3867 
  13   2.0000     -10.300889      -280.3014 
  14   2.0000     -10.300783      -280.2985 
  15   2.0000     -10.290676      -280.0235 
  16   2.0000     -10.290283      -280.0128 
  17   2.0000     -10.279667      -279.7239 
  18   2.0000     -10.279643      -279.7233 
  19   2.0000     -10.278712      -279.6980 
  20   2.0000     -10.278519      -279.6927 
  21   2.0000     -10.272522      -279.5295 
  22   2.0000     -10.272499      -279.5289 
  23   2.0000     -10.269533      -279.4482 
  24   2.0000     -10.268832      -279.4291 
  25   2.0000     -10.264461      -279.3102 
  26   2.0000     -10.264433      -279.3094 
  27   2.0000      -3.143913       -85.5502 
  28   2.0000      -1.880613       -51.1741 
  29   2.0000      -1.877331       -51.0848 
  30   2.0000      -1.877106       -51.0787 
  31   2.0000      -1.162611       -31.6363 
  32   2.0000      -1.078547       -29.3488 
  33   2.0000      -1.069650       -29.1067 
  34   2.0000      -1.069355       -29.0986 
  35   2.0000      -1.059543       -28.8316 
  36   2.0000      -0.929340       -25.2886 
  37   2.0000      -0.903354       -24.5815 
  38   2.0000      -0.900591       -24.5063 
  39   2.0000      -0.885152       -24.0862 
  40   2.0000      -0.878435       -23.9034 
  41   2.0000      -0.876936       -23.8626 
  42   2.0000      -0.870274       -23.6814 
  43   2.0000      -0.847741       -23.0682 
  44   2.0000      -0.828444       -22.5431 
  45   2.0000      -0.809784       -22.0353 
  46   2.0000      -0.766181       -20.8488 
  47   2.0000      -0.761075       -20.7099 
  48   2.0000      -0.717171       -19.5152 
  49   2.0000      -0.684741       -18.6328 
  50   2.0000      -0.676976       -18.4214 
  51   2.0000      -0.673771       -18.3342 
  52   2.0000      -0.671324       -18.2677 
  53   2.0000      -0.653991       -17.7960 
  54   2.0000      -0.639286       -17.3959 
  55   2.0000      -0.631500       -17.1840 
  56   2.0000      -0.622643       -16.9430 
  57   2.0000      -0.615258       -16.7420 
  58   2.0000      -0.602476       -16.3942 
  59   2.0000      -0.598240       -16.2789 
  60   2.0000      -0.589264       -16.0347 
  61   2.0000      -0.577244       -15.7076 
  62   2.0000      -0.565062       -15.3761 
  63   2.0000      -0.550182       -14.9712 
  64   2.0000      -0.537283       -14.6202 
  65   2.0000      -0.531278       -14.4568 
  66   2.0000      -0.525022       -14.2866 
  67   2.0000      -0.519122       -14.1260 
  68   2.0000      -0.515794       -14.0355 
  69   2.0000      -0.510878       -13.9017 
  70   2.0000      -0.501806       -13.6548 
  71   2.0000      -0.501287       -13.6407 
  72   2.0000      -0.500585       -13.6216 
  73   2.0000      -0.479245       -13.0409 
  74   2.0000      -0.476750       -12.9730 
  75   2.0000      -0.473073       -12.8730 
  76   2.0000      -0.470572       -12.8049 
  77   2.0000      -0.466137       -12.6842 
  78   2.0000      -0.460817       -12.5395 
  79   2.0000      -0.458784       -12.4841 
  80   2.0000      -0.456907       -12.4331 
  81   2.0000      -0.450410       -12.2563 
  82   2.0000      -0.447277       -12.1710 
  83   2.0000      -0.445622       -12.1260 
  84   2.0000      -0.414646       -11.2831 
  85   2.0000      -0.409835       -11.1522 
  86   2.0000      -0.402002       -10.9390 
  87   2.0000      -0.395953       -10.7744 
  88   2.0000      -0.370268       -10.0755 
  89   2.0000      -0.366059        -9.9610 
  90   2.0000      -0.356634        -9.7045 
  91   2.0000      -0.344436        -9.3726 
  92   2.0000      -0.334702        -9.1077 
  93   2.0000      -0.331720        -9.0265 
  94   2.0000      -0.259735        -7.0677 
  95   2.0000      -0.242335        -6.5943 
  96   0.0000      -0.036672        -0.9979 
  97   0.0000      -0.010107        -0.2750 
  98   0.0000       0.075300         2.0490 
  99   0.0000       0.077196         2.1006 
 100   0.0000       0.108015         2.9392 
 101   0.0000       0.118135         3.2146 
 102   0.0000       0.123320         3.3557 
 103   0.0000       0.132010         3.5922 
 104   0.0000       0.132921         3.6170 
 105   0.0000       0.145821         3.9680 
 106   0.0000       0.146633         3.9901 
*Only the first 10 virtual orbitals were printed.

                    ********************************
                    * MULLIKEN POPULATION ANALYSIS *
                    ********************************

-----------------------
MULLIKEN ATOMIC CHARGES
-----------------------
   0 N :   -0.386875
   1 N :   -0.417127
   2 N :   -0.399847
   3 N :   -0.367320
   4 C :   -0.159026
   5 C :   -0.158898
   6 C :    0.207920
   7 C :    0.199405
   8 C :   -0.457058
   9 C :   -0.452803
  10 C :    0.319071
  11 C :    0.312312
  12 C :    0.234609
  13 C :    0.222402
  14 C :   -0.252892
  15 C :   -0.254001
  16 C :   -0.229569
  17 C :   -0.220089
  18 C :   -0.314406
  19 C :   -0.326593
  20 C :    0.238999
  21 C :    0.226572
  22 C :   -0.256765
  23 C :   -0.242578
  24 H :    0.128595
  25 H :    0.137383
  26 H :    0.127677
  27 H :    0.137813
  28 H :    0.152248
  29 H :    0.151915
  30 H :    0.157185
  31 H :    0.157324
  32 H :    0.160549
  33 H :    0.160217
  34 H :    0.164234
  35 H :    0.163048
  36 H :    0.154068
  37 H :    0.153733
  38 Mg:    0.685110
  39 O :   -0.493707
  40 C :   -0.212852
  41 H :    0.155820
  42 H :    0.147571
  43 H :    0.156073
  44 H :    0.390552
Sum of atomic charges:   -0.0000000

--------------------------------
MULLIKEN REDUCED ORBITAL CHARGES
--------------------------------
  0 N s       :     3.657905  s :     3.657905
      pz      :     1.305630  p :     3.663845
      px      :     1.211144
      py      :     1.147071
      dz2     :     0.004672  d :     0.061524
      dxz     :     0.008967
      dyz     :     0.010348
      dx2y2   :     0.020295
      dxy     :     0.017242
      f0      :     0.000673  f :     0.003601
      f+1     :     0.000318
      f-1     :     0.000357
      f+2     :     0.000452
      f-2     :     0.000126
      f+3     :     0.000977
      f-3     :     0.000698

  1 N s       :     3.656947  s :     3.656947
      pz      :     1.369952  p :     3.696382
      px      :     1.137569
      py      :     1.188861
      dz2     :     0.004713  d :     0.060166
      dxz     :     0.010182
      dyz     :     0.009238
      dx2y2   :     0.019485
      dxy     :     0.016549
      f0      :     0.000669  f :     0.003631
      f+1     :     0.000386
      f-1     :     0.000354
      f+2     :     0.000581
      f-2     :     0.000105
      f+3     :     0.000679
      f-3     :     0.000858

  2 N s       :     3.650040  s :     3.650040
      pz      :     1.370151  p :     3.685912
      px      :     1.130202
      py      :     1.185559
      dz2     :     0.004682  d :     0.060248
      dxz     :     0.010894
      dyz     :     0.008504
      dx2y2   :     0.019076
      dxy     :     0.017091
      f0      :     0.000685  f :     0.003646
      f+1     :     0.000372
      f-1     :     0.000366
      f+2     :     0.000564
      f-2     :     0.000118
      f+3     :     0.000630
      f-3     :     0.000911

  3 N s       :     3.645726  s :     3.645726
      pz      :     1.323174  p :     3.655275
      px      :     1.199515
      py      :     1.132587
      dz2     :     0.004688  d :     0.062615
      dxz     :     0.009808
      dyz     :     0.011881
      dx2y2   :     0.019425
      dxy     :     0.016813
      f0      :     0.000677  f :     0.003704
      f+1     :     0.000348
      f-1     :     0.000367
      f+2     :     0.000664
      f-2     :     0.000111
      f+3     :     0.000884
      f-3     :     0.000654

  4 C s       :     3.142598  s :     3.142598
      pz      :     1.062612  p :     2.932461
      px      :     0.879836
      py      :     0.990012
      dz2     :     0.005505  d :     0.078490
      dxz     :     0.015861
      dyz     :     0.015483
      dx2y2   :     0.024330
      dxy     :     0.017310
      f0      :     0.000653  f :     0.005478
      f+1     :     0.000186
      f-1     :     0.000961
      f+2     :     0.000334
      f-2     :     0.000729
      f+3     :     0.001287
      f-3     :     0.001327

  5 C s       :     3.144232  s :     3.144232
      pz      :     1.060678  p :     2.930668
      px      :     0.981745
      py      :     0.888245
      dz2     :     0.005200  d :     0.078520
      dxz     :     0.015469
      dyz     :     0.016255
      dx2y2   :     0.023856
      dxy     :     0.017739
      f0      :     0.000602  f :     0.005479
      f+1     :     0.001036
      f-1     :     0.000164
      f+2     :     0.000251
      f-2     :     0.000810
      f+3     :     0.001045
      f-3     :     0.001570

  6 C s       :     3.131484  s :     3.131484
      pz      :     0.845854  p :     2.485057
      px      :     0.901634
      py      :     0.737569
      dz2     :     0.001779  d :     0.161427
      dxz     :     0.028412
      dyz     :     0.039731
      dx2y2   :     0.042933
      dxy     :     0.048572
      f0      :     0.002048  f :     0.014113
      f+1     :     0.000786
      f-1     :     0.001071
      f+2     :     0.001769
      f-2     :     0.001211
      f+3     :     0.005215
      f-3     :     0.002013

  7 C s       :     3.133068  s :     3.133068
      pz      :     0.846670  p :     2.491744
      px      :     0.767821
      py      :     0.877253
      dz2     :     0.001541  d :     0.161662
      dxz     :     0.034602
      dyz     :     0.033806
      dx2y2   :     0.043372
      dxy     :     0.048340
      f0      :     0.002070  f :     0.014121
      f+1     :     0.001038
      f-1     :     0.000782
      f+2     :     0.001532
      f-2     :     0.001449
      f+3     :     0.003506
      f-3     :     0.003743

  8 C s       :     3.327192  s :     3.327192
      pz      :     1.134898  p :     3.055246
      px      :     0.909450
      py      :     1.010898
      dz2     :     0.002807  d :     0.067312
      dxz     :     0.021243
      dyz     :     0.003425
      dx2y2   :     0.030545
      dxy     :     0.009292
      f0      :     0.001530  f :     0.007307
      f+1     :     0.000730
      f-1     :     0.000679
      f+2     :     0.000428
      f-2     :     0.000726
      f+3     :     0.002116
      f-3     :     0.001099

  9 C s       :     3.327232  s :     3.327232
      pz      :     1.135073  p :     3.051233
      px      :     0.998173
      py      :     0.917986
      dz2     :     0.002806  d :     0.067031
      dxz     :     0.003360
      dyz     :     0.021268
      dx2y2   :     0.030884
      dxy     :     0.008713
      f0      :     0.001532  f :     0.007308
      f+1     :     0.000687
      f-1     :     0.000728
      f+2     :     0.000440
      f-2     :     0.000703
      f+3     :     0.001201
      f-3     :     0.002016

 10 C s       :     3.108360  s :     3.108360
      pz      :     0.860624  p :     2.396513
      px      :     0.787923
      py      :     0.747966
      dz2     :     0.002657  d :     0.161456
      dxz     :     0.035336
      dyz     :     0.035908
      dx2y2   :     0.041242
      dxy     :     0.046312
      f0      :     0.002212  f :     0.014601
      f+1     :     0.000861
      f-1     :     0.001062
      f+2     :     0.001915
      f-2     :     0.001208
      f+3     :     0.004118
      f-3     :     0.003225

 11 C s       :     3.114774  s :     3.114774
      pz      :     0.860149  p :     2.396040
      px      :     0.736281
      py      :     0.799611
      dz2     :     0.002370  d :     0.162239
      dxz     :     0.039470
      dyz     :     0.032367
      dx2y2   :     0.041309
      dxy     :     0.046723
      f0      :     0.002250  f :     0.014636
      f+1     :     0.001061
      f-1     :     0.000820
      f+2     :     0.002373
      f-2     :     0.000752
      f+3     :     0.002073
      f-3     :     0.005307

 12 C s       :     3.106115  s :     3.106115
      pz      :     0.958658  p :     2.492981
      px      :     0.728243
      py      :     0.806079
      dz2     :     0.003494  d :     0.152050
      dxz     :     0.036874
      dyz     :     0.026735
      dx2y2   :     0.040771
      dxy     :     0.044175
      f0      :     0.002204  f :     0.014246
      f+1     :     0.001091
      f-1     :     0.000856
      f+2     :     0.002254
      f-2     :     0.000573
      f+3     :     0.002055
      f-3     :     0.005214

 13 C s       :     3.113000  s :     3.113000
      pz      :     0.964327  p :     2.497631
      px      :     0.788757
      py      :     0.744548
      dz2     :     0.003592  d :     0.152642
      dxz     :     0.028599
      dyz     :     0.035335
      dx2y2   :     0.039878
      dxy     :     0.045237
      f0      :     0.002249  f :     0.014325
      f+1     :     0.000878
      f-1     :     0.001060
      f+2     :     0.001723
      f-2     :     0.001104
      f+3     :     0.004149
      f-3     :     0.003163

 14 C s       :     3.272895  s :     3.272895
      pz      :     1.027529  p :     2.891067
      px      :     0.916919
      py      :     0.946619
      dz2     :     0.004944  d :     0.081235
      dxz     :     0.019268
      dyz     :     0.007579
      dx2y2   :     0.029307
      dxy     :     0.020136
      f0      :     0.001536  f :     0.007695
      f+1     :     0.000520
      f-1     :     0.000839
      f+2     :     0.000081
      f-2     :     0.001208
      f+3     :     0.002252
      f-3     :     0.001260

 15 C s       :     3.273302  s :     3.273302
      pz      :     1.027095  p :     2.891904
      px      :     0.956835
      py      :     0.907974
      dz2     :     0.004943  d :     0.081103
      dxz     :     0.009090
      dyz     :     0.017629
      dx2y2   :     0.031009
      dxy     :     0.018432
      f0      :     0.001545  f :     0.007692
      f+1     :     0.000807
      f-1     :     0.000553
      f+2     :     0.000374
      f-2     :     0.000887
      f+3     :     0.001929
      f-3     :     0.001597

 16 C s       :     3.280264  s :     3.280264
      pz      :     0.970334  p :     2.855274
      px      :     0.966135
      py      :     0.918805
      dz2     :     0.004807  d :     0.086236
      dxz     :     0.010040
      dyz     :     0.022777
      dx2y2   :     0.030354
      dxy     :     0.018258
      f0      :     0.001513  f :     0.007794
      f+1     :     0.000779
      f-1     :     0.000542
      f+2     :     0.000532
      f-2     :     0.000932
      f+3     :     0.001944
      f-3     :     0.001553

 17 C s       :     3.277191  s :     3.277191
      pz      :     0.968003  p :     2.849348
      px      :     0.927197
      py      :     0.954148
      dz2     :     0.004622  d :     0.085762
      dxz     :     0.025120
      dyz     :     0.007482
      dx2y2   :     0.028724
      dxy     :     0.019813
      f0      :     0.001524  f :     0.007789
      f+1     :     0.000490
      f-1     :     0.000821
      f+2     :     0.000102
      f-2     :     0.001346
      f+3     :     0.002239
      f-3     :     0.001268

 18 C s       :     3.313896  s :     3.313896
      pz      :     0.963503  p :     2.911502
      px      :     1.017443
      py      :     0.930556
      dz2     :     0.002462  d :     0.081777
      dxz     :     0.003253
      dyz     :     0.032634
      dx2y2   :     0.033547
      dxy     :     0.009882
      f0      :     0.001445  f :     0.007230
      f+1     :     0.000624
      f-1     :     0.000634
      f+2     :     0.000451
      f-2     :     0.000829
      f+3     :     0.001152
      f-3     :     0.002096

 19 C s       :     3.329265  s :     3.329265
      pz      :     0.960297  p :     2.909149
      px      :     0.933049
      py      :     1.015803
      dz2     :     0.002389  d :     0.080933
      dxz     :     0.032132
      dyz     :     0.003274
      dx2y2   :     0.032984
      dxy     :     0.010154
      f0      :     0.001456  f :     0.007246
      f+1     :     0.000630
      f-1     :     0.000629
      f+2     :     0.000460
      f-2     :     0.000818
      f+3     :     0.002100
      f-3     :     0.001154

 20 C s       :     3.110223  s :     3.110223
      pz      :     0.962014  p :     2.485651
      px      :     0.748608
      py      :     0.775030
      dz2     :     0.003071  d :     0.150721
      dxz     :     0.034336
      dyz     :     0.027612
      dx2y2   :     0.040554
      dxy     :     0.045148
      f0      :     0.002240  f :     0.014406
      f+1     :     0.001058
      f-1     :     0.000903
      f+2     :     0.001701
      f-2     :     0.001158
      f+3     :     0.003215
      f-3     :     0.004131

 21 C s       :     3.117220  s :     3.117220
      pz      :     0.967106  p :     2.491064
      px      :     0.793057
      py      :     0.730901
      dz2     :     0.003361  d :     0.150696
      dxz     :     0.026970
      dyz     :     0.034996
      dx2y2   :     0.039854
      dxy     :     0.045516
      f0      :     0.002265  f :     0.014448
      f+1     :     0.000866
      f-1     :     0.001090
      f+2     :     0.002256
      f-2     :     0.000603
      f+3     :     0.005301
      f-3     :     0.002067

 22 C s       :     3.276065  s :     3.276065
      pz      :     1.019295  p :     2.889152
      px      :     0.947950
      py      :     0.921908
      dz2     :     0.004827  d :     0.083692
      dxz     :     0.007128
      dyz     :     0.023640
      dx2y2   :     0.028503
      dxy     :     0.019594
      f0      :     0.001547  f :     0.007855
      f+1     :     0.000846
      f-1     :     0.000509
      f+2     :     0.000073
      f-2     :     0.001402
      f+3     :     0.001243
      f-3     :     0.002234

 23 C s       :     3.270742  s :     3.270742
      pz      :     1.018180  p :     2.880664
      px      :     0.911721
      py      :     0.950763
      dz2     :     0.004804  d :     0.083324
      dxz     :     0.021383
      dyz     :     0.009084
      dx2y2   :     0.029908
      dxy     :     0.018145
      f0      :     0.001544  f :     0.007848
      f+1     :     0.000544
      f-1     :     0.000812
      f+2     :     0.000466
      f-2     :     0.001004
      f+3     :     0.001585
      f-3     :     0.001893

 24 H s       :     0.849422  s :     0.849422
      pz      :     0.011258  p :     0.021983
      px      :     0.004281
      py      :     0.006443

 25 H s       :     0.840815  s :     0.840815
      pz      :     0.008248  p :     0.021802
      px      :     0.004255
      py      :     0.009299

 26 H s       :     0.850341  s :     0.850341
      pz      :     0.010956  p :     0.021983
      px      :     0.006921
      py      :     0.004106

 27 H s       :     0.840385  s :     0.840385
      pz      :     0.008548  p :     0.021801
      px      :     0.009111
      py      :     0.004143

 28 H s       :     0.824790  s :     0.824790
      pz      :     0.005757  p :     0.022961
      px      :     0.003464
      py      :     0.013741

 29 H s       :     0.825120  s :     0.825120
      pz      :     0.005732  p :     0.022965
      px      :     0.013719
      py      :     0.003514

 30 H s       :     0.820751  s :     0.820751
      pz      :     0.004785  p :     0.022065
      px      :     0.003486
      py      :     0.013794

 31 H s       :     0.820616  s :     0.820616
      pz      :     0.004745  p :     0.022060
      px      :     0.013239
      py      :     0.004075

 32 H s       :     0.817598  s :     0.817598
      pz      :     0.004430  p :     0.021854
      px      :     0.013259
      py      :     0.004165

 33 H s       :     0.817922  s :     0.817922
      pz      :     0.004404  p :     0.021861
      px      :     0.003554
      py      :     0.013903

 34 H s       :     0.813459  s :     0.813459
      pz      :     0.004663  p :     0.022308
      px      :     0.014050
      py      :     0.003594

 35 H s       :     0.814628  s :     0.814628
      pz      :     0.004660  p :     0.022324
      px      :     0.003574
      py      :     0.014090

 36 H s       :     0.823888  s :     0.823888
      pz      :     0.004745  p :     0.022044
      px      :     0.013766
      py      :     0.003534

 37 H s       :     0.824215  s :     0.824215
      pz      :     0.004741  p :     0.022052
      px      :     0.004130
      py      :     0.013180

 38 Mgs       :     4.480461  s :     4.480461
      pz      :     2.146117  p :     6.514984
      px      :     2.187814
      py      :     2.181052
      dz2     :     0.044742  d :     0.319445
      dxz     :     0.041624
      dyz     :     0.033179
      dx2y2   :     0.028064
      dxy     :     0.171837

 39 O s       :     3.760286  s :     3.760286
      pz      :     1.681306  p :     4.704569
      px      :     1.641334
      py      :     1.381929
      dz2     :     0.004837  d :     0.027316
      dxz     :     0.002911
      dyz     :     0.005997
      dx2y2   :     0.003955
      dxy     :     0.009616
      f0      :     0.000172  f :     0.001535
      f+1     :     0.000073
      f-1     :     0.000242
      f+2     :     0.000231
      f-2     :     0.000223
      f+3     :     0.000220
      f-3     :     0.000375

 40 C s       :     3.249648  s :     3.249648
      pz      :     0.996960  p :     2.866442
      px      :     1.094356
      py      :     0.775126
      dz2     :     0.028633  d :     0.089371
      dxz     :     0.005164
      dyz     :     0.014473
      dx2y2   :     0.011478
      dxy     :     0.029623
      f0      :     0.000963  f :     0.007392
      f+1     :     0.000017
      f-1     :     0.002179
      f+2     :     0.000788
      f-2     :     0.001170
      f+3     :     0.001060
      f-3     :     0.001213

 41 H s       :     0.824332  s :     0.824332
      pz      :     0.012674  p :     0.019847
      px      :     0.004198
      py      :     0.002976

 42 H s       :     0.832366  s :     0.832366
      pz      :     0.003933  p :     0.020063
      px      :     0.010833
      py      :     0.005297

 43 H s       :     0.823160  s :     0.823160
      pz      :     0.004399  p :     0.020767
      px      :     0.009482
      py      :     0.006886

 44 H s       :     0.564379  s :     0.564379
      pz      :     0.012880  p :     0.045068
      px      :     0.016940
      py      :     0.015248



                     *******************************
                     * LOEWDIN POPULATION ANALYSIS *
                     *******************************

----------------------
LOEWDIN ATOMIC CHARGES
----------------------
   0 N :    0.187704
   1 N :    0.165686
   2 N :    0.170568
   3 N :    0.184636
   4 C :   -0.189719
   5 C :   -0.189550
   6 C :   -0.185893
   7 C :   -0.185413
   8 C :   -0.151300
   9 C :   -0.150458
  10 C :   -0.199165
  11 C :   -0.198006
  12 C :   -0.223466
  13 C :   -0.224487
  14 C :   -0.130031
  15 C :   -0.128934
  16 C :   -0.110297
  17 C :   -0.109453
  18 C :   -0.072298
  19 C :   -0.072748
  20 C :   -0.227995
  21 C :   -0.229300
  22 C :   -0.137793
  23 C :   -0.138167
  24 H :    0.151382
  25 H :    0.148507
  26 H :    0.151358
  27 H :    0.148558
  28 H :    0.162029
  29 H :    0.162178
  30 H :    0.145954
  31 H :    0.146070
  32 H :    0.148537
  33 H :    0.148629
  34 H :    0.168641
  35 H :    0.168611
  36 H :    0.144660
  37 H :    0.144681
  38 Mg:    0.098260
  39 O :    0.043103
  40 C :   -0.308812
  41 H :    0.112309
  42 H :    0.118468
  43 H :    0.128492
  44 H :    0.214265

-------------------------------
LOEWDIN REDUCED ORBITAL CHARGES
-------------------------------
  0 N s       :     2.972888  s :     2.972888
      pz      :     1.145826  p :     3.614822
      px      :     1.260743
      py      :     1.208253
      dz2     :     0.016496  d :     0.206153
      dxz     :     0.022346
      dyz     :     0.029178
      dx2y2   :     0.074272
      dxy     :     0.063861
      f0      :     0.001199  f :     0.018433
      f+1     :     0.001180
      f-1     :     0.001416
      f+2     :     0.002817
      f-2     :     0.000497
      f+3     :     0.006758
      f-3     :     0.004566

  1 N s       :     2.973921  s :     2.973921
      pz      :     1.202973  p :     3.641984
      px      :     1.187238
      py      :     1.251773
      dz2     :     0.016178  d :     0.199963
      dxz     :     0.031363
      dyz     :     0.022898
      dx2y2   :     0.069961
      dxy     :     0.059564
      f0      :     0.001122  f :     0.018446
      f+1     :     0.001340
      f-1     :     0.001217
      f+2     :     0.003504
      f-2     :     0.000338
      f+3     :     0.004681
      f-3     :     0.006244

  2 N s       :     2.971064  s :     2.971064
      pz      :     1.201307  p :     3.639553
      px      :     1.200697
      py      :     1.237550
      dz2     :     0.016252  d :     0.200313
      dxz     :     0.029678
      dyz     :     0.024282
      dx2y2   :     0.069085
      dxy     :     0.061016
      f0      :     0.001136  f :     0.018501
      f+1     :     0.001415
      f-1     :     0.001150
      f+2     :     0.003371
      f-2     :     0.000431
      f+3     :     0.004455
      f-3     :     0.006545

  3 N s       :     2.974217  s :     2.974217
      pz      :     1.169297  p :     3.617134
[...]
  0-1A  -> 16-1A    5.582544   45026.3   222.1   0.119200269   0.03668  -0.12514   0.14499  -0.00044
  0-1A  -> 17-1A    5.752876   46400.1   215.5   0.001740320   0.00055   0.01835   0.01030  -0.01044
  0-1A  -> 18-1A    5.764693   46495.4   215.1   0.002623110   0.00083  -0.00125  -0.00200   0.02877
  0-1A  -> 19-1A    5.892147   47523.4   210.4   0.139213674   0.04522   0.13011  -0.16806   0.00650
  0-1A  -> 20-1A    6.010682   48479.4   206.3   0.024316531   0.00806   0.06196  -0.06491   0.00214
  0-1A  -> 21-1A    6.085776   49085.1   203.7   0.013512825   0.00453  -0.04026   0.05320   0.00907
  0-1A  -> 22-1A    6.113500   49308.7   202.8   0.000934428   0.00031   0.01685  -0.00258   0.00493
  0-1A  -> 23-1A    6.263299   50516.9   198.0   0.001116518   0.00039  -0.00967   0.01692   0.00241
  0-1A  -> 24-1A    6.290186   50733.8   197.1   0.002666192   0.00092   0.02832  -0.00365  -0.01043
  0-1A  -> 25-1A    6.315792   50940.3   196.3   0.006802442   0.00237   0.02370   0.03995  -0.01452
  0-1A  -> 26-1A    6.406851   51674.7   193.5   0.001973691   0.00070  -0.00667  -0.00217   0.02545
  0-1A  -> 27-1A    6.510644   52511.9   190.4   0.033029437   0.01185   0.07553  -0.07829   0.00451
  0-1A  -> 28-1A    6.558748   52899.9   189.0   0.005197152   0.00188  -0.04322  -0.00080  -0.00319
  0-1A  -> 29-1A    6.593365   53179.1   188.0   0.005399195   0.00196  -0.01461  -0.03631  -0.02076
  0-1A  -> 30-1A    6.701872   54054.2   185.0   0.047774480   0.01765   0.08761  -0.09987   0.00043

------------------------------------------------------------------------------------------
                     CD SPECTRUM VIA TRANSITION ELECTRIC DIPOLE MOMENTS    
------------------------------------------------------------------------------------------
     Transition      Energy     Energy  Wavelength    R        MX        MY        MZ   
                      (eV)      (cm-1)    (nm)   (1e40*cgs)   (au)      (au)      (au)  
------------------------------------------------------------------------------------------
  0-1A  ->  1-1A    2.106529   16990.3   588.6    8.24233   0.04482   0.00788  -1.07121
  0-1A  ->  2-1A    2.601142   20979.6   476.7   -0.30261  -0.00819   0.01226  -0.00459
  0-1A  ->  3-1A    3.376625   27234.3   367.2  -30.69884   0.08006  -0.12574  -0.01070
  0-1A  ->  4-1A    3.637588   29339.1   340.8    6.64612   0.11469   0.09999   0.13138
  0-1A  ->  5-1A    4.186299   33764.8   296.2   -2.12310  -0.00731   0.01378   0.77214
  0-1A  ->  6-1A    4.279976   34520.3   289.7   -3.72322  -0.03874   0.06797   0.01132
  0-1A  ->  7-1A    4.728372   38136.9   262.2   -3.87928  -0.02215   0.04032  -0.00555
  0-1A  ->  8-1A    4.890660   39445.8   253.5    2.83091  -0.18034   0.22115   0.03646
  0-1A  ->  9-1A    4.944783   39882.4   250.7    9.35892  -0.05215  -0.05371   0.44424
  0-1A  -> 10-1A    5.221644   42115.4   237.4    6.89642  -0.01335  -0.02804  -0.73686
  0-1A  -> 11-1A    5.255549   42388.9   235.9    5.38043  -0.02823  -0.00615   0.12564
  0-1A  -> 12-1A    5.302788   42769.9   233.8   -6.96733  -0.10129  -0.07963   0.16113
  0-1A  -> 13-1A    5.314203   42861.9   233.3    2.78901   0.13214   0.10983   0.19427
  0-1A  -> 14-1A    5.508259   44427.1   225.1   -0.32556   0.03236  -0.05129  -0.03138
  0-1A  -> 15-1A    5.523749   44552.0   224.5    4.01347   0.04876  -0.05169  -0.13242
  0-1A  -> 16-1A    5.582544   45026.3   222.1   -9.34053   0.06762   0.03226   0.47578
  0-1A  -> 17-1A    5.752876   46400.1   215.5   -0.57383   0.00739  -0.02521   0.01444
  0-1A  -> 18-1A    5.764693   46495.4   215.1   -0.21617  -0.00014   0.01973  -0.00201
  0-1A  -> 19-1A    5.892147   47523.4   210.4    3.17548  -0.00909  -0.00120   0.37526
  0-1A  -> 20-1A    6.010682   48479.4   206.3   -2.56467  -0.09168  -0.06660   0.07778
  0-1A  -> 21-1A    6.085776   49085.1   203.7    6.52186   0.02571   0.03377   0.24559
  0-1A  -> 22-1A    6.113500   49308.7   202.8    0.78891   0.02119  -0.02577  -0.00935
  0-1A  -> 23-1A    6.263299   50516.9   198.0    0.24202   0.06446   0.03372   0.07002
  0-1A  -> 24-1A    6.290186   50733.8   197.1    9.32107  -0.00259  -0.03250  -0.38334
  0-1A  -> 25-1A    6.315792   50940.3   196.3   -7.89212  -0.04950   0.02110   0.23109
  0-1A  -> 26-1A    6.406851   51674.7   193.5    1.22414   0.12202  -0.16774   0.04525
  0-1A  -> 27-1A    6.510644   52511.9   190.4   -5.87452  -0.03244   0.00322  -0.05022
  0-1A  -> 28-1A    6.558748   52899.9   189.0   21.41630  -0.25075  -0.16843  -0.00319
  0-1A  -> 29-1A    6.593365   53179.1   188.0   -7.41687  -0.02344   0.06292   0.07859
  0-1A  -> 30-1A    6.701872   54054.2   185.0  -13.57298  -0.05531   0.02103  -0.17755

------------------------------------------------------------------------------------------
                     CD SPECTRUM VIA TRANSITION VELOCITY DIPOLE MOMENTS    
------------------------------------------------------------------------------------------
     Transition      Energy     Energy  Wavelength    R        MX        MY        MZ   
                      (eV)      (cm-1)    (nm)   (1e40*cgs)   (au)      (au)      (au)  
------------------------------------------------------------------------------------------
  0-1A  ->  1-1A    2.106529   16990.3   588.6    8.46925   0.04482   0.00788  -1.07121
  0-1A  ->  2-1A    2.601142   20979.6   476.7   -0.30325  -0.00819   0.01226  -0.00459
  0-1A  ->  3-1A    3.376625   27234.3   367.2  -30.49134   0.08006  -0.12574  -0.01070
  0-1A  ->  4-1A    3.637588   29339.1   340.8    6.60016   0.11469   0.09999   0.13138
  0-1A  ->  5-1A    4.186299   33764.8   296.2   -2.29988  -0.00731   0.01378   0.77214
  0-1A  ->  6-1A    4.279976   34520.3   289.7   -3.71349  -0.03874   0.06797   0.01132
  0-1A  ->  7-1A    4.728372   38136.9   262.2   -3.88866  -0.02215   0.04032  -0.00555
  0-1A  ->  8-1A    4.890660   39445.8   253.5    2.83129  -0.18034   0.22115   0.03646
  0-1A  ->  9-1A    4.944783   39882.4   250.7    9.33727  -0.05215  -0.05371   0.44424
  0-1A  -> 10-1A    5.221644   42115.4   237.4    7.09862  -0.01335  -0.02804  -0.73686
  0-1A  -> 11-1A    5.255549   42388.9   235.9    5.44922  -0.02823  -0.00615   0.12564
  0-1A  -> 12-1A    5.302788   42769.9   233.8   -6.99015  -0.10129  -0.07963   0.16113
  0-1A  -> 13-1A    5.314203   42861.9   233.3    2.78026   0.13214   0.10983   0.19427
  0-1A  -> 14-1A    5.508259   44427.1   225.1   -0.33956   0.03236  -0.05129  -0.03138
  0-1A  -> 15-1A    5.523749   44552.0   224.5    4.11264   0.04876  -0.05169  -0.13242
  0-1A  -> 16-1A    5.582544   45026.3   222.1   -9.17349   0.06762   0.03226   0.47578
  0-1A  -> 17-1A    5.752876   46400.1   215.5   -0.61288   0.00739  -0.02521   0.01444
  0-1A  -> 18-1A    5.764693   46495.4   215.1   -0.21636  -0.00014   0.01973  -0.00201
  0-1A  -> 19-1A    5.892147   47523.4   210.4    3.17218  -0.00909  -0.00120   0.37526
  0-1A  -> 20-1A    6.010682   48479.4   206.3   -2.54209  -0.09168  -0.06660   0.07778
  0-1A  -> 21-1A    6.085776   49085.1   203.7    6.29927   0.02571   0.03377   0.24559
  0-1A  -> 22-1A    6.113500   49308.7   202.8    0.79197   0.02119  -0.02577  -0.00935
  0-1A  -> 23-1A    6.263299   50516.9   198.0    0.23821   0.06446   0.03372   0.07002
  0-1A  -> 24-1A    6.290186   50733.8   197.1    8.24869  -0.00259  -0.03250  -0.38334
  0-1A  -> 25-1A    6.315792   50940.3   196.3   -7.48703  -0.04950   0.02110   0.23109
  0-1A  -> 26-1A    6.406851   51674.7   193.5    1.40321   0.12202  -0.16774   0.04525
  0-1A  -> 27-1A    6.510644   52511.9   190.4   -5.77030  -0.03244   0.00322  -0.05022
  0-1A  -> 28-1A    6.558748   52899.9   189.0   21.48299  -0.25075  -0.16843  -0.00319
  0-1A  -> 29-1A    6.593365   53179.1   188.0   -6.95290  -0.02344   0.06292   0.07859
  0-1A  -> 30-1A    6.701872   54054.2   185.0  -13.44176  -0.05531   0.02103  -0.17755

Total run time:    11812.852 sec

           *** ORCA-CIS/TD-DFT FINISHED WITHOUT ERROR ***
-----------------------
CIS/TD-DFT TOTAL ENERGY
-----------------------

    E(SCF)  =  -1305.598986653 Eh
    DE(CIS) =      0.077413505 Eh (Root  1)
    ----------------------------- ---------
    E(tot)  =  -1305.521573149 Eh


Maximum memory used throughout the entire CIS-calculation: 2678.7 MB
=> NOW LEAVING ORCA_CIS


-------------------------------------------------------------------------------
                          DFT DISPERSION CORRECTION                            
                                                                               
                              DFTD3 V3.1  Rev 1                                
                              USING zero damping                               
-------------------------------------------------------------------------------
The omegaB97X-D3 functional is recognized. Fit by Chai et al.
Active option DFTDOPT                   ...         3   

molecular C6(AA) [au] = 26622.978912 


            DFT-D V3
 parameters
 s6 scaling factor         :     1.0000 
 rs6 scaling factor        :     1.2810 
 s8 scaling factor         :     1.0000 
 rs8 scaling factor        :     1.0940 
 Damping factor alpha6     :    14.0000 
 Damping factor alpha8     :    16.0000 
 ad hoc parameters k1-k3   :    16.0000     1.3333    -4.0000 

 Edisp/kcal,au: -16.301006302200  -0.025977304307 
 E6   /kcal   :  -7.536634994 
 E8   /kcal   :  -8.764371308 
 % E8         :  53.765829822 

-------------------------   ----------------
Dispersion correction           -0.025977304
-------------------------   ----------------


-------------------------   --------------------
FINAL SINGLE POINT ENERGY     -1305.547550452990
-------------------------   --------------------



           ************************************************************
           *        Program running with 4 parallel MPI-processes     *
           *              working on a common directory               *
           ************************************************************

------------------------------------------------------------------------------
                              ORCA PROPERTY CALCULATIONS
------------------------------------------------------------------------------

GBWName                                 ... tddft.gbw
Number of atoms                         ...     45
Number of basis functions               ...    946
Max core memory                         ...   3000 MB

Electric properties:
Dipole moment                           ... YES
Quadrupole moment                       ...  NO
Static polarizability (Dipole/Dipole)   ...  NO
Static polarizability (Dipole/Quad.)    ...  NO
Static polarizability (Quad./Quad.)     ...  NO
Static polarizability (Velocity)        ...  NO
Static hyperpolarizability              ...  NO

Atomic electric properties:
Dipole moment                           ...  NO
Quadrupole moment                       ...  NO
Static polarizability                   ...  NO

Choice of electric origin               ... Center of mass
Position of electric origin             ...    -0.077141     0.049892     0.452512

General magnetic properties:
Magnetizability                         ...  NO

EPR properties:
g-Tensor (aka g-matrix)                 ...  NO
Zero-Field splitting spin-orbit         ...  NO
Zero-field splitting spin-spin          ...  NO
Hyperfine couplings                     ...  NO (   0 nuclei)
Quadrupole couplings                    ...  NO (   0 nuclei)
Contact density                         ...  NO (   0 nuclei)

NMR properties:
Chemical shifts                         ...  NO (   0 nuclei)
Spin-rotation constants                 ...  NO (   0 nuclei)
Spin-spin couplings                     ...  NO (   0 nuclei,    0 pairs)

Choice of magnetic origin               ... GIAO
Position of magnetic origin             ...     0.000000     0.000000     0.000000

Properties with geometric perturbations:
SCF Hessian                             ...  NO
IR spectrum                             ...  NO
VCD spectrum                            ...  NO
X-ray spectroscopy properties:
SCF XES/XAS/RIXS spectra                ...  NO

SCF SOC stabilization energy            ...  NO
Diagonal Born-Oppenheimer correction    ...  NO

-------------
DIPOLE MOMENT
-------------

Method             : SCF
Type of density    : Electron Density
Multiplicity       :   1
Irrep              :   0
Energy             : -1305.5989866533900567 Eh
Basis              : AO
                                X                 Y                 Z
Electronic contribution:     -4.567250531      -1.753463368      -5.536159652
Nuclear contribution   :      5.006084294       2.352758219       6.921870493
                        -----------------------------------------
Total Dipole Moment    :      0.438833763       0.599294852       1.385710841
                        -----------------------------------------
Magnitude (a.u.)       :      1.572235328
Magnitude (Debye)      :      3.996304612



--------------------
Rotational spectrum 
--------------------
 
Rotational constants in cm-1:             0.007903             0.007607             0.004332 
Rotational constants in MHz :           236.928580           228.062756           129.873859 

Dipole components along the rotational axes: 
x,y,z [a.u.] :     0.694707     0.036907     1.409945 
x,y,z [Debye]:     1.765806     0.093809     3.583794 

 

Dipole moment calculation done in   0.2 sec 

Maximum memory used throughout the entire PROP-calculation: 107.1 MB

--------------------------------
SUGGESTED CITATIONS FOR THIS RUN
--------------------------------

Below you find a list of papers that are relevant to this ORCA run
We neither can nor want to force you to cite these papers, but we appreciate if you do
You receive ORCA, which is the product of decades of hard work by many enthusiastic individuals, for free
The only thing we kindly ask in return is that you cite our papers,
We deeply appreciate it, if you show your appreciation for ORCA by not just citing the generic ORCA reference.

Please note that relegating all ORCA citations to the supporting information does *not* help us.
SI sections are not indexed - citations you put there will not count into any citation statistics
But we need these citations in order to attract the funding resources that allow us to do what we are doing

Therefore, if you are a happy ORCA user, please consider citing a few of the papers listed below in the main body of your paper

In addition to the list printed below, the program has created the file tddft.bibtex that contains the list in bibtex format
You can import this file easily into all common literature databanks and citation aid programs

It goes without saying that in many instances, there are alternative algorithms to achieve similar
results as the ones you have gotten from ORCA. It is, of course, also the case that in some instances
ORCA just re-implements algorithms worked out by others. We are fully aware of that and we are also
fully appreciative of our colleagues work. Hence this citation list should not be read as indicating
that the listed papers, which are focused on our own work, are the only ones worth citing. It simply
meant to make it easier for users to cite ORCA specific papers. It is not a substitute for doing your
own literature research and citing the relevant literature in a scientifically appropriate manner.

List of essential papers. We consider these as the minimum necessary citations

  1. Neese, F.
     Software update: the ORCA program system, version 6.0
     WIRES Comput. Molec. Sci. 2025 15(1), e70019
     doi.org/10.1002/wcms.70019

List of papers to cite with high priority. The work reported in these papers was absolutely
necessary for this run to complete.
Our perspective: the developers of density functionals and basis sets usually get cited in chemistry papers
Good! But without the algorithms to do something with them, the functionals or basis sets would not do anything.
Hence, in our opinion, the algorithm design and method developments papers are equally worthy of getting cited

  1. Neese, F.; Olbrich, G.
     Efficient use of the resolution of the identity approximation in time-dependent density functional calculations with hybrid density functionals
     Chem. Phys. Lett. 2002 362 , 170-178
     doi.org/10.1016/s0009-2614(02)01053-9
  2. Neese, F.
     An improvement of the resolution of the identity approximation for the formation of the Coulomb matrix
     J. Comp. Chem. 2003 24(14), 1740-1747
     doi.org/10.1002/jcc.10318
  3. Neese, F.; Wennmohs, F.; Hansen, A.; Becker, U.
     Efficient, approximate and parallel Hartree-Fock and hybrid DFT calculations. A 'chain-of-spheres' algorithm for the Hartree-Fock exchange
     Chem. Phys. 2009 356(1-3), 98-109
     doi.org/10.1016/j.chemphys.2008.10.036
  4. Grimme, S.; Antony, J.; Ehrlich, S.; Krieg, H.
     A consistent and accurate ab initio parametrization of density functional dispersion correction (DFT-D) for the 94 elements H-Pu
     J. Chem. Phys. 2010 132 , 154104
     doi.org/10.1063/1.3382344
  5. Garcia-Rates, M.; Neese, F.
     Effect of the Solute Cavity on the Solvation Energy and its Derivatives within the Framework of the Gaussian Charge Scheme
     J. Comput. Chem. 2020 41 , 922-939
     doi.org/10.1002/jcc.26139
  6. Helmich-Paris, B.; de Souza, B.; Neese, F.; Izsák, R.
     An improved chain of spheres for exchange algorithm
     J. Chem. Phys. 2021 155(10), 104109
     doi.org/10.1063/5.0058766
  7. Neese, F.
     The SHARK Integral Generation and Digestion System
     J. Comp. Chem. 2022 44(3), 381
     doi.org/10.1002/jcc.26942

List of suggested additional citations. These are papers that are important in the 'surrounding' of 
of this run, or papers that preceded the highly important papers. If you like your results we are grateful for a citation.

  1. Izsak, R.; Neese, F.
     An overlap fitted chain of spheres exchange method
     J. Chem. Phys. 2011 135 , 144105
     doi.org/10.1063/1.3646921
  2. Izsak, R.; Hansen, A.; Neese, F.
     The resolution of identity and chain of spheres approximations for the LPNO-CCSD singles Fock term
     Molec. Phys. 2012 110 , 2413-2417
     doi.org/10.1080/00268976.2012.687466
  3. Neese, F.
     The ORCA program system
     WIRES Comput. Molec. Sci. 2012 2(1), 73-78
     doi.org/10.1002/wcms.81
  4. Izsak, R.; Neese, F.; Klopper, W.
     Robust fitting techniques in the chain of spheres approximation to the Fock exchange: The role of the complementary space
     J. Chem. Phys. 2013 139 , 
     doi.org/10.1063/1.4819264
  5. Neese, F.
     Software update: the ORCA program system, version 4.0
     WIRES Comput. Molec. Sci. 2018 8(1), 1-6
     doi.org/10.1002/wcms.1327
  6. Neese, F.; Wennmohs, F.; Becker, U.; Riplinger, C.
     The ORCA quantum chemistry program package
     J. Chem. Phys. 2020 152(22), 224108
     doi.org/10.1063/5.0004608
  7. Neese, F.
     Software update: The ORCA program system—Version 5.0
     WIRES Comput. Molec. Sci. 2022 12(1), e1606
     doi.org/10.1002/wcms.1606

List of optional additional citations

  1. Neese, F.
     Approximate second-order SCF convergence for spin unrestricted wavefunctions
     Chem. Phys. Lett. 2000 325(1-3), 93-98
     doi.org/10.1016/s0009-2614(00)00662-x

Timings for individual modules:

Sum of individual times          ...    15151.419 sec (= 252.524 min)
Startup calculation              ...       48.390 sec (=   0.807 min)   0.3 %
SCF iterations                   ...     3284.641 sec (=  54.744 min)  21.7 %
Property integrals               ...        2.635 sec (=   0.044 min)   0.0 %
Property calculations            ...        2.053 sec (=   0.034 min)   0.0 %
CIS module                       ...    11813.699 sec (= 196.895 min)  78.0 %
                             ****ORCA TERMINATED NORMALLY****
TOTAL RUN TIME: 0 days 4 hours 12 minutes 32 seconds 364 msec
