
                                 *****************
                                 * O   R   C   A *
                                 *****************

                                            #,                                       
                                            ###                                      
                                            ####                                     
                                            #####                                    
                                            ######                                   
                                           ########,                                 
                                     ,,################,,,,,                         
                               ,,#################################,,                 
                          ,,##########################################,,             
                       ,#########################################, ''#####,          
                    ,#############################################,,   '####,        
                  ,##################################################,,,,####,       
                ,###########''''           ''''###############################       
              ,#####''   ,,,,##########,,,,          '''####'''          '####       
            ,##' ,,,,###########################,,,                        '##       
           ' ,,###''''                  '''############,,,                           
         ,,##''                                '''############,,,,        ,,,,,,###''
      ,#''                                            '''#######################'''  
     '                                                          ''''####''''         
             ,#######,   #######,   ,#######,      ##                                
            ,#'     '#,  ##    ##  ,#'     '#,    #''#        ,####,    ,#,          
            ##       ##  ##   ,#'  ##            #'  '#       #'       ,# #          
            ##       ##  #######   ##           ,######,      #####,      #          
            '#,     ,#'  ##    ##  '#,     ,#' ,#      #,     #,   #      #          
             '#######'   ##     ##  '#######'  #'      '#     '####' #    #          



                #########################################################
                #                        -***-                          #
                #          Department of theory and spectroscopy        #
                #                                                       #
                #                      Frank Neese                      #
                #                                                       #
                #     Directorship, Architecture, Infrastructure        #
                #                    SHARK, DRIVERS                     #
                #        Core code/Algorithms in most modules           #
                #                                                       #
                #        Max Planck Institute fuer Kohlenforschung      #
                #                Kaiser Wilhelm Platz 1                 #
                #                 D-45470 Muelheim/Ruhr                 #
                #                      Germany                          #
                #                                                       #
                #                  All rights reserved                  #
                #                        -***-                          #
                #########################################################


                         Program Version 6.1.1  -  RELEASE   -
                                (GIT: $487d211c$)
                          ($2025-11-21 10:33:24 +0100$)


 With contributions from (in alphabetic order):
[Max-Planck-Institut fuer Kohlenforschung]                               
  Daniel Aravena         : Magnetic Suceptibility                        
  Michael Atanasov       : Ab Initio Ligand Field Theory (pilot matlab implementation)
  Alexander A. Auer      : GIAO ZORA, VPT2 properties, NMR spectrum      
  Ute Becker             : All parallelization in ORCA, NUMFREQ, NUMCALC 
  Giovanni Bistoni       : ED, misc. LED, open-shell LED, HFLD           
  Dmytro Bykov           : pre 5.0 version of the SCF Hessian            
  Marcos Casanova-Páez   : Triplet and SCS-CIS(D). UHF-(DLPNO)-IP/EA/STEOM-CCSD. UHF-CVS-IP/STEOM-CCSD   
  Vijay G. Chilkuri      : MRCI spin determinant printing, contributions to CSF-ICE 
  Pauline Colinet        : FMM embedding                                 
  Dipayan Datta          : RHF DLPNO-CCSD density                        
  Achintya Kumar Dutta   : EOM-CC, STEOM-CC                              
  Nicolas Foglia         : Exact transition moments, OPA infrastructure, MCD improvements    
  Dmitry Ganyushin       : Spin-Orbit,Spin-Spin,Magnetic field MRCI      
  Miquel Garcia-Rates    : C-PCM and meta-GGA Hessian, CCSD/C-PCM, Gaussian charge scheme 
  Tiago L. C. Gouveia    : GS-ROHF, GS-ROCIS                             
  Yang Guo               : DLPNO-NEVPT2, F12-NEVPT2, CIM, IAO-localization        
  Andreas Hansen         : Spin unrestricted coupled pair/coupled cluster methods 
  Ingolf Harden          : AUTO-CI MPn and infrastructure                
  Benjamin Helmich-Paris : MC-RPA, TRAH-(SCF,CASSCF), AVAS, COSX integrals, SCF dyn. polar., MC-PDFT, srDFT 
  Lee Huntington         : MR-EOM, pCC                                   
  Robert Izsak           : Overlap fitted RIJCOSX, COSX-SCS-MP3, EOM     
  Riya Kayal             : Wick's Theorem for AUTO-CI, AUTO-CI UHF-CCSDT 
  Emily Kempfer          : AUTO-CI RHF CISDT and CCSDT, approximate NEVPT4
  Christian Kollmar      : KDIIS, OOCD, Brueckner-CCSD(T), CCSD density, CASPT2, CASPT2-K, improved NEVPT2 
  Axel Koslowski         : Symmetry handling                             
  Simone Kossmann        : meta-GGA functionals, TD-DFT gradient, OOMP2, (MP2 Hessian; deprecated post 5.0) 
  Lucas Lang             : DCDCAS, Hyperfine gauge corrections, ICE-SOC+SSC
  Marvin Lechner         : AUTO-CI (C++ implementation), FIC-MRCC        
  Spencer Leger          : CASSCF response                               
  Dagmar Lenk            : GEPOL surface, SMD, ORCA-2-JSON               
  Dimitrios Liakos       : Extrapolation schemes; Compound Job, Property file
  Dimitrios Manganas     : Further ROCIS development; embedding schemes. LFT, Crystal Embedding 
  Dimitrios Pantazis     : SARC Basis sets                               
  Anastasios Papadopoulos: AUTO-CI, single reference methods and gradients 
  Taras Petrenko         : pre 6.0 DFT Hessian and TD-DFT gradient,  ECA, NRVS 
  Petra Pikulova         : Analytic Raman intensities                    
  Peter Pinski           : DLPNO-MP2, DLPNO-MP2 Gradient                 
  Shashank Vittal Rao    : ES-AILFT, MagRelax                            
  Christoph Reimann      : Effective Core Potentials                     
  Marius Retegan         : Local ZFS, SOC                                
  Christoph Riplinger    : Optimizer, TS searches, QM/MM, DLPNO-CCSD(T), (RO)-DLPNO pert. Triples 
  Michael Roemelt        : Original ROCIS implementation, recursive CI coupling coefficients
  Masaaki Saitow         : Open-shell DLPNO-CCSD energy and density      
  Barbara Sandhoefer     : DKH picture change effects                    
  Yorick L. A. Schmerwitz: GMF and freeze-and-release deltaSCF, NEB S-IDPP initial path                    
  Kantharuban Sivalingam : CASSCF convergence/infrastructure, NEVPT2, NEVPT3, NEVPT4(SD), FIC-MRCI and CEPA variants
  Bernardo de Souza      : ESD, SOC TD-DFT                               
  Georgi L. Stoychev     : AutoAux, RI-MP2 NMR, DLPNO-MP2 response, X2C  
  Van Anh Tran           : RI-MP2 g-tensors                              
  Willem Van den Heuvel  : Paramagnetic NMR                              
  Zikuan Wang            : NOTCH, Electric field optimization            
  Frank Wennmohs         : Technical directorship and infrastructure     
  Hang Xu                : AUTO-CI-Response properties                   
                                                                         
[FACCTs GmbH]                                                            
  Markus Bursch, Nicolas Foglia, Miquel Garcia-Rates, Ingolf Harden, Hagen Neugebauer, Anastasios Papadopoulos, 
  Christoph Riplinger, Bernardo de Souza, Georgi L. Stoychev                                                    
                                                                 
  APM, various basis sets, CI-OPT, improved COSX, DLPNO-Multilevel,           
  DOCKER, DRACO, updates on ESD, Fragmentator, GOAT, IRC, LR-CPCM, L-BFGS, MBIS, meta-GGA TD-DFT gradient, ML-optimized integration grids, 
  MM, NACMEs, nearIR, NEB, NEB-TS, NL-DFT gradient (VV10), 2- and 3-layer-ONIOM, interface openCOSMO-RS, QMMM,   
  Crystal-QMMM, RESP, rigid body optimization, SF, symmetry and pop. for TD-DFT, various functionals, SOLVATOR                                   
                                                                         
[Other institutions]                                                     
  V. Asgeirsson          : NEB                                           
  Christoph Bannwarth    : sTDA-DFT, sTD-DFT, PBEh-3c, B97-3c, D3        
  Giovanni Bistoni       : ETS/NOCV, ADLD/ADEX, COVALED                  
  Martin Brehm           : Molecular dynamics                            
  Ronald Cardenas        : ETS/NOCV                                      
  Martina Colucci        : COVALED                                       
  Sebastian Ehlert       : rSCAN, r2SCAN, r2SCAN-3c, D4, dhf basis sets  
  Marvin Friede          : D4 for Fr, Ra, Ac-Lr                          
  Lars Goerigk           : TD-DFT with DH, B97 family of functionals     
  Stefan Grimme          : VdW corrections, initial TS optimization, DFT functionals, gCP, sTDA/sTD-DF 
  Waldemar Hujo          : DFT-NL                                        
  H. Jonsson             : NEB                                           
  Holger Kruse           : gCP                                           
  Marcel Mueller         : wB97X-3c, vDZP basis set                      
  Hagen Neugebauer       : wr2SCAN, Native XTB                           
  Gianluca Regni         : ADLD/ADEX                                     
  Tobias Risthaus        : pre 6.0 range-separated hybrid DFT and stability analysis
  Lukas Wittmann         : regularized MP2, r2SCAN double-hybrids, wr2SCAN        
                                                                         
We gratefully acknowledge several colleagues who have allowed us to      
interface, adapt or use parts of their codes:                            
  Ed Valeev, F. Pavosevic, A. Kumar             : LibInt (2-el integral package), F12 methods 
  Garnet Chan, S. Sharma, J. Yang, R. Olivares  : DMRG                   
  Ulf Ekstrom                                   : XCFun DFT Library      
  Mihaly Kallay                                 : mrcc  (arbitrary order and MRCC methods)
  Frank Weinhold                                : gennbo (NPA and NBO analysis)           
  Simon Mueller                                 : openCOSMO-RS                            
  Christopher J. Cramer and Donald G. Truhlar   : smd solvation model                     
  S Lehtola, MJT Oliveira, MAL Marques          : LibXC Library                           
  Liviu Ungur et al                             : ANISO software                          


 Your calculation uses the libint2 library for the computation of 2-el integrals
 For citations please refer to: http://libint.valeyev.net

 Your ORCA version has been built with support for libXC version: 7.0.0
 For citations please refer to: https://libxc.gitlab.io

 This ORCA versions uses:
   CBLAS   interface :  Fast vector & matrix operations
   LAPACKE interface :  Fast linear algebra routines
   SCALAPACK package :  Parallel linear algebra routines
   Shared memory     :  Shared parallel matrices
   BLAS/LAPACK       :  OpenBLAS 0.3.29  USE64BITINT DYNAMIC_ARCH NO_AFFINITY Haswell SINGLE_THREADED
        Core in use  :  Haswell
   Copyright (c) 2011-2014, The OpenBLAS Project


  ***********************************
  * Starting time: Fri Jul 10 19:00:45 2026
  * Host name:     steezy
  * Process ID:    2052712
  * Working dir.:  /home/jannes/chlorophyll-ladder/009-mgchlorin-axial-ligation/mgchlorin_h2o/03_tddft_ch2cl2/wb97xd
  ***********************************

NOTE: MaxCore=3000 MB was set to SCF,MP2,MDCI,CIPSI,MRCI,RASCI and CIS
      => If you want to overwrite this, your respective input block should be placed after the MaxCore statement


***************************************
The coordinates will be read from file: /home/jannes/chlorophyll-ladder/009-mgchlorin-axial-ligation/mgchlorin_h2o/01_opt/mgchlorin_h2o_opt_b3lypd4_tzvp.xyz
***************************************


Your calculation utilizes the atom-pairwise dispersion correction
with the zero-damping scheme (D30)


XCFun DFT library Copyright 2009-2010 Ulf Ekstrom and contributors.
See http://admol.org/xcfun for more information.
This is free software; see the source code for copying conditions.
There is ABSOLUTELY NO WARRANTY; not even for MERCHANTABILITY or FITNESS FOR A PARTICULAR PURPOSE.
For details see the documentation.
Scientific users of this library should cite U. Ekstrom, L. Visscher, R. Bast, A. J. Thorvaldsen and K. Ruud;
J.Chem.Theor.Comp. 2010, DOI: 10.1021/ct100117s
XCFun Version 0.99 

================================================================================

----- Orbital basis set information -----
Your calculation utilizes the basis: def2-TZVP
   F. Weigend and R. Ahlrichs, Phys. Chem. Chem. Phys. 7, 3297 (2005).

----- AuxJ basis set information -----
Your calculation utilizes the auxiliary basis: def2/J
   H-Rn: F. Weigend, Phys. Chem. Chem. Phys. 8, 1057 (2006).
   Fr-Lr: K. Eichkorn, F. Weigend, O. Treutler, R. Ahlrichs; Theor. Chem. Acc. 97, 119 (1997).

================================================================================
                                        WARNINGS
                       Please study these warnings very carefully!
================================================================================


WARNING: CIS/ROCIS methods need fully converged wavefunctions
  ===> : Setting SCFConvForced true
         You can overwrite this default with %scf ConvForced false 


================================================================================
                                       INPUT FILE
================================================================================
NAME = tddft.inp
|  1> %pal nprocs 4 end
|  2> %maxcore 3000
|  3> ! wB97X-D3 def2-TZVP def2/J RIJCOSX DefGrid3 TightSCF CPCM(CH2Cl2)
|  4> %tddft
|  5>   nroots 30
|  6>   tda false
|  7>   triplets false
|  8> end
|  9> * xyzfile 0 1 /home/jannes/chlorophyll-ladder/009-mgchlorin-axial-ligation/mgchlorin_h2o/01_opt/mgchlorin_h2o_opt_b3lypd4_tzvp.xyz
| 10> 
| 11>                          ****END OF INPUT****
================================================================================

                       ****************************
                       * Single Point Calculation *
                       ****************************

---------------------------------
CARTESIAN COORDINATES (ANGSTROEM)
---------------------------------
  N      1.626237    1.306031    0.038938
  N     -1.306004    1.563454    0.073494
  N      1.278091   -1.617727    0.032663
  N     -1.618670   -1.330354   -0.001239
  C      2.884212    3.312096   -0.106744
  C      3.851613    2.129509    0.036084
  C      1.518889    2.656943   -0.000259
  C      2.927476    0.924704    0.029433
  C      0.345098    3.375640    0.024626
  C      3.390098   -0.371684    0.030361
  C     -0.971571    2.875123    0.046632
  C      2.630694   -1.558342    0.009504
  C     -2.683428    1.493746    0.043446
  C      0.927764   -2.950452   -0.032204
  C     -2.163831    3.684590    0.016307
  C      3.178677   -2.889613   -0.057444
  C     -3.222005    2.827457    0.015258
  C      2.122768   -3.749464   -0.083712
  C     -3.424259    0.324812    0.012386
  C     -0.368495   -3.435740   -0.062660
  C     -2.939096   -0.989888   -0.017415
  C     -1.556212   -2.691802   -0.053844
  C     -3.744507   -2.176095   -0.081554
  C     -2.883300   -3.235943   -0.104918
  H      2.984308    3.808734   -1.074923
  H      3.023248    4.077480    0.657932
  H      4.413638    2.168171    0.972749
  H      4.583647    2.075155   -0.770467
  H      0.439997    4.454120   -0.009359
  H      4.465764   -0.498594    0.017958
  H     -2.182660    4.763077   -0.012865
  H      4.230416   -3.128335   -0.092018
  H     -4.272860    3.071062   -0.014968
  H      2.146008   -4.826710   -0.143520
  H     -4.501372    0.438383   -0.010408
  H     -0.477643   -4.512439   -0.111844
  H     -4.822977   -2.197036   -0.110605
  H     -3.125386   -4.286224   -0.156604
  Mg    -0.024410   -0.037383    0.259696
  O      0.089462    0.001641    2.400445
  H     -0.015446    0.876043    2.793738
  H      0.906415   -0.374880    2.748982

----------------------------
CARTESIAN COORDINATES (A.U.)
----------------------------
  NO LB      ZA    FRAG     MASS         X           Y           Z
   0 N     7.0000    0    14.007    3.073142    2.468041    0.073583
   1 N     7.0000    0    14.007   -2.467990    2.954499    0.138883
   2 N     7.0000    0    14.007    2.415242   -3.057062    0.061724
   3 N     7.0000    0    14.007   -3.058844   -2.514004   -0.002341
   4 C     6.0000    0    12.011    5.450370    6.258954   -0.201717
   5 C     6.0000    0    12.011    7.278494    4.024188    0.068188
   6 C     6.0000    0    12.011    2.870285    5.020895   -0.000488
   7 C     6.0000    0    12.011    5.532128    1.747438    0.055620
   8 C     6.0000    0    12.011    0.652140    6.379035    0.046536
   9 C     6.0000    0    12.011    6.406357   -0.702381    0.057374
  10 C     6.0000    0    12.011   -1.836003    5.433195    0.088122
  11 C     6.0000    0    12.011    4.971290   -2.944840    0.017959
  12 C     6.0000    0    12.011   -5.070944    2.822771    0.082100
  13 C     6.0000    0    12.011    1.753220   -5.575546   -0.060857
  14 C     6.0000    0    12.011   -4.089048    6.962866    0.030817
  15 C     6.0000    0    12.011    6.006830   -5.460577   -0.108554
  16 C     6.0000    0    12.011   -6.088707    5.343119    0.028833
  17 C     6.0000    0    12.011    4.011451   -7.085461   -0.158192
  18 C     6.0000    0    12.011   -6.470911    0.613806    0.023406
  19 C     6.0000    0    12.011   -0.696355   -6.492607   -0.118411
  20 C     6.0000    0    12.011   -5.554086   -1.870617   -0.032909
  21 C     6.0000    0    12.011   -2.940814   -5.086769   -0.101750
  22 C     6.0000    0    12.011   -7.076093   -4.112224   -0.154114
  23 C     6.0000    0    12.011   -5.448647   -6.115046   -0.198266
  24 H     1.0000    0     1.008    5.639524    7.197465   -2.031310
  25 H     1.0000    0     1.008    5.713110    7.705321    1.243310
  26 H     1.0000    0     1.008    8.340566    4.097250    1.838229
  27 H     1.0000    0     1.008    8.661837    3.921474   -1.455971
  28 H     1.0000    0     1.008    0.831474    8.417068   -0.017687
  29 H     1.0000    0     1.008    8.439072   -0.942206    0.033937
  30 H     1.0000    0     1.008   -4.124629    9.000911   -0.024312
  31 H     1.0000    0     1.008    7.994329   -5.911696   -0.173889
  32 H     1.0000    0     1.008   -8.074535    5.803466   -0.028286
  33 H     1.0000    0     1.008    4.055367   -9.121160   -0.271213
  34 H     1.0000    0     1.008   -8.506360    0.828424   -0.019668
  35 H     1.0000    0     1.008   -0.902615   -8.527274   -0.211354
  36 H     1.0000    0     1.008   -9.114105   -4.151796   -0.209014
  37 H     1.0000    0     1.008   -5.906123   -8.099789   -0.295939
  38 Mg   12.0000    0    24.305   -0.046129   -0.070645    0.490755
  39 O     8.0000    0    15.999    0.169058    0.003101    4.536184
  40 H     1.0000    0     1.008   -0.029188    1.655482    5.279399
  41 H     1.0000    0     1.008    1.712876   -0.708421    5.194824

--------------------------------
INTERNAL COORDINATES (ANGSTROEM)
--------------------------------
 N      0   0   0     0.000000000000     0.00000000     0.00000000
 N      1   0   0     2.943721516731     0.00000000     0.00000000
 N      1   2   0     2.944419744066    88.22821202     0.00000000
 N      3   1   2     2.911178508507    91.12635037     1.34167266
 C      1   2   3     2.372345005729   117.06317661   176.24693010
 C      5   1   2     1.534528707660    71.15009076   176.59765671
 C      1   2   3     1.355737662676    80.46391429   178.06387760
 C      1   2   3     1.355995573600   168.68126818   358.54301494
 C      7   1   2     1.376564826847   125.96068500     1.52248966
 C      8   1   7     1.376459981018   125.97094915   181.58682588
 C      2   1   3     1.353899199071    80.70233079   181.18489476
 C      3   1   2     1.354103508536    80.69908692   179.66364965
 C      2   1   3     1.379514252775   171.85646874   346.50317993
 C      3   1   2     1.379525682750   171.65892207    18.71192698
 C     11   2   1     1.441402530311   109.88694227   178.63361876
 C     12   3   1     1.441197157130   109.88239714   182.19272878
 C     15  11   2     1.361767479563   106.81528502   359.54521630
 C     16  12   3     1.361975943462   106.81521067     0.43000617
 C     13   2  11     1.384269234552   125.27672082   177.73206013
 C     14   3  12     1.384456718752   125.27054729   181.49849213
 C      4   3   1     1.363708574783   171.20756988     0.24138409
 C      4   3   1     1.363894974438    81.74059628   177.77833719
 C     21   4  22     1.435231524833   109.72751259     0.04335446
 C     23  21   4     1.365833301255   106.75377651   359.94336044
 H      5   1   2     1.092720945061   119.16379692   281.85954556
 H      5   1   2     1.090812952053   128.16075500    71.36484840
 H      6   5   1     1.093026947053   112.12690580   244.91754971
 H      6   5   1     1.090573515161   113.12488809   123.95340319
 H      9   7   1     1.083181006441   116.39489105   179.72259474
 H     10   8   1     1.083198326177   116.36560415   179.77296715
 H     15  11   2     1.079045426292   125.19031665   180.27269833
 H     16  12   3     1.079045146572   125.20154794   179.71013310
 H     17  15  11     1.079144728524   127.92460432   180.75444031
 H     18  16  12     1.079155013060   127.92162589   179.28104477
 H     19  13   2     1.083323844085   116.36285765   180.08911017
 H     20  14   3     1.083334754912   116.34088540   180.12999787
 H     23  21   4     1.079063908001   125.31735682   180.27287049
 H     24  23  21     1.079058313192   127.92546313   180.33697144
 Mg     2   1   3     2.059085410304    46.61425575     7.93257506
 O     39   2   1     2.144130582759    96.26875525    92.81001535
 H     40  39   2     0.964501862100   114.69880499   329.89614876
 H     40  39   2     0.964707027710   113.49002546   205.95922581

---------------------------
INTERNAL COORDINATES (A.U.)
---------------------------
 N      0   0   0     0.000000000000     0.00000000     0.00000000
 N      1   0   0     5.562827481153     0.00000000     0.00000000
 N      1   2   0     5.564146939595    88.22821202     0.00000000
 N      3   1   2     5.501330108036    91.12635037     1.34167266
 C      1   2   3     4.483082356004   117.06317661   176.24693010
 C      5   1   2     2.899839002117    71.15009076   176.59765671
 C      1   2   3     2.561972891901    80.46391429   178.06387760
 C      1   2   3     2.562460272913   168.68126818   358.54301494
 C      7   1   2     2.601330528330   125.96068500     1.52248966
 C      8   1   7     2.601132398426   125.97094915   181.58682588
 C      2   1   3     2.558498699180    80.70233079   181.18489476
 C      3   1   2     2.558884788116    80.69908692   179.66364965
 C      2   1   3     2.606904135587   171.85646874   346.50317993
 C      3   1   2     2.606925735108   171.65892207    18.71192698
 C     11   2   1     2.723856031028   109.88694227   178.63361876
 C     12   3   1     2.723467931962   109.88239714   182.19272878
 C     15  11   2     2.573367594455   106.81528502   359.54521630
 C     16  12   3     2.573761534133   106.81521067     0.43000617
 C     13   2  11     2.615889748916   125.27672082   177.73206013
 C     14   3  12     2.616244042709   125.27054729   181.49849213
 C      4   3   1     2.577035732819   171.20756988     0.24138409
 C      4   3   1     2.577387977119    81.74059628   177.77833719
 C     21   4  22     2.712194520705   109.72751259     0.04335446
 C     23  21   4     2.581050883961   106.75377651   359.94336044
 H      5   1   2     2.064943326965   119.16379692   281.85954556
 H      5   1   2     2.061337742714   128.16075500    71.36484840
 H      6   5   1     2.065521586925   112.12690580   244.91754971
 H      6   5   1     2.060885272563   113.12488809   123.95340319
 H      9   7   1     2.046915455639   116.39489105   179.72259474
 H     10   8   1     2.046948185197   116.36560415   179.77296715
 H     15  11   2     2.039100341751   125.19031665   180.27269833
 H     16  12   3     2.039099813159   125.20154794   179.71013310
 H     17  15  11     2.039287995775   127.92460432   180.75444031
 H     18  16  12     2.039307430731   127.92162589   179.28104477
 H     19  13   2     2.047185379667   116.36285765   180.08911017
 H     20  14   3     2.047205998143   116.34088540   180.12999787
 H     23  21   4     2.039135267120   125.31735682   180.27287049
 H     24  23  21     2.039124694465   127.92546313   180.33697144
 Mg     2   1   3     3.891107511828    46.61425575     7.93257506
 O     39   2   1     4.051819596780    96.26875525    92.81001535
 H     40  39   2     1.822644375026   114.69880499   329.89614876
 H     40  39   2     1.823032081841   113.49002546   205.95922581

---------------------
BASIS SET INFORMATION
---------------------
There are 5 groups of distinct atoms

 Group   1 Type N   : 11s6p2d1f contracted to 5s3p2d1f pattern {62111/411/11/1}
 Group   2 Type C   : 11s6p2d1f contracted to 5s3p2d1f pattern {62111/411/11/1}
 Group   3 Type H   : 5s1p contracted to 3s1p pattern {311/1}
 Group   4 Type Mg  : 14s8p3d contracted to 5s4p3d pattern {73211/5111/111}
 Group   5 Type O   : 11s6p2d1f contracted to 5s3p2d1f pattern {62111/411/11/1}

Atom   0N    basis set group =>   1
Atom   1N    basis set group =>   1
Atom   2N    basis set group =>   1
Atom   3N    basis set group =>   1
Atom   4C    basis set group =>   2
Atom   5C    basis set group =>   2
Atom   6C    basis set group =>   2
Atom   7C    basis set group =>   2
Atom   8C    basis set group =>   2
Atom   9C    basis set group =>   2
Atom  10C    basis set group =>   2
Atom  11C    basis set group =>   2
Atom  12C    basis set group =>   2
Atom  13C    basis set group =>   2
Atom  14C    basis set group =>   2
Atom  15C    basis set group =>   2
Atom  16C    basis set group =>   2
Atom  17C    basis set group =>   2
Atom  18C    basis set group =>   2
Atom  19C    basis set group =>   2
Atom  20C    basis set group =>   2
Atom  21C    basis set group =>   2
Atom  22C    basis set group =>   2
Atom  23C    basis set group =>   2
Atom  24H    basis set group =>   3
Atom  25H    basis set group =>   3
Atom  26H    basis set group =>   3
Atom  27H    basis set group =>   3
Atom  28H    basis set group =>   3
Atom  29H    basis set group =>   3
Atom  30H    basis set group =>   3
Atom  31H    basis set group =>   3
Atom  32H    basis set group =>   3
Atom  33H    basis set group =>   3
Atom  34H    basis set group =>   3
Atom  35H    basis set group =>   3
Atom  36H    basis set group =>   3
Atom  37H    basis set group =>   3
Atom  38Mg   basis set group =>   4
Atom  39O    basis set group =>   5
Atom  40H    basis set group =>   3
Atom  41H    basis set group =>   3
---------------------------------
AUXILIARY/J BASIS SET INFORMATION
---------------------------------
There are 5 groups of distinct atoms

 Group   1 Type N   : 12s5p4d2f1g contracted to 6s4p3d1f1g pattern {711111/2111/211/2/1}
 Group   2 Type C   : 12s5p4d2f1g contracted to 6s4p3d1f1g pattern {711111/2111/211/2/1}
 Group   3 Type H   : 5s2p1d contracted to 3s1p1d pattern {311/2/1}
 Group   4 Type Mg  : 14s5p5d2f1g contracted to 8s4p4d1f1g pattern {71111111/2111/2111/2/1}
 Group   5 Type O   : 12s5p4d2f1g contracted to 6s4p3d1f1g pattern {711111/2111/211/2/1}

Atom   0N    basis set group =>   1
Atom   1N    basis set group =>   1
Atom   2N    basis set group =>   1
Atom   3N    basis set group =>   1
Atom   4C    basis set group =>   2
Atom   5C    basis set group =>   2
Atom   6C    basis set group =>   2
Atom   7C    basis set group =>   2
Atom   8C    basis set group =>   2
Atom   9C    basis set group =>   2
Atom  10C    basis set group =>   2
Atom  11C    basis set group =>   2
Atom  12C    basis set group =>   2
Atom  13C    basis set group =>   2
Atom  14C    basis set group =>   2
Atom  15C    basis set group =>   2
Atom  16C    basis set group =>   2
Atom  17C    basis set group =>   2
Atom  18C    basis set group =>   2
Atom  19C    basis set group =>   2
Atom  20C    basis set group =>   2
Atom  21C    basis set group =>   2
Atom  22C    basis set group =>   2
Atom  23C    basis set group =>   2
Atom  24H    basis set group =>   3
Atom  25H    basis set group =>   3
Atom  26H    basis set group =>   3
Atom  27H    basis set group =>   3
Atom  28H    basis set group =>   3
Atom  29H    basis set group =>   3
Atom  30H    basis set group =>   3
Atom  31H    basis set group =>   3
Atom  32H    basis set group =>   3
Atom  33H    basis set group =>   3
Atom  34H    basis set group =>   3
Atom  35H    basis set group =>   3
Atom  36H    basis set group =>   3
Atom  37H    basis set group =>   3
Atom  38Mg   basis set group =>   4
Atom  39O    basis set group =>   5
Atom  40H    basis set group =>   3
Atom  41H    basis set group =>   3


           ************************************************************
           *        Program running with 4 parallel MPI-processes     *
           *              working on a common directory               *
           ************************************************************
------------------------------------------------------------------------------
                             ORCA STARTUP CALCULATIONS
                           -- RI-GTO INTEGRALS CHOSEN --
------------------------------------------------------------------------------
------------------------------------------------------------------------------
                   ___                                                        
                  /   \      - P O W E R E D   B Y -                         
                 /     \                                                     
                 |  |  |   _    _      __       _____    __    __             
                 |  |  |  | |  | |    /  \     |  _  \  |  |  /  |          
                  \  \/   | |  | |   /    \    | | | |  |  | /  /          
                 / \  \   | |__| |  /  /\  \   | |_| |  |  |/  /          
                |  |  |   |  __  | /  /__\  \  |    /   |      \           
                |  |  |   | |  | | |   __   |  |    \   |  |\   \          
                \     /   | |  | | |  |  |  |  | |\  \  |  | \   \       
                 \___/    |_|  |_| |__|  |__|  |_| \__\ |__|  \__/        
                                                                              
                      - O R C A' S   B I G   F R I E N D -                    
                                      &                                       
                       - I N T E G R A L  F E E D E R -                       
                                                                              
 v1 FN, 2020, v2 2021, v3 2022-2024                                           
------------------------------------------------------------------------------


----------------------
SHARK INTEGRAL PACKAGE
----------------------

Number of atoms                             ...     42
Number of basis functions                   ...    903
Number of shells                            ...    351
Maximum angular momentum                    ...      3
Integral batch strategy                     ... SHARK/LIBINT Hybrid
RI-J (if used) integral strategy            ... SPLIT-RIJ (Revised 2003 algorithm where possible)
Printlevel                                  ...      1
Contraction scheme used                     ... SEGMENTED contraction
Prescreening option                         ... SCHWARTZ
   Thresh                                   ... 2.500e-11
   Tcut                                     ... 2.500e-12
   Tpresel                                  ... 2.500e-12 
Coulomb Range Separation                    ... NOT USED
Exchange Range Separation                   ... Long Range
   Mu parameter                             ... 2.500e-01
   Scaling (regular/separated)              ... 1.957e-01 8.043e-01
Robust (split-)RI terms used:
  metric    (central integrals)             ... YES
  density   (r.h.s.  integrals)             ... YES
  potential (l.h.s.  integrals)             ... YES
Multipole approximations                    ... NOT USED
Finite Nucleus Model                        ... NOT USED
CABS basis                                  ... NOT available
Auxiliary Coulomb fitting basis             ... AVAILABLE
   # of basis functions in Aux-J            ...   1457
   # of shells in Aux-J                     ...    473
   Maximum angular momentum in Aux-J        ...      4
Auxiliary J/K fitting basis                 ... NOT available
Auxiliary Correlation fitting basis         ... NOT available
Auxiliary 'external' fitting basis          ... NOT available

Checking pre-screening integrals            ... done (  0.0 sec) Dimension = 351
   => SHARK Basis and OBASIS are compatible. Storing Pre-screening
Shell pair information
Shell pair cut-off parameter TPreSel        ...   2.5e-12
Total number of shell pairs                 ...     61776
Shell pairs after pre-screening             ...     43746
Total number of primitive shell pairs       ...    193764
Primitive shell pairs kept                  ...     89275
          la=0 lb=0:  10682 shell pairs
          la=1 lb=0:  12550 shell pairs
          la=1 lb=1:   3664 shell pairs
          la=2 lb=0:   6430 shell pairs
          la=2 lb=1:   3867 shell pairs
          la=2 lb=2:   1053 shell pairs
          la=3 lb=0:   2743 shell pairs
          la=3 lb=1:   1710 shell pairs
          la=3 lb=2:    860 shell pairs
          la=3 lb=3:    187 shell pairs

Checking whether 4 symmetric matrices of dimension 903 fit in memory
:Max Core in MB      =   3000.00
 MB in use           =     56.45
 MB left             =   2943.55
 MB needed           =     12.46
 Data fit in memory  = YES
Calculating RI/J V-Matrix + Cholesky decomp.... done (  0.1 sec)
Calculating Nuclear repulsion               ... done (  0.0 sec) ENN=   2395.276864768696 Eh

Diagonalization of the overlap matrix:
Smallest eigenvalue                        ... 1.019e-05
Time for diagonalization                   ...    0.232 sec
Threshold for overlap eigenvalues          ... 1.000e-07
Number of eigenvalues below threshold      ... 0
Time for construction of square roots      ...    0.112 sec
Total time needed                          ...    0.353 sec

-------------------
DFT GRID GENERATION
-------------------

General Integration Accuracy     IntAcc      ... 4.959
Radial Grid Type                 RadialGrid  ... OptM3 with GC (2021)
Angular Grid (max. ang.)         AngularGrid ... 6 (Lebedev-590)
Angular grid pruning method      GridPruning ... 4 (adaptive)
Weight generation scheme         WeightScheme... mBecke (2022)
Basis function cutoff            BFCut       ... 1.0000e-11
Integration weight cutoff        WCut        ... 1.0000e-14
Partially contracted basis set               ... off
Rotationally invariant grid construction     ... off
Angular grids for H and He will be reduced by one unit

Total number of grid points                  ...   503735
Total number of batches                      ...     7886
Average number of points per batch           ...       63
Average number of grid points per atom       ...    11994

--------------------
COSX GRID GENERATION
--------------------

GRIDX 1
-------
General Integration Accuracy     IntAcc      ... 4.020
Radial Grid Type                 RadialGrid  ... OptM3 with GC (2021)
Angular Grid (max. ang.)         AngularGrid ... 2 (Lebedev-110)
Angular grid pruning method      GridPruning ... 4 (adaptive)
Weight generation scheme         WeightScheme... mBecke (2022)
Basis function cutoff            BFCut       ... 1.0000e-11
Integration weight cutoff        WCut        ... 1.0000e-14
Partially contracted basis set               ... on
Rotationally invariant grid construction     ... off
Angular grids for H and He will be reduced by one unit

Total number of grid points                  ...    57132
Total number of batches                      ...      466
Average number of points per batch           ...      122
Average number of grid points per atom       ...     1360
UseSFitting                                  ... on

GRIDX 2
-------
General Integration Accuracy     IntAcc      ... 4.338
Radial Grid Type                 RadialGrid  ... OptM3 with GC (2021)
Angular Grid (max. ang.)         AngularGrid ... 3 (Lebedev-194)
Angular grid pruning method      GridPruning ... 4 (adaptive)
Weight generation scheme         WeightScheme... mBecke (2022)
Basis function cutoff            BFCut       ... 1.0000e-11
Integration weight cutoff        WCut        ... 1.0000e-14
Partially contracted basis set               ... on
Rotationally invariant grid construction     ... off
Angular grids for H and He will be reduced by one unit

Total number of grid points                  ...   125528
Total number of batches                      ...     1000
Average number of points per batch           ...      125
Average number of grid points per atom       ...     2989
UseSFitting                                  ... on

GRIDX 3
-------
General Integration Accuracy     IntAcc      ... 4.871
Radial Grid Type                 RadialGrid  ... OptM3 with GC (2021)
Angular Grid (max. ang.)         AngularGrid ... 4 (Lebedev-302)
Angular grid pruning method      GridPruning ... 4 (adaptive)
Weight generation scheme         WeightScheme... mBecke (2022)
Basis function cutoff            BFCut       ... 1.0000e-11
Integration weight cutoff        WCut        ... 1.0000e-14
Partially contracted basis set               ... on
Rotationally invariant grid construction     ... off
Angular grids for H and He will be reduced by one unit

Total number of grid points                  ...   231789
Total number of batches                      ...     1836
Average number of points per batch           ...      126
Average number of grid points per atom       ...     5519
UseSFitting                                  ... on
Grids setup in  15.8 sec
Initializing property integral containers    ... done (  0.0 sec)

SHARK setup successfully completed in  17.2 seconds

Maximum memory used throughout the entire STARTUP-calculation: 166.9 MB


           ************************************************************
           *        Program running with 4 parallel MPI-processes     *
           *              working on a common directory               *
           ************************************************************
-------------------------------------------------------------------------------
                                 ORCA GUESS
                   Start orbitals & Density for SCF / CASSCF
-------------------------------------------------------------------------------

------------
SCF SETTINGS
------------
Hamiltonian:
 Density Functional     Method          .... DFT(GTOs)
 Exchange Functional    Exchange        .... WB97X-D3
 Correlation Functional Correlation     .... WB97X-D3
 Gradients option       PostSCFGGA      .... off
 Hybrid DFT is turned on
   Fraction HF Exchange ScalHFX         ....  0.195728
   Scaling of DF-GGA-X  ScalDFX         ....  0.000000
   Scaling of DF-GGA-C  ScalDFC         ....  1.000000
   Scaling of DF-LDA-C  ScalLDAC        ....  1.000000
   Perturbative correction              ....  0.000000
 Long-range corrected/Screened/Range-Separated Hybrid DFT is turned on
   Amount of maximum screened exact exchange              ....  0.804272
   Range separation parameter mu (erf(mu*r12)/r12)        ....  0.250000
 RI-approximation to the Coulomb term is turned on
   Number of AuxJ basis functions       .... 1457
   RIJ-COSX (HFX calculated with COS-X)).... on


General Settings:
 Integral files         IntName         .... tddft
 Hartree-Fock type      HFTyp           .... RHF
 Total Charge           Charge          ....    0
 Multiplicity           Mult            ....    1
 Number of Electrons    NEL             ....  184
 Basis Dimension        Dim             ....  903
 Nuclear Repulsion      ENuc            ....   2395.2768647687 Eh

Convergence Acceleration:
 AO-DIIS                CNVDIIS         .... on
   Start iteration      DIISMaxIt       ....    12
   Startup error        DIISStart       ....  0.200000
   # of expansion vecs  DIISMaxEq       ....     5
   Bias factor          DIISBfac        ....   1.050
   Max. coefficient     DIISMaxC        ....  10.000
 MO-DIIS                CNVKDIIS        .... off
 Trust-Rad. Augm. Hess. CNVTRAH         .... auto
   Auto Start mean grad. ratio tolernc. ....  1.125000
   Auto Start start iteration           ....    50
   Auto Start num. interpolation iter.  ....    10
   Max. Number of Micro iterations      ....    24
   Max. Number of Macro iterations      .... Maxiter - #DIIS iter
   Number of Davidson start vectors     ....     2
   Converg. threshold    (grad. norm)   ....   1.000e-05
   Grad. Scal. Fac. for Micro threshold ....   0.100
   Minimum threshold for Micro iter.    ....   1.000e-02
   NR start threshold (gradient norm)   ....   1.000e-04
   Initial trust radius                 ....   0.400
   Minimum AH scaling param. (alpha)    ....   1.000
   Maximum AH scaling param. (alpha)    .... 1000.000
   Quad. conv. algorithm                .... NR
   White noise on init. David. guess    .... on
   Maximum white noise                  ....   0.010
   Pseudo random numbers                .... off
   Inactive MOs                         .... canonical
   Orbital update algorithm             .... Taylor
   Preconditioner                       .... Diag
   Full preconditioner red. dimension   ....   250
 SOSCF                 CNVSOSCF           .... on
   Start iteration     SOSCFMaxIt         ....   150
   Startup grad/error  SOSCFStart         ....  0.003300
   Hessian update      SOSCFHessUp        .... L-BFGS
   Autom. constraints  SOSCFAutoConstrain .... off
 Level Shifting         CNVShift        .... on
   Level shift para.    LevelShift      ....    0.2500
   Turn off err/grad.   ShiftErr        ....    0.0010
 Zerner damping         CNVZerner       .... off
 Static damping         CNVDamp         .... on
   Fraction old density DampFac         ....    0.7000
   Max. Damping (<1)    DampMax         ....    0.9800
   Min. Damping (>=0)   DampMin         ....    0.0000
   Turn off err/grad.   DampErr         ....    0.1000

SCF Procedure:
 Maximum # iterations   MaxIter         ....   125
 SCF integral mode      SCFMode         .... Direct
   Integral package                     .... SHARK and LIBINT hybrid scheme
 Reset frequency        DirectResetFreq ....    20
 Integral Threshold     Thresh          ....  2.500e-11 Eh
 Primitive CutOff       TCut            ....  2.500e-12 Eh

Convergence Tolerance:
 Convergence Check Mode ConvCheckMode   .... Total+1el-Energy
 Convergence forced     ConvForced      .... 1
 Energy Change          TolE            ....  1.000e-08 Eh
 1-El. energy change                    ....  1.000e-05 Eh
 Orbital Gradient       TolG            ....  1.000e-05
 Orbital Rotation angle TolX            ....  1.000e-05
 DIIS Error             TolErr          ....  5.000e-07

------------------------------
INITIAL GUESS: MODEL POTENTIAL
------------------------------
Loading Hartree-Fock densities                     ... done
Calculating cut-offs                               ... done
Initializing the effective Hamiltonian             ... done
Setting up the integral package (SHARK)            ... done
Starting the Coulomb interaction                   ... done (   1.9 sec)
Making the grid                                    ... done (   0.7 sec)
Mapping shells                                     ... done
Starting the XC term evaluation                    ... done (   1.0 sec)
  promolecular density results
     # of electrons  =    183.996423990
     EX              =   -157.477042248
     EC              =     -6.248844446
     EX+EC           =   -163.725886694
Transforming the Hamiltonian                       ... done (   0.1 sec)
Diagonalizing the Hamiltonian                      ... done (   0.2 sec)
Back transforming the eigenvectors                 ... done (   0.1 sec)
Now organizing SCF variables                       ... done
                      ------------------
                      INITIAL GUESS DONE (   4.0 sec)
                      ------------------
             **** ENERGY FILE WAS UPDATED (tddft.en.tmp) ****
Finished Guess after   4.5 sec
Maximum memory used throughout the entire GUESS-calculation: 94.7 MB


           ************************************************************
           *        Program running with 4 parallel MPI-processes     *
           *              working on a common directory               *
           ************************************************************

-------------------------------------------------------------------------------------------
                                      ORCA LEAN-SCF
                              memory conserving SCF solver
-------------------------------------------------------------------------------------------

--------------------
CPCM SOLVATION MODEL
--------------------
CPCM parameters:
  Epsilon                                         ...       8.9990
  Refrac                                          ...       1.4242
  Rsolv                                           ...       1.3000
  Surface type                                    ... GAUSSIAN VDW
  Discretization scheme                           ... Constant charge density
    Threshold for H atoms                         ...       5.0000 (charges/Ang^2)
    Threshold for non-H atoms                     ...       5.0000 (charges/Ang^2)
  Epsilon function type                           ...         CPCM
Solvent:                                          ... DICHLOROMETHANE
Radii:
  Scheme                                          ... Element-dependent radii
  Radius for N  used is    3.5149 Bohr (=   1.8600 Ang.)
  Radius for C  used is    3.8550 Bohr (=   2.0400 Ang.)
  Radius for H  used is    2.4944 Bohr (=   1.3200 Ang.)
  Radius for Mg used is    3.9231 Bohr (=   2.0760 Ang.)
  Radius for O  used is    3.4469 Bohr (=   1.8240 Ang.)
Calculating surface                               ...        done! (  0.0s)
Cavity surface points                             ...         3714
Cavity Volume                                     ...    2655.0298
Cavity Surface-area                               ...    1281.3601
Calculating surface distance matrix               ...        done! (  0.3s)
Performing Cholesky decomposition & store         ...        done! (  0.6s)
Overall time for CPCM initialization              ...                 0.9s

----------------------------------------D-I-I-S--------------------------------------------
Iteration    Energy (Eh)           Delta-E    RMSDP     MaxDP     DIISErr   Damp  Time(sec)
-------------------------------------------------------------------------------------------
               ***  Starting incremental Fock matrix formation  ***
    1    -1265.7007356996309682     0.00e+00  1.67e-03  3.77e-02  2.73e-01  0.700 165.9
    2    -1265.9400383461324964    -2.39e-01  1.35e-03  2.55e-02  1.34e-01  0.700  73.9
                               ***Turning on AO-DIIS***
    3    -1266.0644020844124498    -1.24e-01  8.37e-04  2.15e-02  5.59e-02  0.700  72.4
    4    -1266.1394294274768981    -7.50e-02  1.85e-03  4.72e-02  3.83e-02  0.000  69.2
    5    -1266.3012866577519162    -1.62e-01  2.23e-04  6.61e-03  6.05e-03  0.000  98.6
                              *** Initializing SOSCF ***
---------------------------------------S-O-S-C-F--------------------------------------
Iteration    Energy (Eh)           Delta-E    RMSDP     MaxDP     MaxGrad    Time(sec)
--------------------------------------------------------------------------------------
    6    -1266.3018974748929395    -6.11e-04  1.07e-04  3.73e-03  2.37e-03    63.3
               *** Restarting incremental Fock matrix formation ***
    7    -1266.3020838726906732    -1.86e-04  9.69e-05  2.74e-03  2.48e-03   202.7
    8    -1266.3022614408068875    -1.78e-04  1.76e-04  5.21e-03  1.50e-03   152.1
    9    -1266.3023980546363418    -1.37e-04  5.00e-05  1.15e-03  6.77e-04   133.4
   10    -1266.3024154566669495    -1.74e-05  2.02e-05  6.08e-04  3.57e-04   145.1
   11    -1266.3024223285569860    -6.87e-06  9.55e-06  2.30e-04  8.63e-05   139.7
   12    -1266.3024231057629549    -7.77e-07  6.06e-06  1.37e-04  5.49e-05   106.9
   13    -1266.3024233731189270    -2.67e-07  4.76e-06  1.94e-04  7.52e-06   132.8
   14    -1266.3024233549931523     1.81e-08  4.33e-06  1.61e-04  5.87e-06   119.6
   15    -1266.3024233602595814    -5.27e-09  6.57e-06  3.06e-04  2.32e-06   109.5
                 **** Energy Check signals convergence ****

               *****************************************************
               *                     SUCCESS                       *
               *           SCF CONVERGED AFTER  15 CYCLES          *
               *****************************************************

Recomputing exchange energy using gridx3       ... done (  380.710 sec)
Old exchange energy                            :    -51.116530893 Eh
New exchange energy                            :    -51.116536604 Eh
Exchange energy change after final integration :     -0.000005711 Eh
Total energy after final integration           :  -1266.302429076 Eh
             **** ENERGY FILE WAS UPDATED (tddft.en.tmp) ****

----------------
TOTAL SCF ENERGY
----------------

Total Energy       :      -1266.30242907599268 Eh          -34457.84090 eV

Components:
Nuclear Repulsion  :       2395.27686476869621 Eh           65178.79712 eV
Electronic Energy  :      -3661.55452473925243 Eh          -99635.96401 eV
One Electron Energy:      -6493.75405592809966 Eh         -176704.03132 eV
Two Electron Energy:       2832.19953118884723 Eh           77068.06731 eV
CPCM Dielectric    :         -0.02476339401199 Eh              -0.67385 eV

Virial components:
Potential Energy   :      -2527.09078267083987 Eh          -68765.63617 eV
Kinetic Energy     :       1260.78835359484742 Eh           34307.79528 eV
Virial Ratio       :          2.00437351397276

DFT components:
N(Alpha)           :       91.999997390049 electrons
N(Beta)            :       91.999997390049 electrons
N(Total)           :      183.999994780099 electrons
E(XC)              :     -116.321099577096 Eh       

CPCM Solvation Model Properties:
Surface-charge          :         -0.03648877813104
Corrected charge        :         -0.00000000000000
Outlying charge corr.   :          0.00006247626289 Eh               0.00170 eV
Free-energy (cav+disp)  :  This term is not implemented in the current solvation scheme

---------------
SCF CONVERGENCE
---------------

  Last Energy change         ...    5.2664e-09  Tolerance :   1.0000e-08
  Last MAX-Density change    ...    3.0569e-04  Tolerance :   1.0000e-07
  Last RMS-Density change    ...    6.5670e-06  Tolerance :   5.0000e-09
  Last DIIS Error            ...    2.3714e-03  Tolerance :   5.0000e-07
  Last Orbital Gradient      ...    2.3203e-06  Tolerance :   1.0000e-05
  Last Orbital Rotation      ...    9.7046e-06  Tolerance :   1.0000e-05


----------------
ORBITAL ENERGIES
----------------

  NO   OCC          E(Eh)            E(eV) 
   0   2.0000     -46.835020     -1274.4457 
   1   2.0000     -19.264840      -524.2229 
   2   2.0000     -14.418950      -392.3596 
   3   2.0000     -14.404806      -391.9747 
   4   2.0000     -14.402083      -391.9006 
   5   2.0000     -14.402038      -391.8994 
   6   2.0000     -10.323014      -280.9035 
   7   2.0000     -10.322982      -280.9026 
   8   2.0000     -10.315530      -280.6998 
   9   2.0000     -10.315447      -280.6976 
  10   2.0000     -10.303747      -280.3792 
  11   2.0000     -10.303640      -280.3763 
  12   2.0000     -10.300830      -280.2998 
  13   2.0000     -10.300760      -280.2979 
  14   2.0000     -10.290204      -280.0107 
  15   2.0000     -10.290090      -280.0076 
  16   2.0000     -10.279393      -279.7165 
  17   2.0000     -10.279341      -279.7151 
  18   2.0000     -10.279172      -279.7105 
  19   2.0000     -10.278967      -279.7049 
  20   2.0000     -10.272336      -279.5245 
  21   2.0000     -10.272271      -279.5227 
  22   2.0000     -10.269292      -279.4416 
  23   2.0000     -10.268593      -279.4226 
  24   2.0000     -10.264800      -279.3194 
  25   2.0000     -10.264722      -279.3173 
  26   2.0000      -3.144547       -85.5675 
  27   2.0000      -1.881284       -51.1923 
  28   2.0000      -1.877946       -51.1015 
  29   2.0000      -1.877677       -51.0942 
  30   2.0000      -1.158578       -31.5265 
  31   2.0000      -1.078133       -29.3375 
  32   2.0000      -1.069360       -29.0988 
  33   2.0000      -1.069222       -29.0950 
  34   2.0000      -1.059499       -28.8304 
  35   2.0000      -0.929200       -25.2848 
  36   2.0000      -0.903293       -24.5799 
  37   2.0000      -0.900373       -24.5004 
  38   2.0000      -0.885110       -24.0851 
  39   2.0000      -0.878301       -23.8998 
  40   2.0000      -0.876662       -23.8552 
  41   2.0000      -0.870359       -23.6837 
  42   2.0000      -0.847636       -23.0654 
  43   2.0000      -0.828318       -22.5397 
  44   2.0000      -0.765991       -20.8437 
  45   2.0000      -0.761153       -20.7120 
  46   2.0000      -0.717100       -19.5133 
  47   2.0000      -0.684602       -18.6290 
  48   2.0000      -0.676842       -18.4178 
  49   2.0000      -0.673608       -18.3298 
  50   2.0000      -0.671219       -18.2648 
  51   2.0000      -0.665369       -18.1056 
  52   2.0000      -0.653787       -17.7905 
  53   2.0000      -0.638477       -17.3739 
  54   2.0000      -0.623206       -16.9583 
  55   2.0000      -0.615190       -16.7402 
  56   2.0000      -0.602318       -16.3899 
  57   2.0000      -0.598158       -16.2767 
  58   2.0000      -0.588997       -16.0274 
  59   2.0000      -0.577067       -15.7028 
  60   2.0000      -0.547454       -14.8970 
  61   2.0000      -0.536653       -14.6031 
  62   2.0000      -0.531116       -14.4524 
  63   2.0000      -0.526033       -14.3141 
  64   2.0000      -0.518946       -14.1212 
  65   2.0000      -0.515514       -14.0279 
  66   2.0000      -0.510803       -13.8997 
  67   2.0000      -0.503707       -13.7066 
  68   2.0000      -0.501015       -13.6333 
  69   2.0000      -0.500643       -13.6232 
  70   2.0000      -0.479175       -13.0390 
  71   2.0000      -0.477033       -12.9807 
  72   2.0000      -0.472209       -12.8495 
  73   2.0000      -0.470735       -12.8093 
  74   2.0000      -0.466335       -12.6896 
  75   2.0000      -0.460118       -12.5204 
  76   2.0000      -0.457199       -12.4410 
  77   2.0000      -0.456795       -12.4300 
  78   2.0000      -0.450290       -12.2530 
  79   2.0000      -0.447094       -12.1660 
  80   2.0000      -0.439703       -11.9649 
  81   2.0000      -0.412759       -11.2317 
  82   2.0000      -0.402362       -10.9488 
  83   2.0000      -0.397547       -10.8178 
  84   2.0000      -0.370251       -10.0750 
  85   2.0000      -0.365745        -9.9524 
  86   2.0000      -0.356626        -9.7043 
  87   2.0000      -0.344702        -9.3798 
  88   2.0000      -0.334497        -9.1021 
  89   2.0000      -0.331855        -9.0302 
  90   2.0000      -0.259415        -7.0591 
  91   2.0000      -0.242212        -6.5909 
  92   0.0000      -0.036868        -1.0032 
  93   0.0000      -0.009640        -0.2623 
  94   0.0000       0.071445         1.9441 
  95   0.0000       0.076031         2.0689 
  96   0.0000       0.107248         2.9184 
  97   0.0000       0.116951         3.1824 
  98   0.0000       0.124774         3.3953 
  99   0.0000       0.132842         3.6148 
 100   0.0000       0.136380         3.7111 
 101   0.0000       0.146353         3.9825 
 102   0.0000       0.147203         4.0056 
*Only the first 10 virtual orbitals were printed.

                    ********************************
                    * MULLIKEN POPULATION ANALYSIS *
                    ********************************

-----------------------
MULLIKEN ATOMIC CHARGES
-----------------------
   0 N :   -0.390011
   1 N :   -0.407676
   2 N :   -0.409278
   3 N :   -0.384425
   4 C :   -0.159661
   5 C :   -0.158959
   6 C :    0.199666
   7 C :    0.198719
   8 C :   -0.450069
   9 C :   -0.454190
  10 C :    0.302786
  11 C :    0.304573
  12 C :    0.244691
  13 C :    0.245363
  14 C :   -0.255805
  15 C :   -0.254554
  16 C :   -0.227413
  17 C :   -0.229054
  18 C :   -0.331263
  19 C :   -0.329492
  20 C :    0.244481
  21 C :    0.244517
  22 C :   -0.253365
  23 C :   -0.253381
  24 H :    0.128723
  25 H :    0.136750
  26 H :    0.127059
  27 H :    0.137924
  28 H :    0.152222
  29 H :    0.151907
  30 H :    0.157557
  31 H :    0.157463
  32 H :    0.160804
  33 H :    0.160595
  34 H :    0.164680
  35 H :    0.164673
  36 H :    0.154744
  37 H :    0.154645
  38 Mg:    0.713255
  39 O :   -0.655706
  40 H :    0.398119
  41 H :    0.398388
Sum of atomic charges:   -0.0000000

--------------------------------
MULLIKEN REDUCED ORBITAL CHARGES
--------------------------------
  0 N s       :     3.651004  s :     3.651004
      pz      :     1.300395  p :     3.673833
      px      :     1.218985
      py      :     1.154453
      dz2     :     0.004681  d :     0.061578
      dxz     :     0.009077
      dyz     :     0.010355
      dx2y2   :     0.020508
      dxy     :     0.016957
      f0      :     0.000675  f :     0.003596
      f+1     :     0.000320
      f-1     :     0.000351
      f+2     :     0.000455
      f-2     :     0.000120
      f+3     :     0.000966
      f-3     :     0.000709

  1 N s       :     3.653766  s :     3.653766
      pz      :     1.368472  p :     3.690169
      px      :     1.136510
      py      :     1.185187
      dz2     :     0.004667  d :     0.060104
      dxz     :     0.010098
      dyz     :     0.009249
      dx2y2   :     0.019416
      dxy     :     0.016674
      f0      :     0.000677  f :     0.003637
      f+1     :     0.000388
      f-1     :     0.000351
      f+2     :     0.000584
      f-2     :     0.000097
      f+3     :     0.000687
      f-3     :     0.000852

  2 N s       :     3.653681  s :     3.653681
      pz      :     1.367630  p :     3.691836
      px      :     1.133946
      py      :     1.190259
      dz2     :     0.004685  d :     0.060125
      dxz     :     0.010828
      dyz     :     0.008558
      dx2y2   :     0.019063
      dxy     :     0.016990
      f0      :     0.000673  f :     0.003637
      f+1     :     0.000370
      f-1     :     0.000371
      f+2     :     0.000569
      f-2     :     0.000116
      f+3     :     0.000635
      f-3     :     0.000902

  3 N s       :     3.656362  s :     3.656362
      pz      :     1.329794  p :     3.661882
      px      :     1.190941
      py      :     1.141146
      dz2     :     0.004666  d :     0.062480
      dxz     :     0.009852
      dyz     :     0.011792
      dx2y2   :     0.019204
      dxy     :     0.016966
      f0      :     0.000672  f :     0.003701
      f+1     :     0.000347
      f-1     :     0.000371
      f+2     :     0.000666
      f-2     :     0.000107
      f+3     :     0.000878
      f-3     :     0.000660

  4 C s       :     3.144475  s :     3.144475
      pz      :     1.062046  p :     2.931161
      px      :     0.880052
      py      :     0.989063
      dz2     :     0.005223  d :     0.078547
      dxz     :     0.015909
      dyz     :     0.015717
      dx2y2   :     0.024355
      dxy     :     0.017342
      f0      :     0.000652  f :     0.005477
      f+1     :     0.000168
      f-1     :     0.000977
      f+2     :     0.000304
      f-2     :     0.000750
      f+3     :     0.001313
      f-3     :     0.001312

  5 C s       :     3.143892  s :     3.143892
      pz      :     1.060847  p :     2.931060
      px      :     0.981737
      py      :     0.888476
      dz2     :     0.004725  d :     0.078529
      dxz     :     0.015929
      dyz     :     0.016284
      dx2y2   :     0.023918
      dxy     :     0.017674
      f0      :     0.000584  f :     0.005477
      f+1     :     0.001080
      f-1     :     0.000141
      f+2     :     0.000238
      f-2     :     0.000810
      f+3     :     0.001050
      f-3     :     0.001574

  6 C s       :     3.132968  s :     3.132968
      pz      :     0.849641  p :     2.492720
      px      :     0.901207
      py      :     0.741871
      dz2     :     0.001759  d :     0.160594
      dxz     :     0.028314
      dyz     :     0.039818
      dx2y2   :     0.042916
      dxy     :     0.047787
      f0      :     0.002047  f :     0.014053
      f+1     :     0.000793
      f-1     :     0.001041
      f+2     :     0.001758
      f-2     :     0.001206
      f+3     :     0.005185
      f-3     :     0.002023

  7 C s       :     3.132232  s :     3.132232
      pz      :     0.849649  p :     2.494466
      px      :     0.767128
      py      :     0.877689
      dz2     :     0.001297  d :     0.160529
      dxz     :     0.034756
      dyz     :     0.033554
      dx2y2   :     0.043098
      dxy     :     0.047825
      f0      :     0.002066  f :     0.014054
      f+1     :     0.001030
      f-1     :     0.000774
      f+2     :     0.001534
      f-2     :     0.001433
      f+3     :     0.003401
      f-3     :     0.003817

  8 C s       :     3.324788  s :     3.324788
      pz      :     1.135170  p :     3.050639
      px      :     0.909957
      py      :     1.005512
      dz2     :     0.002840  d :     0.067341
      dxz     :     0.021295
      dyz     :     0.003316
      dx2y2   :     0.030822
      dxy     :     0.009069
      f0      :     0.001527  f :     0.007300
      f+1     :     0.000731
      f-1     :     0.000679
      f+2     :     0.000419
      f-2     :     0.000728
      f+3     :     0.002130
      f-3     :     0.001086

  9 C s       :     3.330704  s :     3.330704
      pz      :     1.135275  p :     3.048946
      px      :     0.997719
      py      :     0.915952
      dz2     :     0.002823  d :     0.067240
      dxz     :     0.003265
      dyz     :     0.021357
      dx2y2   :     0.031112
      dxy     :     0.008683
      f0      :     0.001528  f :     0.007301
      f+1     :     0.000686
      f-1     :     0.000725
      f+2     :     0.000436
      f-2     :     0.000707
      f+3     :     0.001183
      f-3     :     0.002035

 10 C s       :     3.109124  s :     3.109124
      pz      :     0.863315  p :     2.411458
      px      :     0.792816
      py      :     0.755327
      dz2     :     0.002403  d :     0.162000
      dxz     :     0.035128
      dyz     :     0.036834
      dx2y2   :     0.041164
      dxy     :     0.046472
      f0      :     0.002242  f :     0.014633
      f+1     :     0.000858
      f-1     :     0.001037
      f+2     :     0.001953
      f-2     :     0.001182
      f+3     :     0.004214
      f-3     :     0.003148

 11 C s       :     3.108761  s :     3.108761
      pz      :     0.864136  p :     2.410198
      px      :     0.743103
      py      :     0.802959
      dz2     :     0.002479  d :     0.161849
      dxz     :     0.039409
      dyz     :     0.032367
      dx2y2   :     0.041046
      dxy     :     0.046548
      f0      :     0.002234  f :     0.014620
      f+1     :     0.001065
      f-1     :     0.000835
      f+2     :     0.002372
      f-2     :     0.000762
      f+3     :     0.002063
      f-3     :     0.005290

 12 C s       :     3.103892  s :     3.103892
      pz      :     0.957179  p :     2.483479
      px      :     0.725777
      py      :     0.800523
      dz2     :     0.003373  d :     0.153651
      dxz     :     0.037612
      dyz     :     0.026895
      dx2y2   :     0.041003
      dxy     :     0.044768
      f0      :     0.002223  f :     0.014288
      f+1     :     0.001093
      f-1     :     0.000843
      f+2     :     0.002266
      f-2     :     0.000573
      f+3     :     0.002061
      f-3     :     0.005229

 13 C s       :     3.102846  s :     3.102846
      pz      :     0.957161  p :     2.484199
      px      :     0.787644
      py      :     0.739394
      dz2     :     0.003515  d :     0.153308
      dxz     :     0.028726
      dyz     :     0.035470
      dx2y2   :     0.040404
      dxy     :     0.045193
      f0      :     0.002208  f :     0.014284
      f+1     :     0.000876
      f-1     :     0.001081
      f+2     :     0.001751
      f-2     :     0.001094
      f+3     :     0.004177
      f-3     :     0.003098

 14 C s       :     3.273652  s :     3.273652
      pz      :     1.028591  p :     2.893246
      px      :     0.916307
      py      :     0.948348
      dz2     :     0.004930  d :     0.081212
      dxz     :     0.019206
      dyz     :     0.007528
      dx2y2   :     0.029513
      dxy     :     0.020033
      f0      :     0.001545  f :     0.007694
      f+1     :     0.000517
      f-1     :     0.000842
      f+2     :     0.000069
      f-2     :     0.001199
      f+3     :     0.002240
      f-3     :     0.001282

 15 C s       :     3.272914  s :     3.272914
      pz      :     1.028619  p :     2.892746
      px      :     0.956421
      py      :     0.907707
      dz2     :     0.005003  d :     0.081201
      dxz     :     0.009006
      dyz     :     0.017680
      dx2y2   :     0.031067
      dxy     :     0.018445
      f0      :     0.001536  f :     0.007693
      f+1     :     0.000806
      f-1     :     0.000561
      f+2     :     0.000366
      f-2     :     0.000908
      f+3     :     0.001901
      f-3     :     0.001616

 16 C s       :     3.278495  s :     3.278495
      pz      :     0.969699  p :     2.854956
      px      :     0.965738
      py      :     0.919518
      dz2     :     0.004705  d :     0.086165
      dxz     :     0.009870
      dyz     :     0.023090
      dx2y2   :     0.030269
      dxy     :     0.018232
      f0      :     0.001525  f :     0.007797
      f+1     :     0.000786
      f-1     :     0.000527
      f+2     :     0.000505
      f-2     :     0.000949
      f+3     :     0.001916
      f-3     :     0.001588

 17 C s       :     3.279426  s :     3.279426
      pz      :     0.969972  p :     2.855630
      px      :     0.926906
      py      :     0.958752
      dz2     :     0.004704  d :     0.086199
      dxz     :     0.025362
      dyz     :     0.007650
      dx2y2   :     0.028757
      dxy     :     0.019726
      f0      :     0.001520  f :     0.007799
      f+1     :     0.000495
      f-1     :     0.000821
      f+2     :     0.000120
      f-2     :     0.001347
      f+3     :     0.002223
      f-3     :     0.001273

 18 C s       :     3.318569  s :     3.318569
      pz      :     0.964045  p :     2.923562
      px      :     1.029074
      py      :     0.930444
      dz2     :     0.002538  d :     0.081899
      dxz     :     0.003261
      dyz     :     0.032683
      dx2y2   :     0.033666
      dxy     :     0.009752
      f0      :     0.001444  f :     0.007233
      f+1     :     0.000627
      f-1     :     0.000639
      f+2     :     0.000447
      f-2     :     0.000829
      f+3     :     0.001133
      f-3     :     0.002113

 19 C s       :     3.318218  s :     3.318218
      pz      :     0.963312  p :     2.922062
      px      :     0.930365
      py      :     1.028384
      dz2     :     0.002481  d :     0.081980
      dxz     :     0.032645
      dyz     :     0.003402
      dx2y2   :     0.033220
      dxy     :     0.010232
      f0      :     0.001445  f :     0.007233
      f+1     :     0.000632
      f-1     :     0.000628
      f+2     :     0.000461
      f-2     :     0.000821
      f+3     :     0.002111
      f-3     :     0.001135

 20 C s       :     3.102801  s :     3.102801
      pz      :     0.962312  p :     2.486052
      px      :     0.748021
      py      :     0.775719
      dz2     :     0.003154  d :     0.152190
      dxz     :     0.034883
      dyz     :     0.027681
      dx2y2   :     0.040859
      dxy     :     0.045613
      f0      :     0.002248  f :     0.014476
      f+1     :     0.001061
      f-1     :     0.000911
      f+2     :     0.001748
      f-2     :     0.001135
      f+3     :     0.003160
      f-3     :     0.004213

 21 C s       :     3.103073  s :     3.103073
      pz      :     0.961858  p :     2.485820
      px      :     0.790982
      py      :     0.732980
      dz2     :     0.003177  d :     0.152117
      dxz     :     0.027252
      dyz     :     0.035201
      dx2y2   :     0.040253
      dxy     :     0.046235
      f0      :     0.002244  f :     0.014473
      f+1     :     0.000861
      f-1     :     0.001115
      f+2     :     0.002256
      f-2     :     0.000629
      f+3     :     0.005308
      f-3     :     0.002061

 22 C s       :     3.274750  s :     3.274750
      pz      :     1.018432  p :     2.887080
      px      :     0.947490
      py      :     0.921158
      dz2     :     0.004910  d :     0.083682
      dxz     :     0.007184
      dyz     :     0.023516
      dx2y2   :     0.028624
      dxy     :     0.019448
      f0      :     0.001542  f :     0.007853
      f+1     :     0.000847
      f-1     :     0.000519
      f+2     :     0.000081
      f-2     :     0.001393
      f+3     :     0.001259
      f-3     :     0.002212

 23 C s       :     3.275326  s :     3.275326
      pz      :     1.018094  p :     2.886472
      px      :     0.913334
      py      :     0.955043
      dz2     :     0.004836  d :     0.083730
      dxz     :     0.021752
      dyz     :     0.009074
      dx2y2   :     0.029959
      dxy     :     0.018110
      f0      :     0.001545  f :     0.007852
      f+1     :     0.000544
      f-1     :     0.000814
      f+2     :     0.000453
      f-2     :     0.001028
      f+3     :     0.001601
      f-3     :     0.001866

 24 H s       :     0.849284  s :     0.849284
      pz      :     0.011199  p :     0.021994
      px      :     0.004218
      py      :     0.006576

 25 H s       :     0.841452  s :     0.841452
      pz      :     0.008322  p :     0.021798
      px      :     0.004291
      py      :     0.009185

 26 H s       :     0.850969  s :     0.850969
      pz      :     0.010675  p :     0.021971
      px      :     0.007196
      py      :     0.004100

 27 H s       :     0.840266  s :     0.840266
      pz      :     0.008848  p :     0.021810
      px      :     0.008833
      py      :     0.004129

 28 H s       :     0.824811  s :     0.824811
      pz      :     0.005749  p :     0.022968
      px      :     0.003448
      py      :     0.013771

 29 H s       :     0.825125  s :     0.825125
      pz      :     0.005741  p :     0.022967
      px      :     0.013731
      py      :     0.003496

 30 H s       :     0.820379  s :     0.820379
      pz      :     0.004764  p :     0.022065
      px      :     0.003489
      py      :     0.013811

 31 H s       :     0.820472  s :     0.820472
      pz      :     0.004768  p :     0.022065
      px      :     0.013254
      py      :     0.004043

 32 H s       :     0.817347  s :     0.817347
      pz      :     0.004411  p :     0.021850
      px      :     0.013310
      py      :     0.004128

 33 H s       :     0.817551  s :     0.817551
      pz      :     0.004436  p :     0.021854
      px      :     0.003558
      py      :     0.013860

 34 H s       :     0.813016  s :     0.813016
      pz      :     0.004655  p :     0.022304
      px      :     0.014071
      py      :     0.003578

 35 H s       :     0.813026  s :     0.813026
      pz      :     0.004667  p :     0.022301
      px      :     0.003555
      py      :     0.014080

 36 H s       :     0.823224  s :     0.823224
      pz      :     0.004732  p :     0.022032
      px      :     0.013766
      py      :     0.003535

 37 H s       :     0.823325  s :     0.823325
      pz      :     0.004745  p :     0.022030
      px      :     0.004086
      py      :     0.013199

 38 Mgs       :     4.470170  s :     4.470170
      pz      :     2.136832  p :     6.512431
      px      :     2.188960
      py      :     2.186639
      dz2     :     0.048139  d :     0.304144
      dxz     :     0.037840
      dyz     :     0.035945
      dx2y2   :     0.022229
      dxy     :     0.159990

 39 O s       :     3.769441  s :     3.769441
      pz      :     1.761009  p :     4.866378
      px      :     1.609850
      py      :     1.495520
      dz2     :     0.001400  d :     0.018559
      dxz     :     0.003595
      dyz     :     0.004418
      dx2y2   :     0.007555
      dxy     :     0.001591
      f0      :     0.000258  f :     0.001328
      f+1     :     0.000049
      f-1     :     0.000053
      f+2     :     0.000341
      f-2     :     0.000141
      f+3     :     0.000078
      f-3     :     0.000408

 40 H s       :     0.557684  s :     0.557684
      pz      :     0.014292  p :     0.044197
      px      :     0.011610
      py      :     0.018295

 41 H s       :     0.557390  s :     0.557390
      pz      :     0.013876  p :     0.044222
      px      :     0.018071
      py      :     0.012276



                     *******************************
                     * LOEWDIN POPULATION ANALYSIS *
                     *******************************

----------------------
LOEWDIN ATOMIC CHARGES
----------------------
   0 N :    0.183841
   1 N :    0.167435
   2 N :    0.166991
   3 N :    0.183128
   4 C :   -0.190478
   5 C :   -0.190439
   6 C :   -0.188147
   7 C :   -0.188295
   8 C :   -0.152617
   9 C :   -0.152649
  10 C :   -0.199369
  11 C :   -0.199641
  12 C :   -0.221576
  13 C :   -0.222000
  14 C :   -0.130553
  15 C :   -0.130855
  16 C :   -0.109812
  17 C :   -0.110148
  18 C :   -0.071495
  19 C :   -0.071323
  20 C :   -0.225687
  21 C :   -0.225844
  22 C :   -0.136708
  23 C :   -0.136549
  24 H :    0.151380
  25 H :    0.148000
  26 H :    0.150629
  27 H :    0.148443
  28 H :    0.161819
  29 H :    0.161804
  30 H :    0.145899
  31 H :    0.145867
  32 H :    0.148606
  33 H :    0.148538
  34 H :    0.168834
  35 H :    0.168838
  36 H :    0.144854
  37 H :    0.144880
  38 Mg:    0.118418
  39 O :   -0.114918
  40 H :    0.205350
  41 H :    0.205549

-------------------------------
LOEWDIN REDUCED ORBITAL CHARGES
-------------------------------
  0 N s       :     2.975972  s :     2.975972
      pz      :     1.145894  p :     3.616282
      px      :     1.259550
      py      :     1.210838
      dz2     :     0.016378  d :     0.205555
      dxz     :     0.022574
      dyz     :     0.028860
      dx2y2   :     0.074409
      dxy     :     0.063333
      f0      :     0.001186  f :     0.018349
      f+1     :     0.001184
      f-1     :     0.001399
      f+2     :     0.002826
      f-2     :     0.000458
      f+3     :     0.006661
      f-3     :     0.004636

  1 N s       :     2.973417  s :     2.973417
      pz      :     1.201918  p :     3.640751
      px      :     1.189258
      py      :     1.249575
      dz2     :     0.016158  d :     0.199929
      dxz     :     0.030983
      dyz     :     0.022943
      dx2y2   :     0.070106
      dxy     :     0.059739
      f0      :     0.001128  f :     0.018468
      f+1     :     0.001336
      f-1     :     0.001225
      f+2     :     0.003513
      f-2     :     0.000301
      f+3     :     0.004758
      f-3     :     0.006207

  2 N s       :     2.973626  s :     2.973626
      pz      :     1.202164  p :     3.640982
      px      :     1.202605
      py      :     1.236213
      dz2     :     0.016182  d :     0.199939
      dxz     :     0.029573
      dyz     :     0.024519
      dx2y2   :     0.068958
      dxy     :     0.060707
      f0      :     0.001125  f :     0.018462
      f+1     :     0.001406
      f-1     :     0.001158
      f+2     :     0.003413
      f-2     :     0.000420
      f+3     :     0.004474
      f-3     :     0.006465

  3 N s       :     2.973894  s :     2.973894
      pz      :     1.171312  p :     3.618444
      px      :     1.247061
      py      :     1.200071
      dz2     :     0.016087  d :     0.205645
      dxz     :     0.026157
      dyz     :     0.034033
      dx2y2   :     0.069079
      dxy     :     0.060290
      f0      :     0.001091  f :     0.018888
      f+1     :     0.001166
      f-1     :     0.001354
      f+2     :     0.003971
      f-2     :     0.000346
      f+3     :     0.006352
      f-3     :     0.004609

  4 C s       :     2.763459  s :     2.763459
      pz      :     1.038144  p :     3.027877
      px      :     0.984931
      py      :     1.004803
      dz2     :     0.043677  d :     0.359256
      dxz     :     0.047690
      dyz     :     0.090560
      dx2y2   :     0.092176
      dxy     :     0.085153
      f0      :     0.004140  f :     0.039886
      f+1     :     0.003140
      f-1     :     0.003991
      f+2     :     0.004368
      f-2     :     0.005378
      f+3     :     0.009133
      f-3     :     0.009736

  5 C s       :     2.763562  s :     2.763562
      pz      :     1.038268  p :     3.027863
      px      :     1.002805
      py      :     0.986790
      dz2     :     0.040571  d :     0.359144
      dxz     :     0.093851
      dyz     :     0.048239
      dx2y2   :     0.086419
      dxy     :     0.090064
      f0      :     0.003865  f :     0.039869
      f+1     :     0.004364
      f-1     :     0.003215
      f+2     :     0.004217
      f-2     :     0.005192
      f+3     :     0.007501
      f-3     :     0.011514

  6 C s       :     2.713825  s :     2.713825
      pz      :     0.791056  p :     2.754872
      px      :     1.015362
      py      :     0.948455
      dz2     :     0.041656  d :     0.641533
      dxz     :     0.088213
      dyz     :     0.117383
      dx2y2   :     0.192489
      dxy     :     0.201792
      f0      :     0.005184  f :     0.077917
      f+1     :     0.004110
      f-1     :     0.006212
      f+2     :     0.011569
      f-2     :     0.006774
      f+3     :     0.030911
      f-3     :     0.013157

  7 C s       :     2.713800  s :     2.713800
[...]
  0-1A  -> 16-1A    5.572824   44947.9   222.5   0.129028364   0.03964   0.12622  -0.15395  -0.00220
  0-1A  -> 17-1A    5.755770   46423.4   215.4   0.001113028   0.00035  -0.01103  -0.01266  -0.00844
  0-1A  -> 18-1A    5.773346   46565.2   214.8   0.002224542   0.00071   0.00607   0.00815  -0.02459
  0-1A  -> 19-1A    5.891016   47514.3   210.5   0.134714494   0.04375   0.12951  -0.16424  -0.00055
  0-1A  -> 20-1A    6.007440   48453.3   206.4   0.029295795   0.00970   0.06813  -0.07113  -0.00107
  0-1A  -> 21-1A    6.070736   48963.8   204.2   0.016399626   0.00549  -0.04536   0.05774   0.00986
  0-1A  -> 22-1A    6.101708   49213.6   203.2   0.000651930   0.00022  -0.00396  -0.00683  -0.01253
  0-1A  -> 23-1A    6.232570   50269.1   198.9   0.000091781   0.00003   0.00522  -0.00182  -0.00102
  0-1A  -> 24-1A    6.255312   50452.5   198.2   0.004532909   0.00156  -0.02906  -0.02281   0.01408
  0-1A  -> 25-1A    6.290227   50734.1   197.1   0.000370055   0.00013   0.00859  -0.00708  -0.00209
  0-1A  -> 26-1A    6.414955   51740.1   193.3   0.001500120   0.00053   0.00020   0.00799  -0.02160
  0-1A  -> 27-1A    6.509905   52505.9   190.5   0.019880895   0.00713  -0.00815   0.08270   0.01513
  0-1A  -> 28-1A    6.516632   52560.2   190.3   0.029795881   0.01070  -0.08785   0.05448  -0.00413
  0-1A  -> 29-1A    6.605990   53280.9   187.7   0.001048212   0.00038   0.01216   0.01502   0.00291
  0-1A  -> 30-1A    6.709292   54114.1   184.8   0.049913798   0.01846  -0.08664   0.10458   0.00403

------------------------------------------------------------------------------------------
                     CD SPECTRUM VIA TRANSITION ELECTRIC DIPOLE MOMENTS    
------------------------------------------------------------------------------------------
     Transition      Energy     Energy  Wavelength    R        MX        MY        MZ   
                      (eV)      (cm-1)    (nm)   (1e40*cgs)   (au)      (au)      (au)  
------------------------------------------------------------------------------------------
  0-1A  ->  1-1A    2.101717   16951.5   589.9    4.04053  -0.01788  -0.02695   1.07038
  0-1A  ->  2-1A    2.591894   20905.0   478.4   -0.48779  -0.00505   0.01005   0.00131
  0-1A  ->  3-1A    3.382271   27279.9   366.6  -23.99656  -0.03227   0.05940   0.00206
  0-1A  ->  4-1A    3.642447   29378.3   340.4    5.52890  -0.06927  -0.05915  -0.09469
  0-1A  ->  5-1A    4.177996   33697.8   296.8   -2.83478   0.00072   0.01628  -0.76575
  0-1A  ->  6-1A    4.272366   34459.0   290.2   -2.25537   0.03101  -0.05010  -0.01043
  0-1A  ->  7-1A    4.738690   38220.1   261.6   -3.38401  -0.00778   0.01878   0.00582
  0-1A  ->  8-1A    4.891293   39450.9   253.5    6.31004   0.18074  -0.22240  -0.04509
  0-1A  ->  9-1A    4.962816   40027.8   249.8    5.09044  -0.03628  -0.04969   0.46449
  0-1A  -> 10-1A    5.183953   41811.4   239.2    1.30052  -0.05193  -0.03912  -0.01992
  0-1A  -> 11-1A    5.223515   42130.5   237.4    8.33737   0.00627   0.01882  -0.75413
  0-1A  -> 12-1A    5.264755   42463.1   235.5   -1.93780  -0.00079  -0.01082   0.05342
  0-1A  -> 13-1A    5.320034   42909.0   233.1    0.09706   0.16415   0.12878   0.11790
  0-1A  -> 14-1A    5.410600   43639.4   229.2    1.04764  -0.05687   0.07266   0.05040
  0-1A  -> 15-1A    5.500825   44367.2   225.4   -2.02839  -0.00311   0.01528  -0.00098
  0-1A  -> 16-1A    5.572824   44947.9   222.5   -2.42638  -0.03856  -0.01789  -0.49068
  0-1A  -> 17-1A    5.755770   46423.4   215.4    0.02940   0.00109  -0.00309   0.00161
  0-1A  -> 18-1A    5.773346   46565.2   214.8   -0.88402   0.02305  -0.03259   0.01196
  0-1A  -> 19-1A    5.891016   47514.3   210.5    1.45537   0.01615   0.00742   0.37104
  0-1A  -> 20-1A    6.007440   48453.3   206.4   -1.39382  -0.07626  -0.06554   0.10976
  0-1A  -> 21-1A    6.070736   48963.8   204.2    6.26815   0.02059   0.00915   0.33894
  0-1A  -> 22-1A    6.101708   49213.6   203.2   -0.37611  -0.02431   0.02525   0.00807
  0-1A  -> 23-1A    6.232570   50269.1   198.9   -0.35585   0.04398   0.01293   0.40460
  0-1A  -> 24-1A    6.255312   50452.5   198.2    3.11835   0.01373  -0.06335   0.03169
  0-1A  -> 25-1A    6.290227   50734.1   197.1   -0.57597  -0.06560  -0.04359   0.01430
  0-1A  -> 26-1A    6.414955   51740.1   193.3    2.88062  -0.12909   0.15530  -0.01223
  0-1A  -> 27-1A    6.509905   52505.9   190.5  -14.34188  -0.00537  -0.09680   0.04714
  0-1A  -> 28-1A    6.516632   52560.2   190.3   10.32195  -0.05283   0.01415   0.04501
  0-1A  -> 29-1A    6.605990   53280.9   187.7   10.84993   0.24686   0.19368  -0.09230
  0-1A  -> 30-1A    6.709292   54114.1   184.8    0.56488  -0.00220  -0.00523   0.16366

------------------------------------------------------------------------------------------
                     CD SPECTRUM VIA TRANSITION VELOCITY DIPOLE MOMENTS    
------------------------------------------------------------------------------------------
     Transition      Energy     Energy  Wavelength    R        MX        MY        MZ   
                      (eV)      (cm-1)    (nm)   (1e40*cgs)   (au)      (au)      (au)  
------------------------------------------------------------------------------------------
  0-1A  ->  1-1A    2.101717   16951.5   589.9    4.39515  -0.01788  -0.02695   1.07038
  0-1A  ->  2-1A    2.591894   20905.0   478.4   -0.48504  -0.00505   0.01005   0.00131
  0-1A  ->  3-1A    3.382271   27279.9   366.6  -23.84510  -0.03227   0.05940   0.00206
  0-1A  ->  4-1A    3.642447   29378.3   340.4    5.50432  -0.06927  -0.05915  -0.09469
  0-1A  ->  5-1A    4.177996   33697.8   296.8   -2.91294   0.00072   0.01628  -0.76575
  0-1A  ->  6-1A    4.272366   34459.0   290.2   -2.25078   0.03101  -0.05010  -0.01043
  0-1A  ->  7-1A    4.738690   38220.1   261.6   -3.38059  -0.00778   0.01878   0.00582
  0-1A  ->  8-1A    4.891293   39450.9   253.5    6.30802   0.18074  -0.22240  -0.04509
  0-1A  ->  9-1A    4.962816   40027.8   249.8    5.05150  -0.03628  -0.04969   0.46449
  0-1A  -> 10-1A    5.183953   41811.4   239.2    1.41458  -0.05193  -0.03912  -0.01992
  0-1A  -> 11-1A    5.223515   42130.5   237.4    8.52971   0.00627   0.01882  -0.75413
  0-1A  -> 12-1A    5.264755   42463.1   235.5   -1.94894  -0.00079  -0.01082   0.05342
  0-1A  -> 13-1A    5.320034   42909.0   233.1    0.00277   0.16415   0.12878   0.11790
  0-1A  -> 14-1A    5.410600   43639.4   229.2    1.24219  -0.05687   0.07266   0.05040
  0-1A  -> 15-1A    5.500825   44367.2   225.4   -2.01723  -0.00311   0.01528  -0.00098
  0-1A  -> 16-1A    5.572824   44947.9   222.5   -2.37545  -0.03856  -0.01789  -0.49068
  0-1A  -> 17-1A    5.755770   46423.4   215.4    0.03010   0.00109  -0.00309   0.00161
  0-1A  -> 18-1A    5.773346   46565.2   214.8   -0.93289   0.02305  -0.03259   0.01196
  0-1A  -> 19-1A    5.891016   47514.3   210.5    1.45522   0.01615   0.00742   0.37104
  0-1A  -> 20-1A    6.007440   48453.3   206.4   -1.39002  -0.07626  -0.06554   0.10976
  0-1A  -> 21-1A    6.070736   48963.8   204.2    6.20252   0.02059   0.00915   0.33894
  0-1A  -> 22-1A    6.101708   49213.6   203.2   -0.37273  -0.02431   0.02525   0.00807
  0-1A  -> 23-1A    6.232570   50269.1   198.9   -0.42362   0.04398   0.01293   0.40460
  0-1A  -> 24-1A    6.255312   50452.5   198.2    3.06058   0.01373  -0.06335   0.03169
  0-1A  -> 25-1A    6.290227   50734.1   197.1   -0.58024  -0.06560  -0.04359   0.01430
  0-1A  -> 26-1A    6.414955   51740.1   193.3    2.95945  -0.12909   0.15530  -0.01223
  0-1A  -> 27-1A    6.509905   52505.9   190.5  -14.28426  -0.00537  -0.09680   0.04714
  0-1A  -> 28-1A    6.516632   52560.2   190.3   10.28891  -0.05283   0.01415   0.04501
  0-1A  -> 29-1A    6.605990   53280.9   187.7   10.95449   0.24686   0.19368  -0.09230
  0-1A  -> 30-1A    6.709292   54114.1   184.8    0.58104  -0.00220  -0.00523   0.16366

Total run time:    11932.029 sec

           *** ORCA-CIS/TD-DFT FINISHED WITHOUT ERROR ***
-----------------------
CIS/TD-DFT TOTAL ENERGY
-----------------------

    E(SCF)  =  -1266.302429076 Eh
    DE(CIS) =      0.077236677 Eh (Root  1)
    ----------------------------- ---------
    E(tot)  =  -1266.225192399 Eh


Maximum memory used throughout the entire CIS-calculation: 2711.0 MB
=> NOW LEAVING ORCA_CIS


-------------------------------------------------------------------------------
                          DFT DISPERSION CORRECTION                            
                                                                               
                              DFTD3 V3.1  Rev 1                                
                              USING zero damping                               
-------------------------------------------------------------------------------
The omegaB97X-D3 functional is recognized. Fit by Chai et al.
Active option DFTDOPT                   ...         3   

molecular C6(AA) [au] = 24148.635563 


            DFT-D V3
 parameters
 s6 scaling factor         :     1.0000 
 rs6 scaling factor        :     1.2810 
 s8 scaling factor         :     1.0000 
 rs8 scaling factor        :     1.0940 
 Damping factor alpha6     :    14.0000 
 Damping factor alpha8     :    16.0000 
 ad hoc parameters k1-k3   :    16.0000     1.3333    -4.0000 

 Edisp/kcal,au: -14.211923619572  -0.022648139496 
 E6   /kcal   :  -6.517027178 
 E8   /kcal   :  -7.694896442 
 % E8         :  54.143947348 

-------------------------   ----------------
Dispersion correction           -0.022648139
-------------------------   ----------------


-------------------------   --------------------
FINAL SINGLE POINT ENERGY     -1266.247840538509
-------------------------   --------------------



           ************************************************************
           *        Program running with 4 parallel MPI-processes     *
           *              working on a common directory               *
           ************************************************************

------------------------------------------------------------------------------
                              ORCA PROPERTY CALCULATIONS
------------------------------------------------------------------------------

GBWName                                 ... tddft.gbw
Number of atoms                         ...     42
Number of basis functions               ...    903
Max core memory                         ...   3000 MB

Electric properties:
Dipole moment                           ... YES
Quadrupole moment                       ...  NO
Static polarizability (Dipole/Dipole)   ...  NO
Static polarizability (Dipole/Quad.)    ...  NO
Static polarizability (Quad./Quad.)     ...  NO
Static polarizability (Velocity)        ...  NO
Static hyperpolarizability              ...  NO

Atomic electric properties:
Dipole moment                           ...  NO
Quadrupole moment                       ...  NO
Static polarizability                   ...  NO

Choice of electric origin               ... Center of mass
Position of electric origin             ...     0.033518    -0.007318     0.254024

General magnetic properties:
Magnetizability                         ...  NO

EPR properties:
g-Tensor (aka g-matrix)                 ...  NO
Zero-Field splitting spin-orbit         ...  NO
Zero-field splitting spin-spin          ...  NO
Hyperfine couplings                     ...  NO (   0 nuclei)
Quadrupole couplings                    ...  NO (   0 nuclei)
Contact density                         ...  NO (   0 nuclei)

NMR properties:
Chemical shifts                         ...  NO (   0 nuclei)
Spin-rotation constants                 ...  NO (   0 nuclei)
Spin-spin couplings                     ...  NO (   0 nuclei,    0 pairs)

Choice of magnetic origin               ... GIAO
Position of magnetic origin             ...     0.000000     0.000000     0.000000

Properties with geometric perturbations:
SCF Hessian                             ...  NO
IR spectrum                             ...  NO
VCD spectrum                            ...  NO
X-ray spectroscopy properties:
SCF XES/XAS/RIXS spectra                ...  NO

SCF SOC stabilization energy            ...  NO
Diagonal Born-Oppenheimer correction    ...  NO

-------------
DIPOLE MOMENT
-------------

Method             : SCF
Type of density    : Electron Density
Multiplicity       :   1
Irrep              :   0
Energy             : -1266.3024290759926771 Eh
Basis              : AO
                                X                 Y                 Z
Electronic contribution:     -5.534145475      -4.434669817      -1.019695032
Nuclear contribution   :      7.058745785       5.609567489       2.374276317
                        -----------------------------------------
Total Dipole Moment    :      1.524600310       1.174897672       1.354581285
                        -----------------------------------------
Magnitude (a.u.)       :      2.353652715
Magnitude (Debye)      :      5.982509763



--------------------
Rotational spectrum 
--------------------
 
Rotational constants in cm-1:             0.008427             0.008118             0.004363 
Rotational constants in MHz :           252.622162           243.384689           130.800892 

Dipole components along the rotational axes: 
x,y,z [a.u.] :     1.938828     0.029144     1.334083 
x,y,z [Debye]:     4.928109     0.074077     3.390970 

 

Dipole moment calculation done in   0.3 sec 

Maximum memory used throughout the entire PROP-calculation: 97.6 MB

--------------------------------
SUGGESTED CITATIONS FOR THIS RUN
--------------------------------

Below you find a list of papers that are relevant to this ORCA run
We neither can nor want to force you to cite these papers, but we appreciate if you do
You receive ORCA, which is the product of decades of hard work by many enthusiastic individuals, for free
The only thing we kindly ask in return is that you cite our papers,
We deeply appreciate it, if you show your appreciation for ORCA by not just citing the generic ORCA reference.

Please note that relegating all ORCA citations to the supporting information does *not* help us.
SI sections are not indexed - citations you put there will not count into any citation statistics
But we need these citations in order to attract the funding resources that allow us to do what we are doing

Therefore, if you are a happy ORCA user, please consider citing a few of the papers listed below in the main body of your paper

In addition to the list printed below, the program has created the file tddft.bibtex that contains the list in bibtex format
You can import this file easily into all common literature databanks and citation aid programs

It goes without saying that in many instances, there are alternative algorithms to achieve similar
results as the ones you have gotten from ORCA. It is, of course, also the case that in some instances
ORCA just re-implements algorithms worked out by others. We are fully aware of that and we are also
fully appreciative of our colleagues work. Hence this citation list should not be read as indicating
that the listed papers, which are focused on our own work, are the only ones worth citing. It simply
meant to make it easier for users to cite ORCA specific papers. It is not a substitute for doing your
own literature research and citing the relevant literature in a scientifically appropriate manner.

List of essential papers. We consider these as the minimum necessary citations

  1. Neese, F.
     Software update: the ORCA program system, version 6.0
     WIRES Comput. Molec. Sci. 2025 15(1), e70019
     doi.org/10.1002/wcms.70019

List of papers to cite with high priority. The work reported in these papers was absolutely
necessary for this run to complete.
Our perspective: the developers of density functionals and basis sets usually get cited in chemistry papers
Good! But without the algorithms to do something with them, the functionals or basis sets would not do anything.
Hence, in our opinion, the algorithm design and method developments papers are equally worthy of getting cited

  1. Neese, F.; Olbrich, G.
     Efficient use of the resolution of the identity approximation in time-dependent density functional calculations with hybrid density functionals
     Chem. Phys. Lett. 2002 362 , 170-178
     doi.org/10.1016/s0009-2614(02)01053-9
  2. Neese, F.
     An improvement of the resolution of the identity approximation for the formation of the Coulomb matrix
     J. Comp. Chem. 2003 24(14), 1740-1747
     doi.org/10.1002/jcc.10318
  3. Neese, F.; Wennmohs, F.; Hansen, A.; Becker, U.
     Efficient, approximate and parallel Hartree-Fock and hybrid DFT calculations. A 'chain-of-spheres' algorithm for the Hartree-Fock exchange
     Chem. Phys. 2009 356(1-3), 98-109
     doi.org/10.1016/j.chemphys.2008.10.036
  4. Grimme, S.; Antony, J.; Ehrlich, S.; Krieg, H.
     A consistent and accurate ab initio parametrization of density functional dispersion correction (DFT-D) for the 94 elements H-Pu
     J. Chem. Phys. 2010 132 , 154104
     doi.org/10.1063/1.3382344
  5. Garcia-Rates, M.; Neese, F.
     Effect of the Solute Cavity on the Solvation Energy and its Derivatives within the Framework of the Gaussian Charge Scheme
     J. Comput. Chem. 2020 41 , 922-939
     doi.org/10.1002/jcc.26139
  6. Helmich-Paris, B.; de Souza, B.; Neese, F.; Izsák, R.
     An improved chain of spheres for exchange algorithm
     J. Chem. Phys. 2021 155(10), 104109
     doi.org/10.1063/5.0058766
  7. Neese, F.
     The SHARK Integral Generation and Digestion System
     J. Comp. Chem. 2022 44(3), 381
     doi.org/10.1002/jcc.26942

List of suggested additional citations. These are papers that are important in the 'surrounding' of 
of this run, or papers that preceded the highly important papers. If you like your results we are grateful for a citation.

  1. Izsak, R.; Neese, F.
     An overlap fitted chain of spheres exchange method
     J. Chem. Phys. 2011 135 , 144105
     doi.org/10.1063/1.3646921
  2. Izsak, R.; Hansen, A.; Neese, F.
     The resolution of identity and chain of spheres approximations for the LPNO-CCSD singles Fock term
     Molec. Phys. 2012 110 , 2413-2417
     doi.org/10.1080/00268976.2012.687466
  3. Neese, F.
     The ORCA program system
     WIRES Comput. Molec. Sci. 2012 2(1), 73-78
     doi.org/10.1002/wcms.81
  4. Izsak, R.; Neese, F.; Klopper, W.
     Robust fitting techniques in the chain of spheres approximation to the Fock exchange: The role of the complementary space
     J. Chem. Phys. 2013 139 , 
     doi.org/10.1063/1.4819264
  5. Neese, F.
     Software update: the ORCA program system, version 4.0
     WIRES Comput. Molec. Sci. 2018 8(1), 1-6
     doi.org/10.1002/wcms.1327
  6. Neese, F.; Wennmohs, F.; Becker, U.; Riplinger, C.
     The ORCA quantum chemistry program package
     J. Chem. Phys. 2020 152(22), 224108
     doi.org/10.1063/5.0004608
  7. Neese, F.
     Software update: The ORCA program system—Version 5.0
     WIRES Comput. Molec. Sci. 2022 12(1), e1606
     doi.org/10.1002/wcms.1606

List of optional additional citations

  1. Neese, F.
     Approximate second-order SCF convergence for spin unrestricted wavefunctions
     Chem. Phys. Lett. 2000 325(1-3), 93-98
     doi.org/10.1016/s0009-2614(00)00662-x

Timings for individual modules:

Sum of individual times          ...    14237.216 sec (= 237.287 min)
Startup calculation              ...       17.465 sec (=   0.291 min)   0.1 %
SCF iterations                   ...     2283.010 sec (=  38.050 min)  16.0 %
Property integrals               ...        1.255 sec (=   0.021 min)   0.0 %
Property calculations            ...        2.869 sec (=   0.048 min)   0.0 %
CIS module                       ...    11932.617 sec (= 198.877 min)  83.8 %
                             ****ORCA TERMINATED NORMALLY****
TOTAL RUN TIME: 0 days 3 hours 57 minutes 18 seconds 420 msec
