
                                 *****************
                                 * O   R   C   A *
                                 *****************

                                            #,                                       
                                            ###                                      
                                            ####                                     
                                            #####                                    
                                            ######                                   
                                           ########,                                 
                                     ,,################,,,,,                         
                               ,,#################################,,                 
                          ,,##########################################,,             
                       ,#########################################, ''#####,          
                    ,#############################################,,   '####,        
                  ,##################################################,,,,####,       
                ,###########''''           ''''###############################       
              ,#####''   ,,,,##########,,,,          '''####'''          '####       
            ,##' ,,,,###########################,,,                        '##       
           ' ,,###''''                  '''############,,,                           
         ,,##''                                '''############,,,,        ,,,,,,###''
      ,#''                                            '''#######################'''  
     '                                                          ''''####''''         
             ,#######,   #######,   ,#######,      ##                                
            ,#'     '#,  ##    ##  ,#'     '#,    #''#        ,####,    ,#,          
            ##       ##  ##   ,#'  ##            #'  '#       #'       ,# #          
            ##       ##  #######   ##           ,######,      #####,      #          
            '#,     ,#'  ##    ##  '#,     ,#' ,#      #,     #,   #      #          
             '#######'   ##     ##  '#######'  #'      '#     '####' #    #          



                #########################################################
                #                        -***-                          #
                #          Department of theory and spectroscopy        #
                #                                                       #
                #                      Frank Neese                      #
                #                                                       #
                #     Directorship, Architecture, Infrastructure        #
                #                    SHARK, DRIVERS                     #
                #        Core code/Algorithms in most modules           #
                #                                                       #
                #        Max Planck Institute fuer Kohlenforschung      #
                #                Kaiser Wilhelm Platz 1                 #
                #                 D-45470 Muelheim/Ruhr                 #
                #                      Germany                          #
                #                                                       #
                #                  All rights reserved                  #
                #                        -***-                          #
                #########################################################


                         Program Version 6.1.1  -  RELEASE   -
                                (GIT: $487d211c$)
                          ($2025-11-21 10:33:24 +0100$)


 With contributions from (in alphabetic order):
[Max-Planck-Institut fuer Kohlenforschung]                               
  Daniel Aravena         : Magnetic Suceptibility                        
  Michael Atanasov       : Ab Initio Ligand Field Theory (pilot matlab implementation)
  Alexander A. Auer      : GIAO ZORA, VPT2 properties, NMR spectrum      
  Ute Becker             : All parallelization in ORCA, NUMFREQ, NUMCALC 
  Giovanni Bistoni       : ED, misc. LED, open-shell LED, HFLD           
  Dmytro Bykov           : pre 5.0 version of the SCF Hessian            
  Marcos Casanova-Páez   : Triplet and SCS-CIS(D). UHF-(DLPNO)-IP/EA/STEOM-CCSD. UHF-CVS-IP/STEOM-CCSD   
  Vijay G. Chilkuri      : MRCI spin determinant printing, contributions to CSF-ICE 
  Pauline Colinet        : FMM embedding                                 
  Dipayan Datta          : RHF DLPNO-CCSD density                        
  Achintya Kumar Dutta   : EOM-CC, STEOM-CC                              
  Nicolas Foglia         : Exact transition moments, OPA infrastructure, MCD improvements    
  Dmitry Ganyushin       : Spin-Orbit,Spin-Spin,Magnetic field MRCI      
  Miquel Garcia-Rates    : C-PCM and meta-GGA Hessian, CCSD/C-PCM, Gaussian charge scheme 
  Tiago L. C. Gouveia    : GS-ROHF, GS-ROCIS                             
  Yang Guo               : DLPNO-NEVPT2, F12-NEVPT2, CIM, IAO-localization        
  Andreas Hansen         : Spin unrestricted coupled pair/coupled cluster methods 
  Ingolf Harden          : AUTO-CI MPn and infrastructure                
  Benjamin Helmich-Paris : MC-RPA, TRAH-(SCF,CASSCF), AVAS, COSX integrals, SCF dyn. polar., MC-PDFT, srDFT 
  Lee Huntington         : MR-EOM, pCC                                   
  Robert Izsak           : Overlap fitted RIJCOSX, COSX-SCS-MP3, EOM     
  Riya Kayal             : Wick's Theorem for AUTO-CI, AUTO-CI UHF-CCSDT 
  Emily Kempfer          : AUTO-CI RHF CISDT and CCSDT, approximate NEVPT4
  Christian Kollmar      : KDIIS, OOCD, Brueckner-CCSD(T), CCSD density, CASPT2, CASPT2-K, improved NEVPT2 
  Axel Koslowski         : Symmetry handling                             
  Simone Kossmann        : meta-GGA functionals, TD-DFT gradient, OOMP2, (MP2 Hessian; deprecated post 5.0) 
  Lucas Lang             : DCDCAS, Hyperfine gauge corrections, ICE-SOC+SSC
  Marvin Lechner         : AUTO-CI (C++ implementation), FIC-MRCC        
  Spencer Leger          : CASSCF response                               
  Dagmar Lenk            : GEPOL surface, SMD, ORCA-2-JSON               
  Dimitrios Liakos       : Extrapolation schemes; Compound Job, Property file
  Dimitrios Manganas     : Further ROCIS development; embedding schemes. LFT, Crystal Embedding 
  Dimitrios Pantazis     : SARC Basis sets                               
  Anastasios Papadopoulos: AUTO-CI, single reference methods and gradients 
  Taras Petrenko         : pre 6.0 DFT Hessian and TD-DFT gradient,  ECA, NRVS 
  Petra Pikulova         : Analytic Raman intensities                    
  Peter Pinski           : DLPNO-MP2, DLPNO-MP2 Gradient                 
  Shashank Vittal Rao    : ES-AILFT, MagRelax                            
  Christoph Reimann      : Effective Core Potentials                     
  Marius Retegan         : Local ZFS, SOC                                
  Christoph Riplinger    : Optimizer, TS searches, QM/MM, DLPNO-CCSD(T), (RO)-DLPNO pert. Triples 
  Michael Roemelt        : Original ROCIS implementation, recursive CI coupling coefficients
  Masaaki Saitow         : Open-shell DLPNO-CCSD energy and density      
  Barbara Sandhoefer     : DKH picture change effects                    
  Yorick L. A. Schmerwitz: GMF and freeze-and-release deltaSCF, NEB S-IDPP initial path                    
  Kantharuban Sivalingam : CASSCF convergence/infrastructure, NEVPT2, NEVPT3, NEVPT4(SD), FIC-MRCI and CEPA variants
  Bernardo de Souza      : ESD, SOC TD-DFT                               
  Georgi L. Stoychev     : AutoAux, RI-MP2 NMR, DLPNO-MP2 response, X2C  
  Van Anh Tran           : RI-MP2 g-tensors                              
  Willem Van den Heuvel  : Paramagnetic NMR                              
  Zikuan Wang            : NOTCH, Electric field optimization            
  Frank Wennmohs         : Technical directorship and infrastructure     
  Hang Xu                : AUTO-CI-Response properties                   
                                                                         
[FACCTs GmbH]                                                            
  Markus Bursch, Nicolas Foglia, Miquel Garcia-Rates, Ingolf Harden, Hagen Neugebauer, Anastasios Papadopoulos, 
  Christoph Riplinger, Bernardo de Souza, Georgi L. Stoychev                                                    
                                                                 
  APM, various basis sets, CI-OPT, improved COSX, DLPNO-Multilevel,           
  DOCKER, DRACO, updates on ESD, Fragmentator, GOAT, IRC, LR-CPCM, L-BFGS, MBIS, meta-GGA TD-DFT gradient, ML-optimized integration grids, 
  MM, NACMEs, nearIR, NEB, NEB-TS, NL-DFT gradient (VV10), 2- and 3-layer-ONIOM, interface openCOSMO-RS, QMMM,   
  Crystal-QMMM, RESP, rigid body optimization, SF, symmetry and pop. for TD-DFT, various functionals, SOLVATOR                                   
                                                                         
[Other institutions]                                                     
  V. Asgeirsson          : NEB                                           
  Christoph Bannwarth    : sTDA-DFT, sTD-DFT, PBEh-3c, B97-3c, D3        
  Giovanni Bistoni       : ETS/NOCV, ADLD/ADEX, COVALED                  
  Martin Brehm           : Molecular dynamics                            
  Ronald Cardenas        : ETS/NOCV                                      
  Martina Colucci        : COVALED                                       
  Sebastian Ehlert       : rSCAN, r2SCAN, r2SCAN-3c, D4, dhf basis sets  
  Marvin Friede          : D4 for Fr, Ra, Ac-Lr                          
  Lars Goerigk           : TD-DFT with DH, B97 family of functionals     
  Stefan Grimme          : VdW corrections, initial TS optimization, DFT functionals, gCP, sTDA/sTD-DF 
  Waldemar Hujo          : DFT-NL                                        
  H. Jonsson             : NEB                                           
  Holger Kruse           : gCP                                           
  Marcel Mueller         : wB97X-3c, vDZP basis set                      
  Hagen Neugebauer       : wr2SCAN, Native XTB                           
  Gianluca Regni         : ADLD/ADEX                                     
  Tobias Risthaus        : pre 6.0 range-separated hybrid DFT and stability analysis
  Lukas Wittmann         : regularized MP2, r2SCAN double-hybrids, wr2SCAN        
                                                                         
We gratefully acknowledge several colleagues who have allowed us to      
interface, adapt or use parts of their codes:                            
  Ed Valeev, F. Pavosevic, A. Kumar             : LibInt (2-el integral package), F12 methods 
  Garnet Chan, S. Sharma, J. Yang, R. Olivares  : DMRG                   
  Ulf Ekstrom                                   : XCFun DFT Library      
  Mihaly Kallay                                 : mrcc  (arbitrary order and MRCC methods)
  Frank Weinhold                                : gennbo (NPA and NBO analysis)           
  Simon Mueller                                 : openCOSMO-RS                            
  Christopher J. Cramer and Donald G. Truhlar   : smd solvation model                     
  S Lehtola, MJT Oliveira, MAL Marques          : LibXC Library                           
  Liviu Ungur et al                             : ANISO software                          


 Your calculation uses the libint2 library for the computation of 2-el integrals
 For citations please refer to: http://libint.valeyev.net

 Your ORCA version has been built with support for libXC version: 7.0.0
 For citations please refer to: https://libxc.gitlab.io

 This ORCA versions uses:
   CBLAS   interface :  Fast vector & matrix operations
   LAPACKE interface :  Fast linear algebra routines
   SCALAPACK package :  Parallel linear algebra routines
   Shared memory     :  Shared parallel matrices
   BLAS/LAPACK       :  OpenBLAS 0.3.29  USE64BITINT DYNAMIC_ARCH NO_AFFINITY Haswell SINGLE_THREADED
        Core in use  :  Haswell
   Copyright (c) 2011-2014, The OpenBLAS Project


  ***********************************
  * Starting time: Fri Jul 10 19:00:45 2026
  * Host name:     steezy
  * Process ID:    2052711
  * Working dir.:  /home/jannes/chlorophyll-ladder/009-mgchlorin-axial-ligation/mgchlorin_h2o/03_tddft_ch2cl2/m062x
  ***********************************

NOTE: MaxCore=3000 MB was set to SCF,MP2,MDCI,CIPSI,MRCI,RASCI and CIS
      => If you want to overwrite this, your respective input block should be placed after the MaxCore statement


***************************************
The coordinates will be read from file: /home/jannes/chlorophyll-ladder/009-mgchlorin-axial-ligation/mgchlorin_h2o/01_opt/mgchlorin_h2o_opt_b3lypd4_tzvp.xyz
***************************************


XCFun DFT library Copyright 2009-2010 Ulf Ekstrom and contributors.
See http://admol.org/xcfun for more information.
This is free software; see the source code for copying conditions.
There is ABSOLUTELY NO WARRANTY; not even for MERCHANTABILITY or FITNESS FOR A PARTICULAR PURPOSE.
For details see the documentation.
Scientific users of this library should cite U. Ekstrom, L. Visscher, R. Bast, A. J. Thorvaldsen and K. Ruud;
J.Chem.Theor.Comp. 2010, DOI: 10.1021/ct100117s
XCFun Version 0.99 

================================================================================

----- Orbital basis set information -----
Your calculation utilizes the basis: def2-TZVP
   F. Weigend and R. Ahlrichs, Phys. Chem. Chem. Phys. 7, 3297 (2005).

----- AuxJ basis set information -----
Your calculation utilizes the auxiliary basis: def2/J
   H-Rn: F. Weigend, Phys. Chem. Chem. Phys. 8, 1057 (2006).
   Fr-Lr: K. Eichkorn, F. Weigend, O. Treutler, R. Ahlrichs; Theor. Chem. Acc. 97, 119 (1997).

================================================================================
                                        WARNINGS
                       Please study these warnings very carefully!
================================================================================

WARNING: Functional chosen is sensitive to the integration grid.
         DEFGRID3 seems to be a minimum grid for robust results!

WARNING: CIS/ROCIS methods need fully converged wavefunctions
  ===> : Setting SCFConvForced true
         You can overwrite this default with %scf ConvForced false 


================================================================================
                                       INPUT FILE
================================================================================
NAME = tddft.inp
|  1> %pal nprocs 4 end
|  2> %maxcore 3000
|  3> ! M062X def2-TZVP def2/J RIJCOSX DefGrid3 TightSCF CPCM(CH2Cl2)
|  4> %tddft
|  5>   nroots 30
|  6>   tda false
|  7>   triplets false
|  8> end
|  9> * xyzfile 0 1 /home/jannes/chlorophyll-ladder/009-mgchlorin-axial-ligation/mgchlorin_h2o/01_opt/mgchlorin_h2o_opt_b3lypd4_tzvp.xyz
| 10> 
| 11>                          ****END OF INPUT****
================================================================================

                       ****************************
                       * Single Point Calculation *
                       ****************************

---------------------------------
CARTESIAN COORDINATES (ANGSTROEM)
---------------------------------
  N      1.626237    1.306031    0.038938
  N     -1.306004    1.563454    0.073494
  N      1.278091   -1.617727    0.032663
  N     -1.618670   -1.330354   -0.001239
  C      2.884212    3.312096   -0.106744
  C      3.851613    2.129509    0.036084
  C      1.518889    2.656943   -0.000259
  C      2.927476    0.924704    0.029433
  C      0.345098    3.375640    0.024626
  C      3.390098   -0.371684    0.030361
  C     -0.971571    2.875123    0.046632
  C      2.630694   -1.558342    0.009504
  C     -2.683428    1.493746    0.043446
  C      0.927764   -2.950452   -0.032204
  C     -2.163831    3.684590    0.016307
  C      3.178677   -2.889613   -0.057444
  C     -3.222005    2.827457    0.015258
  C      2.122768   -3.749464   -0.083712
  C     -3.424259    0.324812    0.012386
  C     -0.368495   -3.435740   -0.062660
  C     -2.939096   -0.989888   -0.017415
  C     -1.556212   -2.691802   -0.053844
  C     -3.744507   -2.176095   -0.081554
  C     -2.883300   -3.235943   -0.104918
  H      2.984308    3.808734   -1.074923
  H      3.023248    4.077480    0.657932
  H      4.413638    2.168171    0.972749
  H      4.583647    2.075155   -0.770467
  H      0.439997    4.454120   -0.009359
  H      4.465764   -0.498594    0.017958
  H     -2.182660    4.763077   -0.012865
  H      4.230416   -3.128335   -0.092018
  H     -4.272860    3.071062   -0.014968
  H      2.146008   -4.826710   -0.143520
  H     -4.501372    0.438383   -0.010408
  H     -0.477643   -4.512439   -0.111844
  H     -4.822977   -2.197036   -0.110605
  H     -3.125386   -4.286224   -0.156604
  Mg    -0.024410   -0.037383    0.259696
  O      0.089462    0.001641    2.400445
  H     -0.015446    0.876043    2.793738
  H      0.906415   -0.374880    2.748982

----------------------------
CARTESIAN COORDINATES (A.U.)
----------------------------
  NO LB      ZA    FRAG     MASS         X           Y           Z
   0 N     7.0000    0    14.007    3.073142    2.468041    0.073583
   1 N     7.0000    0    14.007   -2.467990    2.954499    0.138883
   2 N     7.0000    0    14.007    2.415242   -3.057062    0.061724
   3 N     7.0000    0    14.007   -3.058844   -2.514004   -0.002341
   4 C     6.0000    0    12.011    5.450370    6.258954   -0.201717
   5 C     6.0000    0    12.011    7.278494    4.024188    0.068188
   6 C     6.0000    0    12.011    2.870285    5.020895   -0.000488
   7 C     6.0000    0    12.011    5.532128    1.747438    0.055620
   8 C     6.0000    0    12.011    0.652140    6.379035    0.046536
   9 C     6.0000    0    12.011    6.406357   -0.702381    0.057374
  10 C     6.0000    0    12.011   -1.836003    5.433195    0.088122
  11 C     6.0000    0    12.011    4.971290   -2.944840    0.017959
  12 C     6.0000    0    12.011   -5.070944    2.822771    0.082100
  13 C     6.0000    0    12.011    1.753220   -5.575546   -0.060857
  14 C     6.0000    0    12.011   -4.089048    6.962866    0.030817
  15 C     6.0000    0    12.011    6.006830   -5.460577   -0.108554
  16 C     6.0000    0    12.011   -6.088707    5.343119    0.028833
  17 C     6.0000    0    12.011    4.011451   -7.085461   -0.158192
  18 C     6.0000    0    12.011   -6.470911    0.613806    0.023406
  19 C     6.0000    0    12.011   -0.696355   -6.492607   -0.118411
  20 C     6.0000    0    12.011   -5.554086   -1.870617   -0.032909
  21 C     6.0000    0    12.011   -2.940814   -5.086769   -0.101750
  22 C     6.0000    0    12.011   -7.076093   -4.112224   -0.154114
  23 C     6.0000    0    12.011   -5.448647   -6.115046   -0.198266
  24 H     1.0000    0     1.008    5.639524    7.197465   -2.031310
  25 H     1.0000    0     1.008    5.713110    7.705321    1.243310
  26 H     1.0000    0     1.008    8.340566    4.097250    1.838229
  27 H     1.0000    0     1.008    8.661837    3.921474   -1.455971
  28 H     1.0000    0     1.008    0.831474    8.417068   -0.017687
  29 H     1.0000    0     1.008    8.439072   -0.942206    0.033937
  30 H     1.0000    0     1.008   -4.124629    9.000911   -0.024312
  31 H     1.0000    0     1.008    7.994329   -5.911696   -0.173889
  32 H     1.0000    0     1.008   -8.074535    5.803466   -0.028286
  33 H     1.0000    0     1.008    4.055367   -9.121160   -0.271213
  34 H     1.0000    0     1.008   -8.506360    0.828424   -0.019668
  35 H     1.0000    0     1.008   -0.902615   -8.527274   -0.211354
  36 H     1.0000    0     1.008   -9.114105   -4.151796   -0.209014
  37 H     1.0000    0     1.008   -5.906123   -8.099789   -0.295939
  38 Mg   12.0000    0    24.305   -0.046129   -0.070645    0.490755
  39 O     8.0000    0    15.999    0.169058    0.003101    4.536184
  40 H     1.0000    0     1.008   -0.029188    1.655482    5.279399
  41 H     1.0000    0     1.008    1.712876   -0.708421    5.194824

--------------------------------
INTERNAL COORDINATES (ANGSTROEM)
--------------------------------
 N      0   0   0     0.000000000000     0.00000000     0.00000000
 N      1   0   0     2.943721516731     0.00000000     0.00000000
 N      1   2   0     2.944419744066    88.22821202     0.00000000
 N      3   1   2     2.911178508507    91.12635037     1.34167266
 C      1   2   3     2.372345005729   117.06317661   176.24693010
 C      5   1   2     1.534528707660    71.15009076   176.59765671
 C      1   2   3     1.355737662676    80.46391429   178.06387760
 C      1   2   3     1.355995573600   168.68126818   358.54301494
 C      7   1   2     1.376564826847   125.96068500     1.52248966
 C      8   1   7     1.376459981018   125.97094915   181.58682588
 C      2   1   3     1.353899199071    80.70233079   181.18489476
 C      3   1   2     1.354103508536    80.69908692   179.66364965
 C      2   1   3     1.379514252775   171.85646874   346.50317993
 C      3   1   2     1.379525682750   171.65892207    18.71192698
 C     11   2   1     1.441402530311   109.88694227   178.63361876
 C     12   3   1     1.441197157130   109.88239714   182.19272878
 C     15  11   2     1.361767479563   106.81528502   359.54521630
 C     16  12   3     1.361975943462   106.81521067     0.43000617
 C     13   2  11     1.384269234552   125.27672082   177.73206013
 C     14   3  12     1.384456718752   125.27054729   181.49849213
 C      4   3   1     1.363708574783   171.20756988     0.24138409
 C      4   3   1     1.363894974438    81.74059628   177.77833719
 C     21   4  22     1.435231524833   109.72751259     0.04335446
 C     23  21   4     1.365833301255   106.75377651   359.94336044
 H      5   1   2     1.092720945061   119.16379692   281.85954556
 H      5   1   2     1.090812952053   128.16075500    71.36484840
 H      6   5   1     1.093026947053   112.12690580   244.91754971
 H      6   5   1     1.090573515161   113.12488809   123.95340319
 H      9   7   1     1.083181006441   116.39489105   179.72259474
 H     10   8   1     1.083198326177   116.36560415   179.77296715
 H     15  11   2     1.079045426292   125.19031665   180.27269833
 H     16  12   3     1.079045146572   125.20154794   179.71013310
 H     17  15  11     1.079144728524   127.92460432   180.75444031
 H     18  16  12     1.079155013060   127.92162589   179.28104477
 H     19  13   2     1.083323844085   116.36285765   180.08911017
 H     20  14   3     1.083334754912   116.34088540   180.12999787
 H     23  21   4     1.079063908001   125.31735682   180.27287049
 H     24  23  21     1.079058313192   127.92546313   180.33697144
 Mg     2   1   3     2.059085410304    46.61425575     7.93257506
 O     39   2   1     2.144130582759    96.26875525    92.81001535
 H     40  39   2     0.964501862100   114.69880499   329.89614876
 H     40  39   2     0.964707027710   113.49002546   205.95922581

---------------------------
INTERNAL COORDINATES (A.U.)
---------------------------
 N      0   0   0     0.000000000000     0.00000000     0.00000000
 N      1   0   0     5.562827481153     0.00000000     0.00000000
 N      1   2   0     5.564146939595    88.22821202     0.00000000
 N      3   1   2     5.501330108036    91.12635037     1.34167266
 C      1   2   3     4.483082356004   117.06317661   176.24693010
 C      5   1   2     2.899839002117    71.15009076   176.59765671
 C      1   2   3     2.561972891901    80.46391429   178.06387760
 C      1   2   3     2.562460272913   168.68126818   358.54301494
 C      7   1   2     2.601330528330   125.96068500     1.52248966
 C      8   1   7     2.601132398426   125.97094915   181.58682588
 C      2   1   3     2.558498699180    80.70233079   181.18489476
 C      3   1   2     2.558884788116    80.69908692   179.66364965
 C      2   1   3     2.606904135587   171.85646874   346.50317993
 C      3   1   2     2.606925735108   171.65892207    18.71192698
 C     11   2   1     2.723856031028   109.88694227   178.63361876
 C     12   3   1     2.723467931962   109.88239714   182.19272878
 C     15  11   2     2.573367594455   106.81528502   359.54521630
 C     16  12   3     2.573761534133   106.81521067     0.43000617
 C     13   2  11     2.615889748916   125.27672082   177.73206013
 C     14   3  12     2.616244042709   125.27054729   181.49849213
 C      4   3   1     2.577035732819   171.20756988     0.24138409
 C      4   3   1     2.577387977119    81.74059628   177.77833719
 C     21   4  22     2.712194520705   109.72751259     0.04335446
 C     23  21   4     2.581050883961   106.75377651   359.94336044
 H      5   1   2     2.064943326965   119.16379692   281.85954556
 H      5   1   2     2.061337742714   128.16075500    71.36484840
 H      6   5   1     2.065521586925   112.12690580   244.91754971
 H      6   5   1     2.060885272563   113.12488809   123.95340319
 H      9   7   1     2.046915455639   116.39489105   179.72259474
 H     10   8   1     2.046948185197   116.36560415   179.77296715
 H     15  11   2     2.039100341751   125.19031665   180.27269833
 H     16  12   3     2.039099813159   125.20154794   179.71013310
 H     17  15  11     2.039287995775   127.92460432   180.75444031
 H     18  16  12     2.039307430731   127.92162589   179.28104477
 H     19  13   2     2.047185379667   116.36285765   180.08911017
 H     20  14   3     2.047205998143   116.34088540   180.12999787
 H     23  21   4     2.039135267120   125.31735682   180.27287049
 H     24  23  21     2.039124694465   127.92546313   180.33697144
 Mg     2   1   3     3.891107511828    46.61425575     7.93257506
 O     39   2   1     4.051819596780    96.26875525    92.81001535
 H     40  39   2     1.822644375026   114.69880499   329.89614876
 H     40  39   2     1.823032081841   113.49002546   205.95922581

---------------------
BASIS SET INFORMATION
---------------------
There are 5 groups of distinct atoms

 Group   1 Type N   : 11s6p2d1f contracted to 5s3p2d1f pattern {62111/411/11/1}
 Group   2 Type C   : 11s6p2d1f contracted to 5s3p2d1f pattern {62111/411/11/1}
 Group   3 Type H   : 5s1p contracted to 3s1p pattern {311/1}
 Group   4 Type Mg  : 14s8p3d contracted to 5s4p3d pattern {73211/5111/111}
 Group   5 Type O   : 11s6p2d1f contracted to 5s3p2d1f pattern {62111/411/11/1}

Atom   0N    basis set group =>   1
Atom   1N    basis set group =>   1
Atom   2N    basis set group =>   1
Atom   3N    basis set group =>   1
Atom   4C    basis set group =>   2
Atom   5C    basis set group =>   2
Atom   6C    basis set group =>   2
Atom   7C    basis set group =>   2
Atom   8C    basis set group =>   2
Atom   9C    basis set group =>   2
Atom  10C    basis set group =>   2
Atom  11C    basis set group =>   2
Atom  12C    basis set group =>   2
Atom  13C    basis set group =>   2
Atom  14C    basis set group =>   2
Atom  15C    basis set group =>   2
Atom  16C    basis set group =>   2
Atom  17C    basis set group =>   2
Atom  18C    basis set group =>   2
Atom  19C    basis set group =>   2
Atom  20C    basis set group =>   2
Atom  21C    basis set group =>   2
Atom  22C    basis set group =>   2
Atom  23C    basis set group =>   2
Atom  24H    basis set group =>   3
Atom  25H    basis set group =>   3
Atom  26H    basis set group =>   3
Atom  27H    basis set group =>   3
Atom  28H    basis set group =>   3
Atom  29H    basis set group =>   3
Atom  30H    basis set group =>   3
Atom  31H    basis set group =>   3
Atom  32H    basis set group =>   3
Atom  33H    basis set group =>   3
Atom  34H    basis set group =>   3
Atom  35H    basis set group =>   3
Atom  36H    basis set group =>   3
Atom  37H    basis set group =>   3
Atom  38Mg   basis set group =>   4
Atom  39O    basis set group =>   5
Atom  40H    basis set group =>   3
Atom  41H    basis set group =>   3
---------------------------------
AUXILIARY/J BASIS SET INFORMATION
---------------------------------
There are 5 groups of distinct atoms

 Group   1 Type N   : 12s5p4d2f1g contracted to 6s4p3d1f1g pattern {711111/2111/211/2/1}
 Group   2 Type C   : 12s5p4d2f1g contracted to 6s4p3d1f1g pattern {711111/2111/211/2/1}
 Group   3 Type H   : 5s2p1d contracted to 3s1p1d pattern {311/2/1}
 Group   4 Type Mg  : 14s5p5d2f1g contracted to 8s4p4d1f1g pattern {71111111/2111/2111/2/1}
 Group   5 Type O   : 12s5p4d2f1g contracted to 6s4p3d1f1g pattern {711111/2111/211/2/1}

Atom   0N    basis set group =>   1
Atom   1N    basis set group =>   1
Atom   2N    basis set group =>   1
Atom   3N    basis set group =>   1
Atom   4C    basis set group =>   2
Atom   5C    basis set group =>   2
Atom   6C    basis set group =>   2
Atom   7C    basis set group =>   2
Atom   8C    basis set group =>   2
Atom   9C    basis set group =>   2
Atom  10C    basis set group =>   2
Atom  11C    basis set group =>   2
Atom  12C    basis set group =>   2
Atom  13C    basis set group =>   2
Atom  14C    basis set group =>   2
Atom  15C    basis set group =>   2
Atom  16C    basis set group =>   2
Atom  17C    basis set group =>   2
Atom  18C    basis set group =>   2
Atom  19C    basis set group =>   2
Atom  20C    basis set group =>   2
Atom  21C    basis set group =>   2
Atom  22C    basis set group =>   2
Atom  23C    basis set group =>   2
Atom  24H    basis set group =>   3
Atom  25H    basis set group =>   3
Atom  26H    basis set group =>   3
Atom  27H    basis set group =>   3
Atom  28H    basis set group =>   3
Atom  29H    basis set group =>   3
Atom  30H    basis set group =>   3
Atom  31H    basis set group =>   3
Atom  32H    basis set group =>   3
Atom  33H    basis set group =>   3
Atom  34H    basis set group =>   3
Atom  35H    basis set group =>   3
Atom  36H    basis set group =>   3
Atom  37H    basis set group =>   3
Atom  38Mg   basis set group =>   4
Atom  39O    basis set group =>   5
Atom  40H    basis set group =>   3
Atom  41H    basis set group =>   3


           ************************************************************
           *        Program running with 4 parallel MPI-processes     *
           *              working on a common directory               *
           ************************************************************
------------------------------------------------------------------------------
                             ORCA STARTUP CALCULATIONS
                           -- RI-GTO INTEGRALS CHOSEN --
------------------------------------------------------------------------------
------------------------------------------------------------------------------
                   ___                                                        
                  /   \      - P O W E R E D   B Y -                         
                 /     \                                                     
                 |  |  |   _    _      __       _____    __    __             
                 |  |  |  | |  | |    /  \     |  _  \  |  |  /  |          
                  \  \/   | |  | |   /    \    | | | |  |  | /  /          
                 / \  \   | |__| |  /  /\  \   | |_| |  |  |/  /          
                |  |  |   |  __  | /  /__\  \  |    /   |      \           
                |  |  |   | |  | | |   __   |  |    \   |  |\   \          
                \     /   | |  | | |  |  |  |  | |\  \  |  | \   \       
                 \___/    |_|  |_| |__|  |__|  |_| \__\ |__|  \__/        
                                                                              
                      - O R C A' S   B I G   F R I E N D -                    
                                      &                                       
                       - I N T E G R A L  F E E D E R -                       
                                                                              
 v1 FN, 2020, v2 2021, v3 2022-2024                                           
------------------------------------------------------------------------------


----------------------
SHARK INTEGRAL PACKAGE
----------------------

Number of atoms                             ...     42
Number of basis functions                   ...    903
Number of shells                            ...    351
Maximum angular momentum                    ...      3
Integral batch strategy                     ... SHARK/LIBINT Hybrid
RI-J (if used) integral strategy            ... SPLIT-RIJ (Revised 2003 algorithm where possible)
Printlevel                                  ...      1
Contraction scheme used                     ... SEGMENTED contraction
Prescreening option                         ... SCHWARTZ
   Thresh                                   ... 2.500e-11
   Tcut                                     ... 2.500e-12
   Tpresel                                  ... 2.500e-12 
Coulomb Range Separation                    ... NOT USED
Exchange Range Separation                   ... NOT USED
Multipole approximations                    ... NOT USED
Finite Nucleus Model                        ... NOT USED
CABS basis                                  ... NOT available
Auxiliary Coulomb fitting basis             ... AVAILABLE
   # of basis functions in Aux-J            ...   1457
   # of shells in Aux-J                     ...    473
   Maximum angular momentum in Aux-J        ...      4
Auxiliary J/K fitting basis                 ... NOT available
Auxiliary Correlation fitting basis         ... NOT available
Auxiliary 'external' fitting basis          ... NOT available

Checking pre-screening integrals            ... done (  0.0 sec) Dimension = 351
   => SHARK Basis and OBASIS are compatible. Storing Pre-screening
Shell pair information
Shell pair cut-off parameter TPreSel        ...   2.5e-12
Total number of shell pairs                 ...     61776
Shell pairs after pre-screening             ...     43746
Total number of primitive shell pairs       ...    193764
Primitive shell pairs kept                  ...     89275
          la=0 lb=0:  10682 shell pairs
          la=1 lb=0:  12550 shell pairs
          la=1 lb=1:   3664 shell pairs
          la=2 lb=0:   6430 shell pairs
          la=2 lb=1:   3867 shell pairs
          la=2 lb=2:   1053 shell pairs
          la=3 lb=0:   2743 shell pairs
          la=3 lb=1:   1710 shell pairs
          la=3 lb=2:    860 shell pairs
          la=3 lb=3:    187 shell pairs

Checking whether 4 symmetric matrices of dimension 903 fit in memory
:Max Core in MB      =   3000.00
 MB in use           =     56.45
 MB left             =   2943.55
 MB needed           =     12.46
 Data fit in memory  = YES
Calculating RI/J V-Matrix + Cholesky decomp.... done (  0.2 sec)
Calculating Nuclear repulsion               ... done (  0.0 sec) ENN=   2395.276864768696 Eh

Diagonalization of the overlap matrix:
Smallest eigenvalue                        ... 1.019e-05
Time for diagonalization                   ...    0.225 sec
Threshold for overlap eigenvalues          ... 1.000e-07
Number of eigenvalues below threshold      ... 0
Time for construction of square roots      ...    0.118 sec
Total time needed                          ...    0.351 sec

-------------------
DFT GRID GENERATION
-------------------

General Integration Accuracy     IntAcc      ... 4.959
Radial Grid Type                 RadialGrid  ... OptM3 with GC (2021)
Angular Grid (max. ang.)         AngularGrid ... 6 (Lebedev-590)
Angular grid pruning method      GridPruning ... 4 (adaptive)
Weight generation scheme         WeightScheme... mBecke (2022)
Basis function cutoff            BFCut       ... 1.0000e-11
Integration weight cutoff        WCut        ... 1.0000e-14
Partially contracted basis set               ... off
Rotationally invariant grid construction     ... off
Angular grids for H and He will be reduced by one unit

Total number of grid points                  ...   503735
Total number of batches                      ...     7886
Average number of points per batch           ...       63
Average number of grid points per atom       ...    11994

--------------------
COSX GRID GENERATION
--------------------

GRIDX 1
-------
General Integration Accuracy     IntAcc      ... 4.020
Radial Grid Type                 RadialGrid  ... OptM3 with GC (2021)
Angular Grid (max. ang.)         AngularGrid ... 2 (Lebedev-110)
Angular grid pruning method      GridPruning ... 4 (adaptive)
Weight generation scheme         WeightScheme... mBecke (2022)
Basis function cutoff            BFCut       ... 1.0000e-11
Integration weight cutoff        WCut        ... 1.0000e-14
Partially contracted basis set               ... on
Rotationally invariant grid construction     ... off
Angular grids for H and He will be reduced by one unit

Total number of grid points                  ...    57132
Total number of batches                      ...      466
Average number of points per batch           ...      122
Average number of grid points per atom       ...     1360
UseSFitting                                  ... on

GRIDX 2
-------
General Integration Accuracy     IntAcc      ... 4.338
Radial Grid Type                 RadialGrid  ... OptM3 with GC (2021)
Angular Grid (max. ang.)         AngularGrid ... 3 (Lebedev-194)
Angular grid pruning method      GridPruning ... 4 (adaptive)
Weight generation scheme         WeightScheme... mBecke (2022)
Basis function cutoff            BFCut       ... 1.0000e-11
Integration weight cutoff        WCut        ... 1.0000e-14
Partially contracted basis set               ... on
Rotationally invariant grid construction     ... off
Angular grids for H and He will be reduced by one unit

Total number of grid points                  ...   125528
Total number of batches                      ...     1000
Average number of points per batch           ...      125
Average number of grid points per atom       ...     2989
UseSFitting                                  ... on

GRIDX 3
-------
General Integration Accuracy     IntAcc      ... 4.871
Radial Grid Type                 RadialGrid  ... OptM3 with GC (2021)
Angular Grid (max. ang.)         AngularGrid ... 4 (Lebedev-302)
Angular grid pruning method      GridPruning ... 4 (adaptive)
Weight generation scheme         WeightScheme... mBecke (2022)
Basis function cutoff            BFCut       ... 1.0000e-11
Integration weight cutoff        WCut        ... 1.0000e-14
Partially contracted basis set               ... on
Rotationally invariant grid construction     ... off
Angular grids for H and He will be reduced by one unit

Total number of grid points                  ...   231789
Total number of batches                      ...     1836
Average number of points per batch           ...      126
Average number of grid points per atom       ...     5519
UseSFitting                                  ... on
Grids setup in  16.5 sec
Initializing property integral containers    ... done (  0.0 sec)

SHARK setup successfully completed in  17.9 seconds

Maximum memory used throughout the entire STARTUP-calculation: 166.9 MB


           ************************************************************
           *        Program running with 4 parallel MPI-processes     *
           *              working on a common directory               *
           ************************************************************
-------------------------------------------------------------------------------
                                 ORCA GUESS
                   Start orbitals & Density for SCF / CASSCF
-------------------------------------------------------------------------------

------------
SCF SETTINGS
------------
Hamiltonian:
 Density Functional     Method          .... DFT(GTOs)
 Exchange Functional    Exchange        .... M062X
 Correlation Functional Correlation     .... M062X
 Gradients option       PostSCFGGA      .... off
 Hybrid DFT is turned on
   Fraction HF Exchange ScalHFX         ....  0.540000
   Scaling of DF-GGA-X  ScalDFX         ....  0.460000
   Scaling of DF-GGA-C  ScalDFC         ....  1.000000
   Scaling of DF-LDA-C  ScalLDAC        ....  1.000000
   Perturbative correction              ....  0.000000
 RI-approximation to the Coulomb term is turned on
   Number of AuxJ basis functions       .... 1457
   RIJ-COSX (HFX calculated with COS-X)).... on


General Settings:
 Integral files         IntName         .... tddft
 Hartree-Fock type      HFTyp           .... RHF
 Total Charge           Charge          ....    0
 Multiplicity           Mult            ....    1
 Number of Electrons    NEL             ....  184
 Basis Dimension        Dim             ....  903
 Nuclear Repulsion      ENuc            ....   2395.2768647687 Eh

Convergence Acceleration:
 AO-DIIS                CNVDIIS         .... on
   Start iteration      DIISMaxIt       ....    12
   Startup error        DIISStart       ....  0.200000
   # of expansion vecs  DIISMaxEq       ....     5
   Bias factor          DIISBfac        ....   1.050
   Max. coefficient     DIISMaxC        ....  10.000
 MO-DIIS                CNVKDIIS        .... off
 Trust-Rad. Augm. Hess. CNVTRAH         .... auto
   Auto Start mean grad. ratio tolernc. ....  1.125000
   Auto Start start iteration           ....    50
   Auto Start num. interpolation iter.  ....    10
   Max. Number of Micro iterations      ....    24
   Max. Number of Macro iterations      .... Maxiter - #DIIS iter
   Number of Davidson start vectors     ....     2
   Converg. threshold    (grad. norm)   ....   1.000e-05
   Grad. Scal. Fac. for Micro threshold ....   0.100
   Minimum threshold for Micro iter.    ....   1.000e-02
   NR start threshold (gradient norm)   ....   1.000e-04
   Initial trust radius                 ....   0.400
   Minimum AH scaling param. (alpha)    ....   1.000
   Maximum AH scaling param. (alpha)    .... 1000.000
   Quad. conv. algorithm                .... NR
   White noise on init. David. guess    .... on
   Maximum white noise                  ....   0.010
   Pseudo random numbers                .... off
   Inactive MOs                         .... canonical
   Orbital update algorithm             .... Taylor
   Preconditioner                       .... Diag
   Full preconditioner red. dimension   ....   250
 SOSCF                 CNVSOSCF           .... on
   Start iteration     SOSCFMaxIt         ....   150
   Startup grad/error  SOSCFStart         ....  0.003300
   Hessian update      SOSCFHessUp        .... L-BFGS
   Autom. constraints  SOSCFAutoConstrain .... off
 Level Shifting         CNVShift        .... on
   Level shift para.    LevelShift      ....    0.2500
   Turn off err/grad.   ShiftErr        ....    0.0010
 Zerner damping         CNVZerner       .... off
 Static damping         CNVDamp         .... on
   Fraction old density DampFac         ....    0.7000
   Max. Damping (<1)    DampMax         ....    0.9800
   Min. Damping (>=0)   DampMin         ....    0.0000
   Turn off err/grad.   DampErr         ....    0.1000

SCF Procedure:
 Maximum # iterations   MaxIter         ....   125
 SCF integral mode      SCFMode         .... Direct
   Integral package                     .... SHARK and LIBINT hybrid scheme
 Reset frequency        DirectResetFreq ....    20
 Integral Threshold     Thresh          ....  2.500e-11 Eh
 Primitive CutOff       TCut            ....  2.500e-12 Eh

Convergence Tolerance:
 Convergence Check Mode ConvCheckMode   .... Total+1el-Energy
 Convergence forced     ConvForced      .... 1
 Energy Change          TolE            ....  1.000e-08 Eh
 1-El. energy change                    ....  1.000e-05 Eh
 Orbital Gradient       TolG            ....  1.000e-05
 Orbital Rotation angle TolX            ....  1.000e-05
 DIIS Error             TolErr          ....  5.000e-07

------------------------------
INITIAL GUESS: MODEL POTENTIAL
------------------------------
Loading Hartree-Fock densities                     ... done
Calculating cut-offs                               ... done
Initializing the effective Hamiltonian             ... done
Setting up the integral package (SHARK)            ... done
Starting the Coulomb interaction                   ... done (   1.9 sec)
Making the grid                                    ... done (   0.7 sec)
Mapping shells                                     ... done
Starting the XC term evaluation                    ... done (   1.0 sec)
  promolecular density results
     # of electrons  =    183.996423990
     EX              =   -157.477042248
     EC              =     -6.248844446
     EX+EC           =   -163.725886694
Transforming the Hamiltonian                       ... done (   0.1 sec)
Diagonalizing the Hamiltonian                      ... done (   0.2 sec)
Back transforming the eigenvectors                 ... done (   0.1 sec)
Now organizing SCF variables                       ... done
                      ------------------
                      INITIAL GUESS DONE (   4.0 sec)
                      ------------------
             **** ENERGY FILE WAS UPDATED (tddft.en.tmp) ****
Finished Guess after   4.5 sec
Maximum memory used throughout the entire GUESS-calculation: 94.7 MB


           ************************************************************
           *        Program running with 4 parallel MPI-processes     *
           *              working on a common directory               *
           ************************************************************

-------------------------------------------------------------------------------------------
                                      ORCA LEAN-SCF
                              memory conserving SCF solver
-------------------------------------------------------------------------------------------

--------------------
CPCM SOLVATION MODEL
--------------------
CPCM parameters:
  Epsilon                                         ...       8.9990
  Refrac                                          ...       1.4242
  Rsolv                                           ...       1.3000
  Surface type                                    ... GAUSSIAN VDW
  Discretization scheme                           ... Constant charge density
    Threshold for H atoms                         ...       5.0000 (charges/Ang^2)
    Threshold for non-H atoms                     ...       5.0000 (charges/Ang^2)
  Epsilon function type                           ...         CPCM
Solvent:                                          ... DICHLOROMETHANE
Radii:
  Scheme                                          ... Element-dependent radii
  Radius for N  used is    3.5149 Bohr (=   1.8600 Ang.)
  Radius for C  used is    3.8550 Bohr (=   2.0400 Ang.)
  Radius for H  used is    2.4944 Bohr (=   1.3200 Ang.)
  Radius for Mg used is    3.9231 Bohr (=   2.0760 Ang.)
  Radius for O  used is    3.4469 Bohr (=   1.8240 Ang.)
Calculating surface                               ...        done! (  0.0s)
Cavity surface points                             ...         3714
Cavity Volume                                     ...    2655.0298
Cavity Surface-area                               ...    1281.3601
Calculating surface distance matrix               ...        done! (  0.4s)
Performing Cholesky decomposition & store         ...        done! (  0.7s)
Overall time for CPCM initialization              ...                 1.1s

----------------------------------------D-I-I-S--------------------------------------------
Iteration    Energy (Eh)           Delta-E    RMSDP     MaxDP     DIISErr   Damp  Time(sec)
-------------------------------------------------------------------------------------------
               ***  Starting incremental Fock matrix formation  ***
    1    -1265.5440270050198706     0.00e+00  2.34e-03  5.33e-02  2.85e-01  0.700 109.7
    2    -1265.8230948055784211    -2.79e-01  1.89e-03  4.10e-02  1.38e-01  0.700  61.4
                               ***Turning on AO-DIIS***
    3    -1265.9602186903302936    -1.37e-01  1.25e-03  2.99e-02  5.48e-02  0.700  59.4
    4    -1266.0413211959385080    -8.11e-02  2.83e-03  6.79e-02  3.74e-02  0.000  56.6
    5    -1266.2144954656228037    -1.73e-01  2.37e-04  4.52e-03  5.39e-03  0.000  59.5
                              *** Initializing SOSCF ***
---------------------------------------S-O-S-C-F--------------------------------------
Iteration    Energy (Eh)           Delta-E    RMSDP     MaxDP     MaxGrad    Time(sec)
--------------------------------------------------------------------------------------
    6    -1266.2150103544704507    -5.15e-04  9.40e-05  1.44e-03  2.33e-03    58.0
               *** Restarting incremental Fock matrix formation ***
    7    -1266.2150885653986734    -7.82e-05  6.92e-05  1.11e-03  1.05e-03   141.8
    8    -1266.2151314894085772    -4.29e-05  6.87e-05  1.43e-03  4.10e-04   107.2
    9    -1266.2151433303106387    -1.18e-05  2.85e-05  4.88e-04  3.27e-04    88.0
   10    -1266.2151489935663449    -5.66e-06  8.75e-06  1.99e-04  9.30e-05    76.0
   11    -1266.2151493631258745    -3.70e-07  2.84e-06  9.37e-05  3.49e-05    94.3
   12    -1266.2151495454877477    -1.82e-07  1.73e-06  3.68e-05  1.85e-05    59.7
   13    -1266.2151495755319957    -3.00e-08  9.13e-07  2.12e-05  6.02e-06    55.9
   14    -1266.2151495699954467     5.54e-09  8.60e-07  1.74e-05  4.62e-06    73.4
                 **** Energy Check signals convergence ****

               *****************************************************
               *                     SUCCESS                       *
               *           SCF CONVERGED AFTER  14 CYCLES          *
               *****************************************************

Recomputing exchange energy using gridx3       ... done (  202.138 sec)
Old exchange energy                            :    -86.613552003 Eh
New exchange energy                            :    -86.613563620 Eh
Exchange energy change after final integration :     -0.000011617 Eh
Total energy after final integration           :  -1266.215161187 Eh
             **** ENERGY FILE WAS UPDATED (tddft.en.tmp) ****

----------------
TOTAL SCF ENERGY
----------------

Total Energy       :      -1266.21516118736736 Eh          -34455.46622 eV

Components:
Nuclear Repulsion  :       2395.27686476869621 Eh           65178.79712 eV
Electronic Energy  :      -3661.46663977126082 Eh          -99633.57254 eV
One Electron Energy:      -6492.84704192151730 Eh         -176679.35022 eV
Two Electron Energy:       2831.38040215025649 Eh           77045.77767 eV
CPCM Dielectric    :         -0.02537456784543 Eh              -0.69048 eV

Virial components:
Potential Energy   :      -2526.38996417157068 Eh          -68746.56593 eV
Kinetic Energy     :       1260.17480298420310 Eh           34291.09972 eV
Virial Ratio       :          2.00479327009940

DFT components:
N(Alpha)           :       91.999997263430 electrons
N(Beta)            :       91.999997263430 electrons
N(Total)           :      183.999994526859 electrons
E(XC)              :      -80.632838626701 Eh       

CPCM Solvation Model Properties:
Surface-charge          :         -0.03746420337801
Corrected charge        :          0.00000000000000
Outlying charge corr.   :          0.00006586116476 Eh               0.00179 eV
Free-energy (cav+disp)  :  This term is not implemented in the current solvation scheme

---------------
SCF CONVERGENCE
---------------

  Last Energy change         ...   -5.5365e-09  Tolerance :   1.0000e-08
  Last MAX-Density change    ...    1.7405e-05  Tolerance :   1.0000e-07
  Last RMS-Density change    ...    8.5978e-07  Tolerance :   5.0000e-09
  Last DIIS Error            ...    2.3275e-03  Tolerance :   5.0000e-07
  Last Orbital Gradient      ...    4.6157e-06  Tolerance :   1.0000e-05
  Last Orbital Rotation      ...    3.0393e-05  Tolerance :   1.0000e-05


----------------
ORBITAL ENERGIES
----------------

  NO   OCC          E(Eh)            E(eV) 
   0   2.0000     -47.497778     -1292.4802 
   1   2.0000     -19.659590      -534.9646 
   2   2.0000     -14.752305      -401.4306 
   3   2.0000     -14.734013      -400.9329 
   4   2.0000     -14.732346      -400.8875 
   5   2.0000     -14.732270      -400.8854 
   6   2.0000     -10.584207      -288.0109 
   7   2.0000     -10.584175      -288.0101 
   8   2.0000     -10.576359      -287.7974 
   9   2.0000     -10.576295      -287.7956 
  10   2.0000     -10.567109      -287.5457 
  11   2.0000     -10.567017      -287.5431 
  12   2.0000     -10.565323      -287.4971 
  13   2.0000     -10.565267      -287.4955 
  14   2.0000     -10.549717      -287.0724 
  15   2.0000     -10.549642      -287.0704 
  16   2.0000     -10.539512      -286.7947 
  17   2.0000     -10.539469      -286.7935 
  18   2.0000     -10.539427      -286.7924 
  19   2.0000     -10.539144      -286.7847 
  20   2.0000     -10.534359      -286.6545 
  21   2.0000     -10.534316      -286.6533 
  22   2.0000     -10.532353      -286.5999 
  23   2.0000     -10.531423      -286.5746 
  24   2.0000     -10.530320      -286.5446 
  25   2.0000     -10.530249      -286.5427 
  26   2.0000      -3.251756       -88.4848 
  27   2.0000      -1.946072       -52.9553 
  28   2.0000      -1.944035       -52.8999 
  29   2.0000      -1.943966       -52.8980 
  30   2.0000      -1.166275       -31.7360 
  31   2.0000      -1.070881       -29.1402 
  32   2.0000      -1.061819       -28.8936 
  33   2.0000      -1.061025       -28.8719 
  34   2.0000      -1.051068       -28.6010 
  35   2.0000      -0.912902       -24.8413 
  36   2.0000      -0.885534       -24.0966 
  37   2.0000      -0.882320       -24.0091 
  38   2.0000      -0.866799       -23.5868 
  39   2.0000      -0.860393       -23.4125 
  40   2.0000      -0.858656       -23.3652 
  41   2.0000      -0.853023       -23.2119 
  42   2.0000      -0.826789       -22.4981 
  43   2.0000      -0.807418       -21.9710 
  44   2.0000      -0.741986       -20.1905 
  45   2.0000      -0.736885       -20.0517 
  46   2.0000      -0.691373       -18.8132 
  47   2.0000      -0.658293       -17.9131 
  48   2.0000      -0.648564       -17.6483 
  49   2.0000      -0.646252       -17.5854 
  50   2.0000      -0.644232       -17.5304 
  51   2.0000      -0.641843       -17.4654 
  52   2.0000      -0.626828       -17.0569 
  53   2.0000      -0.611713       -16.6456 
  54   2.0000      -0.595601       -16.2071 
  55   2.0000      -0.588134       -16.0039 
  56   2.0000      -0.573783       -15.6134 
  57   2.0000      -0.568150       -15.4602 
  58   2.0000      -0.559035       -15.2121 
  59   2.0000      -0.546246       -14.8641 
  60   2.0000      -0.527915       -14.3653 
  61   2.0000      -0.506185       -13.7740 
  62   2.0000      -0.499451       -13.5907 
  63   2.0000      -0.496636       -13.5142 
  64   2.0000      -0.487962       -13.2781 
  65   2.0000      -0.482975       -13.1424 
  66   2.0000      -0.479332       -13.0433 
  67   2.0000      -0.473511       -12.8849 
  68   2.0000      -0.468709       -12.7542 
  69   2.0000      -0.468178       -12.7398 
  70   2.0000      -0.451823       -12.2947 
  71   2.0000      -0.448102       -12.1935 
  72   2.0000      -0.444657       -12.0997 
  73   2.0000      -0.439488       -11.9591 
  74   2.0000      -0.433962       -11.8087 
  75   2.0000      -0.430087       -11.7033 
  76   2.0000      -0.427253       -11.6261 
  77   2.0000      -0.424658       -11.5555 
  78   2.0000      -0.418168       -11.3789 
  79   2.0000      -0.414919       -11.2905 
  80   2.0000      -0.413757       -11.2589 
  81   2.0000      -0.378308       -10.2943 
  82   2.0000      -0.374007       -10.1772 
  83   2.0000      -0.369777       -10.0621 
  84   2.0000      -0.343230        -9.3398 
  85   2.0000      -0.333322        -9.0702 
  86   2.0000      -0.324274        -8.8240 
  87   2.0000      -0.312671        -8.5082 
  88   2.0000      -0.302580        -8.2336 
  89   2.0000      -0.300518        -8.1775 
  90   2.0000      -0.233929        -6.3655 
  91   2.0000      -0.219540        -5.9740 
  92   0.0000      -0.070669        -1.9230 
  93   0.0000      -0.045630        -1.2417 
  94   0.0000       0.018083         0.4921 
  95   0.0000       0.033708         0.9173 
  96   0.0000       0.057417         1.5624 
  97   0.0000       0.069231         1.8839 
  98   0.0000       0.073333         1.9955 
  99   0.0000       0.084346         2.2952 
 100   0.0000       0.088915         2.4195 
 101   0.0000       0.095350         2.5946 
 102   0.0000       0.101113         2.7514 
*Only the first 10 virtual orbitals were printed.

                    ********************************
                    * MULLIKEN POPULATION ANALYSIS *
                    ********************************

-----------------------
MULLIKEN ATOMIC CHARGES
-----------------------
   0 N :   -0.363557
   1 N :   -0.415118
   2 N :   -0.416322
   3 N :   -0.393870
   4 C :   -0.309642
   5 C :   -0.308301
   6 C :    0.178416
   7 C :    0.177208
   8 C :   -0.307274
   9 C :   -0.308512
  10 C :    0.211368
  11 C :    0.210461
  12 C :    0.196151
  13 C :    0.195683
  14 C :   -0.248079
  15 C :   -0.246987
  16 C :   -0.234564
  17 C :   -0.236021
  18 C :   -0.263160
  19 C :   -0.261656
  20 C :    0.189726
  21 C :    0.189878
  22 C :   -0.248107
  23 C :   -0.247519
  24 H :    0.168094
  25 H :    0.170612
  26 H :    0.166845
  27 H :    0.171832
  28 H :    0.176975
  29 H :    0.176515
  30 H :    0.174840
  31 H :    0.174739
  32 H :    0.176184
  33 H :    0.176149
  34 H :    0.181629
  35 H :    0.181772
  36 H :    0.173081
  37 H :    0.172985
  38 Mg:    0.677343
  39 O :   -0.663686
  40 H :    0.401672
  41 H :    0.402216
Sum of atomic charges:   -0.0000000

--------------------------------
MULLIKEN REDUCED ORBITAL CHARGES
--------------------------------
  0 N s       :     3.659474  s :     3.659474
      pz      :     1.284071  p :     3.648694
      px      :     1.216772
      py      :     1.147851
      dz2     :     0.003882  d :     0.051913
      dxz     :     0.009307
      dyz     :     0.010532
      dx2y2   :     0.015003
      dxy     :     0.013189
      f0      :     0.000675  f :     0.003476
      f+1     :     0.000354
      f-1     :     0.000391
      f+2     :     0.000417
      f-2     :     0.000121
      f+3     :     0.000829
      f-3     :     0.000690

  1 N s       :     3.679031  s :     3.679031
      pz      :     1.369194  p :     3.681763
      px      :     1.132031
      py      :     1.180539
      dz2     :     0.004182  d :     0.050800
      dxz     :     0.009831
      dyz     :     0.009239
      dx2y2   :     0.014493
      dxy     :     0.013055
      f0      :     0.000705  f :     0.003524
      f+1     :     0.000434
      f-1     :     0.000395
      f+2     :     0.000511
      f-2     :     0.000098
      f+3     :     0.000659
      f-3     :     0.000721

  2 N s       :     3.677758  s :     3.677758
      pz      :     1.368322  p :     3.684248
      px      :     1.125780
      py      :     1.190147
      dz2     :     0.004195  d :     0.050792
      dxz     :     0.010689
      dyz     :     0.008391
      dx2y2   :     0.014191
      dxy     :     0.013325
      f0      :     0.000701  f :     0.003524
      f+1     :     0.000422
      f-1     :     0.000408
      f+2     :     0.000505
      f-2     :     0.000108
      f+3     :     0.000617
      f-3     :     0.000762

  3 N s       :     3.679763  s :     3.679763
      pz      :     1.339285  p :     3.657768
      px      :     1.186198
      py      :     1.132284
      dz2     :     0.004216  d :     0.052782
      dxz     :     0.009545
      dyz     :     0.011235
      dx2y2   :     0.014398
      dxy     :     0.013389
      f0      :     0.000691  f :     0.003556
      f+1     :     0.000389
      f-1     :     0.000421
      f+2     :     0.000564
      f-2     :     0.000105
      f+3     :     0.000745
      f-3     :     0.000641

  4 C s       :     3.290671  s :     3.290671
      pz      :     1.093200  p :     2.939807
      px      :     0.888239
      py      :     0.958368
      dz2     :     0.005032  d :     0.074078
      dxz     :     0.015140
      dyz     :     0.015899
      dx2y2   :     0.022033
      dxy     :     0.015974
      f0      :     0.000558  f :     0.005086
      f+1     :     0.000327
      f-1     :     0.000879
      f+2     :     0.000474
      f-2     :     0.000694
      f+3     :     0.001025
      f-3     :     0.001129

  5 C s       :     3.290133  s :     3.290133
      pz      :     1.092790  p :     2.939033
      px      :     0.955216
      py      :     0.891026
      dz2     :     0.004504  d :     0.074051
      dxz     :     0.016269
      dyz     :     0.015369
      dx2y2   :     0.020440
      dxy     :     0.017468
      f0      :     0.000499  f :     0.005084
      f+1     :     0.000962
      f-1     :     0.000315
      f+2     :     0.000467
      f-2     :     0.000686
      f+3     :     0.000835
      f-3     :     0.001321

  6 C s       :     3.158445  s :     3.158445
      pz      :     0.862940  p :     2.520324
      px      :     0.904085
      py      :     0.753299
      dz2     :     0.001847  d :     0.130324
      dxz     :     0.026290
      dyz     :     0.038734
      dx2y2   :     0.032588
      dxy     :     0.030865
      f0      :     0.001748  f :     0.012490
      f+1     :     0.000904
      f-1     :     0.001167
      f+2     :     0.001522
      f-2     :     0.000986
      f+3     :     0.004556
      f-3     :     0.001607

  7 C s       :     3.156738  s :     3.156738
      pz      :     0.863755  p :     2.523374
      px      :     0.756838
      py      :     0.902781
      dz2     :     0.001321  d :     0.130187
      dxz     :     0.033836
      dyz     :     0.031436
      dx2y2   :     0.035977
      dxy     :     0.027617
      f0      :     0.001763  f :     0.012492
      f+1     :     0.001131
      f-1     :     0.000920
      f+2     :     0.001277
      f-2     :     0.001236
      f+3     :     0.002964
      f-3     :     0.003202

  8 C s       :     3.165418  s :     3.165418
      pz      :     1.111326  p :     3.084091
      px      :     0.895644
      py      :     1.077121
      dz2     :     0.003721  d :     0.051060
      dxz     :     0.021729
      dyz     :     0.003260
      dx2y2   :     0.012704
      dxy     :     0.009647
      f0      :     0.001327  f :     0.006705
      f+1     :     0.000882
      f-1     :     0.000756
      f+2     :     0.000408
      f-2     :     0.000615
      f+3     :     0.001709
      f-3     :     0.001007

  9 C s       :     3.169752  s :     3.169752
      pz      :     1.111515  p :     3.081115
      px      :     1.072140
      py      :     0.897461
      dz2     :     0.003706  d :     0.050938
      dxz     :     0.003126
      dyz     :     0.021872
      dx2y2   :     0.012480
      dxy     :     0.009754
      f0      :     0.001327  f :     0.006706
      f+1     :     0.000774
      f-1     :     0.000867
      f+2     :     0.000439
      f-2     :     0.000580
      f+3     :     0.001115
      f-3     :     0.001605

 10 C s       :     3.143940  s :     3.143940
      pz      :     0.880893  p :     2.505092
      px      :     0.860668
      py      :     0.763530
      dz2     :     0.002493  d :     0.126643
      dxz     :     0.033576
      dyz     :     0.036424
      dx2y2   :     0.029156
      dxy     :     0.024993
      f0      :     0.001910  f :     0.012958
      f+1     :     0.001033
      f-1     :     0.001170
      f+2     :     0.001663
      f-2     :     0.000960
      f+3     :     0.003572
      f-3     :     0.002650

 11 C s       :     3.144711  s :     3.144711
      pz      :     0.881867  p :     2.505439
      px      :     0.761112
      py      :     0.862460
      dz2     :     0.002556  d :     0.126445
      dxz     :     0.038775
      dyz     :     0.030968
      dx2y2   :     0.026934
      dxy     :     0.027211
      f0      :     0.001906  f :     0.012945
      f+1     :     0.001220
      f-1     :     0.000984
      f+2     :     0.002058
      f-2     :     0.000564
      f+3     :     0.001570
      f-3     :     0.004643

 12 C s       :     3.130060  s :     3.130060
      pz      :     0.953268  p :     2.544448
      px      :     0.742356
      py      :     0.848824
      dz2     :     0.002715  d :     0.116604
      dxz     :     0.037012
      dyz     :     0.027020
      dx2y2   :     0.026068
      dxy     :     0.023789
      f0      :     0.002021  f :     0.012736
      f+1     :     0.001219
      f-1     :     0.000981
      f+2     :     0.001981
      f-2     :     0.000479
      f+3     :     0.001481
      f-3     :     0.004574

 13 C s       :     3.129618  s :     3.129618
      pz      :     0.953121  p :     2.545768
      px      :     0.844216
      py      :     0.748431
      dz2     :     0.002889  d :     0.116198
      dxz     :     0.028900
      dyz     :     0.034754
      dx2y2   :     0.027702
      dxy     :     0.021953
      f0      :     0.002009  f :     0.012733
      f+1     :     0.001027
      f-1     :     0.001188
      f+2     :     0.001533
      f-2     :     0.000932
      f+3     :     0.003499
      f-3     :     0.002544

 14 C s       :     3.243173  s :     3.243173
      pz      :     1.022247  p :     2.933846
      px      :     0.894372
      py      :     1.017227
      dz2     :     0.005192  d :     0.064178
      dxz     :     0.019333
      dyz     :     0.007385
      dx2y2   :     0.018063
      dxy     :     0.014204
      f0      :     0.001299  f :     0.006882
      f+1     :     0.000580
      f-1     :     0.000985
      f+2     :     0.000064
      f-2     :     0.001028
      f+3     :     0.001814
      f-3     :     0.001111

 15 C s       :     3.242504  s :     3.242504
      pz      :     1.022146  p :     2.933423
      px      :     1.018504
      py      :     0.892773
      dz2     :     0.005268  d :     0.064179
      dxz     :     0.008967
      dyz     :     0.017675
      dx2y2   :     0.021317
      dxy     :     0.010952
      f0      :     0.001294  f :     0.006881
      f+1     :     0.000938
      f-1     :     0.000631
      f+2     :     0.000322
      f-2     :     0.000776
      f+3     :     0.001622
      f-3     :     0.001299

 16 C s       :     3.256051  s :     3.256051
      pz      :     0.979276  p :     2.904046
      px      :     1.025287
      py      :     0.899484
      dz2     :     0.005159  d :     0.067583
      dxz     :     0.009591
      dyz     :     0.021645
      dx2y2   :     0.020275
      dxy     :     0.010914
      f0      :     0.001236  f :     0.006883
      f+1     :     0.000914
      f-1     :     0.000605
      f+2     :     0.000415
      f-2     :     0.000777
      f+3     :     0.001650
      f-3     :     0.001287

 17 C s       :     3.256740  s :     3.256740
      pz      :     0.979637  p :     2.904776
      px      :     0.900408
      py      :     1.024731
      dz2     :     0.005155  d :     0.067620
      dxz     :     0.023839
      dyz     :     0.007416
      dx2y2   :     0.017015
      dxy     :     0.014194
      f0      :     0.001235  f :     0.006886
      f+1     :     0.000563
      f-1     :     0.000952
      f+2     :     0.000104
      f-2     :     0.001101
      f+3     :     0.001809
      f-3     :     0.001123

 18 C s       :     3.190207  s :     3.190207
      pz      :     0.978949  p :     3.002155
      px      :     1.096884
      py      :     0.926323
      dz2     :     0.004014  d :     0.064367
      dxz     :     0.003151
      dyz     :     0.030558
      dx2y2   :     0.014937
      dxy     :     0.011707
      f0      :     0.001094  f :     0.006430
      f+1     :     0.000675
      f-1     :     0.000820
      f+2     :     0.000403
      f-2     :     0.000626
      f+3     :     0.001122
      f-3     :     0.001689

 19 C s       :     3.189124  s :     3.189124
      pz      :     0.978435  p :     3.001666
      px      :     0.925415
      py      :     1.097816
      dz2     :     0.003954  d :     0.064437
      dxz     :     0.030572
      dyz     :     0.003210
      dx2y2   :     0.014396
      dxy     :     0.012305
      f0      :     0.001095  f :     0.006429
      f+1     :     0.000810
      f-1     :     0.000678
      f+2     :     0.000422
      f-2     :     0.000612
      f+3     :     0.001672
      f-3     :     0.001140

 20 C s       :     3.129584  s :     3.129584
      pz      :     0.955103  p :     2.550060
      px      :     0.759608
      py      :     0.835350
      dz2     :     0.002830  d :     0.117718
      dxz     :     0.034890
      dyz     :     0.028137
      dx2y2   :     0.028636
      dxy     :     0.023225
      f0      :     0.002017  f :     0.012911
      f+1     :     0.001193
      f-1     :     0.001071
      f+2     :     0.001535
      f-2     :     0.000948
      f+3     :     0.002613
      f-3     :     0.003534

 21 C s       :     3.130205  s :     3.130205
      pz      :     0.954402  p :     2.549432
      px      :     0.842756
      py      :     0.752273
      dz2     :     0.002849  d :     0.117577
      dxz     :     0.027342
      dyz     :     0.035582
      dx2y2   :     0.025797
      dxy     :     0.026007
      f0      :     0.002013  f :     0.012908
      f+1     :     0.001008
      f-1     :     0.001261
      f+2     :     0.001981
      f-2     :     0.000504
      f+3     :     0.004645
      f-3     :     0.001496

 22 C s       :     3.244675  s :     3.244675
      pz      :     1.014566  p :     2.930003
      px      :     1.018066
      py      :     0.897371
      dz2     :     0.005333  d :     0.066452
      dxz     :     0.007165
      dyz     :     0.022545
      dx2y2   :     0.017367
      dxy     :     0.014041
      f0      :     0.001282  f :     0.006977
      f+1     :     0.000988
      f-1     :     0.000586
      f+2     :     0.000075
      f-2     :     0.001141
      f+3     :     0.001098
      f-3     :     0.001807

 23 C s       :     3.244562  s :     3.244562
      pz      :     1.014425  p :     2.929492
      px      :     0.895890
      py      :     1.019176
      dz2     :     0.005268  d :     0.066490
      dxz     :     0.020757
      dyz     :     0.009054
      dx2y2   :     0.020454
      dxy     :     0.010957
      f0      :     0.001286  f :     0.006975
      f+1     :     0.000623
      f-1     :     0.000943
      f+2     :     0.000385
      f-2     :     0.000836
      f+3     :     0.001302
      f-3     :     0.001599

 24 H s       :     0.812296  s :     0.812296
      pz      :     0.010231  p :     0.019610
      px      :     0.003643
      py      :     0.005737

 25 H s       :     0.809892  s :     0.809892
      pz      :     0.007565  p :     0.019496
      px      :     0.003715
      py      :     0.008216

 26 H s       :     0.813584  s :     0.813584
      pz      :     0.009733  p :     0.019571
      px      :     0.006301
      py      :     0.003537

 27 H s       :     0.808648  s :     0.808648
      pz      :     0.008071  p :     0.019520
      px      :     0.007877
      py      :     0.003572

 28 H s       :     0.802379  s :     0.802379
      pz      :     0.004920  p :     0.020646
      px      :     0.002744
      py      :     0.012982

 29 H s       :     0.802840  s :     0.802840
      pz      :     0.004912  p :     0.020645
      px      :     0.012948
      py      :     0.002785

 30 H s       :     0.804902  s :     0.804902
      pz      :     0.004115  p :     0.020258
      px      :     0.002769
      py      :     0.013375

 31 H s       :     0.805006  s :     0.805006
      pz      :     0.004118  p :     0.020255
      px      :     0.012803
      py      :     0.003333

 32 H s       :     0.803641  s :     0.803641
      pz      :     0.003885  p :     0.020174
      px      :     0.012905
      py      :     0.003385

 33 H s       :     0.803673  s :     0.803673
      pz      :     0.003910  p :     0.020178
      px      :     0.002801
      py      :     0.013467

 34 H s       :     0.797887  s :     0.797887
      pz      :     0.004172  p :     0.020484
      px      :     0.013472
      py      :     0.002840

 35 H s       :     0.797747  s :     0.797747
      pz      :     0.004185  p :     0.020481
      px      :     0.002816
      py      :     0.013479

 36 H s       :     0.806727  s :     0.806727
      pz      :     0.004092  p :     0.020192
      px      :     0.013307
      py      :     0.002793

 37 H s       :     0.806826  s :     0.806826
      pz      :     0.004107  p :     0.020189
      px      :     0.003356
      py      :     0.012726

 38 Mgs       :     4.510635  s :     4.510635
      pz      :     2.140555  p :     6.515706
      px      :     2.188372
      py      :     2.186779
      dz2     :     0.041551  d :     0.296317
      dxz     :     0.039177
      dyz     :     0.037664
      dx2y2   :     0.031460
      dxy     :     0.146466

 39 O s       :     3.782464  s :     3.782464
      pz      :     1.754782  p :     4.863589
      px      :     1.612431
      py      :     1.496376
      dz2     :     0.001224  d :     0.016302
      dxz     :     0.003323
      dyz     :     0.003855
      dx2y2   :     0.006584
      dxy     :     0.001317
      f0      :     0.000265  f :     0.001332
      f+1     :     0.000055
      f-1     :     0.000060
      f+2     :     0.000327
      f-2     :     0.000137
      f+3     :     0.000084
      f-3     :     0.000403

 40 H s       :     0.553619  s :     0.553619
      pz      :     0.014238  p :     0.044709
      px      :     0.011317
      py      :     0.019154

 41 H s       :     0.553066  s :     0.553066
      pz      :     0.013772  p :     0.044719
      px      :     0.018916
      py      :     0.012030



                     *******************************
                     * LOEWDIN POPULATION ANALYSIS *
                     *******************************

----------------------
LOEWDIN ATOMIC CHARGES
----------------------
   0 N :    0.194865
   1 N :    0.171766
   2 N :    0.171237
   3 N :    0.184590
   4 C :   -0.193624
   5 C :   -0.193576
   6 C :   -0.193467
   7 C :   -0.193625
   8 C :   -0.143444
   9 C :   -0.143502
  10 C :   -0.205386
  11 C :   -0.205659
  12 C :   -0.219579
  13 C :   -0.219976
  14 C :   -0.128432
  15 C :   -0.128669
  16 C :   -0.113090
  17 C :   -0.113409
  18 C :   -0.077762
  19 C :   -0.077677
  20 C :   -0.223260
  21 C :   -0.223361
  22 C :   -0.132393
  23 C :   -0.132256
  24 H :    0.153359
  25 H :    0.149901
  26 H :    0.152662
  27 H :    0.150324
  28 H :    0.163960
  29 H :    0.163943
  30 H :    0.146759
  31 H :    0.146731
  32 H :    0.148795
  33 H :    0.148738
  34 H :    0.168560
  35 H :    0.168549
  36 H :    0.146170
  37 H :    0.146189
  38 Mg:    0.086840
  39 O :   -0.116629
  40 H :    0.207320
  41 H :    0.207520

-------------------------------
LOEWDIN REDUCED ORBITAL CHARGES
-------------------------------
  0 N s       :     2.978475  s :     2.978475
      pz      :     1.128259  p :     3.601936
      px      :     1.260924
      py      :     1.212753
      dz2     :     0.016127  d :     0.206411
      dxz     :     0.023455
      dyz     :     0.030165
      dx2y2   :     0.073253
      dxy     :     0.063412
      f0      :     0.001143  f :     0.018312
      f+1     :     0.001189
      f-1     :     0.001409
      f+2     :     0.002904
      f-2     :     0.000447
      f+3     :     0.006664
      f-3     :     0.004556

  1 N s       :     2.975015  s :     2.975015
      pz      :     1.196362  p :     3.635236
      px      :     1.189304
      py      :     1.249570
      dz2     :     0.015977  d :     0.199567
      dxz     :     0.030996
      dyz     :     0.023707
      dx2y2   :     0.069025
      dxy     :     0.059861
      f0      :     0.001121  f :     0.018416
      f+1     :     0.001354
      f-1     :     0.001242
      f+2     :     0.003480
      f-2     :     0.000309
      f+3     :     0.004692
      f-3     :     0.006217

  2 N s       :     2.975237  s :     2.975237
      pz      :     1.196681  p :     3.635555
      px      :     1.203102
      py      :     1.235772
      dz2     :     0.016002  d :     0.199562
      dxz     :     0.030389
      dyz     :     0.024462
      dx2y2   :     0.067929
      dxy     :     0.060780
      f0      :     0.001118  f :     0.018409
      f+1     :     0.001431
      f-1     :     0.001167
      f+2     :     0.003408
      f-2     :     0.000400
      f+3     :     0.004413
      f-3     :     0.006472

  3 N s       :     2.975202  s :     2.975202
      pz      :     1.172591  p :     3.617326
      px      :     1.245649
      py      :     1.199086
      dz2     :     0.015964  d :     0.204111
      dxz     :     0.025926
      dyz     :     0.033486
      dx2y2   :     0.068278
      dxy     :     0.060457
      f0      :     0.001096  f :     0.018770
      f+1     :     0.001187
      f-1     :     0.001383
      f+2     :     0.003806
      f-2     :     0.000345
      f+3     :     0.006388
      f-3     :     0.004565

  4 C s       :     2.766576  s :     2.766576
      pz      :     1.040603  p :     3.029753
      px      :     0.984414
      py      :     1.004736
      dz2     :     0.043238  d :     0.357254
      dxz     :     0.048049
      dyz     :     0.089854
      dx2y2   :     0.091854
      dxy     :     0.084260
      f0      :     0.004112  f :     0.040040
      f+1     :     0.003301
      f-1     :     0.003889
      f+2     :     0.004543
      f-2     :     0.005404
      f+3     :     0.009108
      f-3     :     0.009682

  5 C s       :     2.766688  s :     2.766688
      pz      :     1.040779  p :     3.029730
      px      :     1.002604
      py      :     0.986347
      dz2     :     0.040135  d :     0.357137
      dxz     :     0.093212
      dyz     :     0.048510
      dx2y2   :     0.085864
      dxy     :     0.089417
      f0      :     0.003847  f :     0.040021
      f+1     :     0.004248
      f-1     :     0.003387
      f+2     :     0.004397
      f-2     :     0.005200
      f+3     :     0.007440
      f-3     :     0.011502

  6 C s       :     2.715413  s :     2.715413
      pz      :     0.802905  p :     2.763294
      px      :     1.014585
      py      :     0.945803
      dz2     :     0.041934  d :     0.637751
      dxz     :     0.087117
      dyz     :     0.115711
      dx2y2   :     0.192053
      dxy     :     0.200936
      f0      :     0.004951  f :     0.077009
      f+1     :     0.004207
      f-1     :     0.006283
      f+2     :     0.011164
      f-2     :     0.006542
      f+3     :     0.031154
      f-3     :     0.012708

  7 C s       :     2.715389  s :     2.715389
      pz      :     0.802775  p :     2.763837
      px      :     0.939898
      py      :     1.021164
      dz2     :     0.041074  d :     0.637441
      dxz     :     0.102957
      dyz     :     0.099871
      dx2y2   :     0.190643
      dxy     :     0.202897
      f0      :     0.004968  f :     0.076958
      f+1     :     0.005881
      f-1     :     0.004476
      f+2     :     0.010036
      f-2     :     0.007658
      f+3     :     0.020749
      f-3     :     0.023189

  8 C s       :     2.746602  s :     2.746602
      pz      :     0.979360  p :     2.998598
[...]
  0-1A  ->  1-1A    2.232516   18006.5   555.4   0.235470493   0.02898  -0.10739   0.13208   0.00082
  0-1A  ->  2-1A    2.577233   20786.8   481.1   0.015392901   0.00219  -0.03642  -0.02933  -0.00076
  0-1A  ->  3-1A    3.368516   27168.9   368.1   1.472291151   0.27338   0.40623   0.32914   0.00562
  0-1A  ->  4-1A    3.541095   28560.9   350.1   1.160912473   0.22661  -0.29977   0.36977   0.00426
  0-1A  ->  5-1A    4.108264   33135.4   301.8   0.001023099   0.00023  -0.00826   0.01276  -0.00074
  0-1A  ->  6-1A    4.202544   33895.8   295.0   0.027081729   0.00627  -0.06209  -0.04917  -0.00125
  0-1A  ->  7-1A    4.585163   36981.8   270.4   0.148975628   0.03765   0.15009   0.12283   0.00634
  0-1A  ->  8-1A    4.648421   37492.0   266.7   0.000289870   0.00007   0.00140   0.00850   0.00026
  0-1A  ->  9-1A    4.774824   38511.6   259.7   0.063195139   0.01663   0.08227  -0.09932  -0.00083
  0-1A  -> 10-1A    4.888162   39425.7   253.6   0.002864087   0.00077  -0.01041   0.02563   0.00258
  0-1A  -> 11-1A    4.908971   39593.5   252.6   0.000719593   0.00019   0.00973   0.00058  -0.00999
  0-1A  -> 12-1A    4.991879   40262.2   248.4   0.109724084   0.03019   0.11001  -0.13442  -0.00485
  0-1A  -> 13-1A    5.077527   40953.0   244.2   0.013546676   0.00379  -0.04713  -0.03905   0.00677
  0-1A  -> 14-1A    5.268371   42492.3   235.3   0.015406396   0.00447   0.05257   0.04125  -0.00298
  0-1A  -> 15-1A    5.353844   43181.7   231.6   0.032575494   0.00961  -0.07706  -0.06051  -0.00385
  0-1A  -> 16-1A    5.374843   43351.0   230.7   0.001353652   0.00040  -0.00047   0.02002  -0.00002
  0-1A  -> 17-1A    5.380783   43398.9   230.4   0.142591255   0.04229  -0.12754   0.16133   0.00051
  0-1A  -> 18-1A    5.485332   44242.2   226.0   0.154939112   0.04685   0.13737  -0.16727  -0.00038
  0-1A  -> 19-1A    5.636546   45461.8   220.0   0.004803325   0.00149  -0.02326   0.01930   0.02405
  0-1A  -> 20-1A    5.642507   45509.9   219.7   0.004053126   0.00126   0.01991  -0.02875   0.00612
  0-1A  -> 21-1A    5.784832   46657.8   214.3   0.000754413   0.00024  -0.00418  -0.00003   0.01494
  0-1A  -> 22-1A    5.835349   47065.3   212.5   0.000170582   0.00005  -0.00077   0.00259   0.00690
  0-1A  -> 23-1A    5.915649   47712.9   209.6   0.000684034   0.00022   0.01351  -0.00637   0.00002
  0-1A  -> 24-1A    5.985256   48274.3   207.1   0.036598551   0.01208   0.06913  -0.08494  -0.00895
  0-1A  -> 25-1A    6.116063   49329.4   202.7   0.012890977   0.00435  -0.04096   0.05165   0.00055
  0-1A  -> 26-1A    6.152953   49626.9   201.5   0.000021540   0.00001   0.00074  -0.00233  -0.00114
  0-1A  -> 27-1A    6.184005   49877.4   200.5   0.005847569   0.00199  -0.03479  -0.02797  -0.00090
  0-1A  -> 28-1A    6.236675   50302.2   198.8   0.000022369   0.00001   0.00139  -0.00236   0.00043
  0-1A  -> 29-1A    6.329227   51048.7   195.9   0.002212073   0.00077   0.00293   0.00178   0.02757
  0-1A  -> 30-1A    6.395274   51581.4   193.9   0.000138638   0.00005  -0.00103   0.00530  -0.00444

------------------------------------------------------------------------------------------
                     CD SPECTRUM VIA TRANSITION ELECTRIC DIPOLE MOMENTS    
------------------------------------------------------------------------------------------
     Transition      Energy     Energy  Wavelength    R        MX        MY        MZ   
                      (eV)      (cm-1)    (nm)   (1e40*cgs)   (au)      (au)      (au)  
------------------------------------------------------------------------------------------
  0-1A  ->  1-1A    2.232516   18006.5   555.4    2.63608   0.02076   0.02736  -0.99396
  0-1A  ->  2-1A    2.577233   20786.8   481.1   -0.55088  -0.00536   0.01054   0.00125
  0-1A  ->  3-1A    3.368516   27168.9   368.1  -24.96490   0.03380  -0.06225  -0.00171
  0-1A  ->  4-1A    3.541095   28560.9   350.1    3.64738   0.06958   0.05856   0.05758
  0-1A  ->  5-1A    4.108264   33135.4   301.8   -2.00724  -0.00510  -0.02049   0.66653
  0-1A  ->  6-1A    4.202544   33895.8   295.0   -1.40853  -0.02927   0.04645   0.01025
  0-1A  ->  7-1A    4.585163   36981.8   270.4   -2.75864   0.01633  -0.02784  -0.00820
  0-1A  ->  8-1A    4.648421   37492.0   266.7   -0.72988  -0.03448  -0.02660   0.05426
  0-1A  ->  9-1A    4.774824   38511.6   259.7    1.35696  -0.03538  -0.03834   0.46557
  0-1A  -> 10-1A    4.888162   39425.7   253.6   23.28322  -0.21212   0.26506   0.09618
  0-1A  -> 11-1A    4.908971   39593.5   252.6    0.02001  -0.00856   0.00926  -0.00890
  0-1A  -> 12-1A    4.991879   40262.2   248.4   -7.31083  -0.03012   0.02504  -0.80529
  0-1A  -> 13-1A    5.077527   40953.0   244.2   -0.59155   0.00598  -0.00223  -0.00765
  0-1A  -> 14-1A    5.268371   42492.3   235.3    2.12707   0.01538   0.00237   0.00424
  0-1A  -> 15-1A    5.353844   43181.7   231.6    3.68187  -0.02375   0.00443  -0.00897
  0-1A  -> 16-1A    5.374843   43351.0   230.7   -6.35515  -0.18003  -0.14302  -0.17555
  0-1A  -> 17-1A    5.380783   43398.9   230.4   -1.27777   0.00605   0.00058   0.34304
  0-1A  -> 18-1A    5.485332   44242.2   226.0    0.66320  -0.04980  -0.04332   0.22573
  0-1A  -> 19-1A    5.636546   45461.8   220.0   13.50092  -0.01342   0.03224   0.24550
  0-1A  -> 20-1A    5.642507   45509.9   219.7   -7.41623  -0.03311   0.02562  -0.46677
  0-1A  -> 21-1A    5.784832   46657.8   214.3   -0.15638   0.02450  -0.04384   0.00271
  0-1A  -> 22-1A    5.835349   47065.3   212.5   -0.23894   0.02086  -0.04081   0.00118
  0-1A  -> 23-1A    5.915649   47712.9   209.6   -1.54371  -0.09422  -0.08169  -0.02233
  0-1A  -> 24-1A    5.985256   48274.3   207.1    4.75732   0.01332  -0.00204  -0.13568
  0-1A  -> 25-1A    6.116063   49329.4   202.7   -0.06601   0.00060  -0.00165   0.16937
  0-1A  -> 26-1A    6.152953   49626.9   201.5    0.31357  -0.15582  -0.13329   0.02837
  0-1A  -> 27-1A    6.184005   49877.4   200.5    1.79899  -0.03477   0.01003   0.00546
  0-1A  -> 28-1A    6.236675   50302.2   198.8   -0.11096   0.08308   0.06834  -0.01803
  0-1A  -> 29-1A    6.329227   51048.7   195.9    0.54004   0.08365  -0.10707   0.01009
  0-1A  -> 30-1A    6.395274   51581.4   193.9   -1.77522   0.16155  -0.18676  -0.01920

------------------------------------------------------------------------------------------
                     CD SPECTRUM VIA TRANSITION VELOCITY DIPOLE MOMENTS    
------------------------------------------------------------------------------------------
     Transition      Energy     Energy  Wavelength    R        MX        MY        MZ   
                      (eV)      (cm-1)    (nm)   (1e40*cgs)   (au)      (au)      (au)  
------------------------------------------------------------------------------------------
  0-1A  ->  1-1A    2.232516   18006.5   555.4    3.28038   0.02076   0.02736  -0.99396
  0-1A  ->  2-1A    2.577233   20786.8   481.1   -0.57209  -0.00536   0.01054   0.00125
  0-1A  ->  3-1A    3.368516   27168.9   368.1  -25.78206   0.03380  -0.06225  -0.00171
  0-1A  ->  4-1A    3.541095   28560.9   350.1    3.77056   0.06958   0.05856   0.05758
  0-1A  ->  5-1A    4.108264   33135.4   301.8   -2.21982  -0.00510  -0.02049   0.66653
  0-1A  ->  6-1A    4.202544   33895.8   295.0   -1.46384  -0.02927   0.04645   0.01025
  0-1A  ->  7-1A    4.585163   36981.8   270.4   -2.85741   0.01633  -0.02784  -0.00820
  0-1A  ->  8-1A    4.648421   37492.0   266.7   -0.71791  -0.03448  -0.02660   0.05426
  0-1A  ->  9-1A    4.774824   38511.6   259.7    1.37831  -0.03538  -0.03834   0.46557
  0-1A  -> 10-1A    4.888162   39425.7   253.6   24.27399  -0.21212   0.26506   0.09618
  0-1A  -> 11-1A    4.908971   39593.5   252.6    0.02855  -0.00856   0.00926  -0.00890
  0-1A  -> 12-1A    4.991879   40262.2   248.4   -7.11950  -0.03012   0.02504  -0.80529
  0-1A  -> 13-1A    5.077527   40953.0   244.2   -0.62248   0.00598  -0.00223  -0.00765
  0-1A  -> 14-1A    5.268371   42492.3   235.3    2.17637   0.01538   0.00237   0.00424
  0-1A  -> 15-1A    5.353844   43181.7   231.6    3.82527  -0.02375   0.00443  -0.00897
  0-1A  -> 16-1A    5.374843   43351.0   230.7   -6.62681  -0.18003  -0.14302  -0.17555
  0-1A  -> 17-1A    5.380783   43398.9   230.4   -1.20047   0.00605   0.00058   0.34304
  0-1A  -> 18-1A    5.485332   44242.2   226.0    0.74886  -0.04980  -0.04332   0.22573
  0-1A  -> 19-1A    5.636546   45461.8   220.0   15.56794  -0.01342   0.03224   0.24550
  0-1A  -> 20-1A    5.642507   45509.9   219.7   -9.66462  -0.03311   0.02562  -0.46677
  0-1A  -> 21-1A    5.784832   46657.8   214.3   -0.13483   0.02450  -0.04384   0.00271
  0-1A  -> 22-1A    5.835349   47065.3   212.5   -0.24983   0.02086  -0.04081   0.00118
  0-1A  -> 23-1A    5.915649   47712.9   209.6   -1.63156  -0.09422  -0.08169  -0.02233
  0-1A  -> 24-1A    5.985256   48274.3   207.1    4.94753   0.01332  -0.00204  -0.13568
  0-1A  -> 25-1A    6.116063   49329.4   202.7   -0.03682   0.00060  -0.00165   0.16937
  0-1A  -> 26-1A    6.152953   49626.9   201.5    0.33920  -0.15582  -0.13329   0.02837
  0-1A  -> 27-1A    6.184005   49877.4   200.5    1.91713  -0.03477   0.01003   0.00546
  0-1A  -> 28-1A    6.236675   50302.2   198.8   -0.10923   0.08308   0.06834  -0.01803
  0-1A  -> 29-1A    6.329227   51048.7   195.9    0.67357   0.08365  -0.10707   0.01009
  0-1A  -> 30-1A    6.395274   51581.4   193.9   -2.15009   0.16155  -0.18676  -0.01920

Total run time:    14416.452 sec

           *** ORCA-CIS/TD-DFT FINISHED WITHOUT ERROR ***
-----------------------
CIS/TD-DFT TOTAL ENERGY
-----------------------

    E(SCF)  =  -1266.215161187 Eh
    DE(CIS) =      0.082043452 Eh (Root  1)
    ----------------------------- ---------
    E(tot)  =  -1266.133117735 Eh


Maximum memory used throughout the entire CIS-calculation: 2711.0 MB
=> NOW LEAVING ORCA_CIS

-------------------------   --------------------
FINAL SINGLE POINT ENERGY     -1266.133117735266
-------------------------   --------------------



           ************************************************************
           *        Program running with 4 parallel MPI-processes     *
           *              working on a common directory               *
           ************************************************************

------------------------------------------------------------------------------
                              ORCA PROPERTY CALCULATIONS
------------------------------------------------------------------------------

GBWName                                 ... tddft.gbw
Number of atoms                         ...     42
Number of basis functions               ...    903
Max core memory                         ...   3000 MB

Electric properties:
Dipole moment                           ... YES
Quadrupole moment                       ...  NO
Static polarizability (Dipole/Dipole)   ...  NO
Static polarizability (Dipole/Quad.)    ...  NO
Static polarizability (Quad./Quad.)     ...  NO
Static polarizability (Velocity)        ...  NO
Static hyperpolarizability              ...  NO

Atomic electric properties:
Dipole moment                           ...  NO
Quadrupole moment                       ...  NO
Static polarizability                   ...  NO

Choice of electric origin               ... Center of mass
Position of electric origin             ...     0.033518    -0.007318     0.254024

General magnetic properties:
Magnetizability                         ...  NO

EPR properties:
g-Tensor (aka g-matrix)                 ...  NO
Zero-Field splitting spin-orbit         ...  NO
Zero-field splitting spin-spin          ...  NO
Hyperfine couplings                     ...  NO (   0 nuclei)
Quadrupole couplings                    ...  NO (   0 nuclei)
Contact density                         ...  NO (   0 nuclei)

NMR properties:
Chemical shifts                         ...  NO (   0 nuclei)
Spin-rotation constants                 ...  NO (   0 nuclei)
Spin-spin couplings                     ...  NO (   0 nuclei,    0 pairs)

Choice of magnetic origin               ... GIAO
Position of magnetic origin             ...     0.000000     0.000000     0.000000

Properties with geometric perturbations:
SCF Hessian                             ...  NO
IR spectrum                             ...  NO
VCD spectrum                            ...  NO
X-ray spectroscopy properties:
SCF XES/XAS/RIXS spectra                ...  NO

SCF SOC stabilization energy            ...  NO
Diagonal Born-Oppenheimer correction    ...  NO

-------------
DIPOLE MOMENT
-------------

Method             : SCF
Type of density    : Electron Density
Multiplicity       :   1
Irrep              :   0
Energy             : -1266.2151611873673573 Eh
Basis              : AO
                                X                 Y                 Z
Electronic contribution:     -5.493557824      -4.402202213      -1.025247559
Nuclear contribution   :      7.058745785       5.609567489       2.374276317
                        -----------------------------------------
Total Dipole Moment    :      1.565187960       1.207365276       1.349028758
                        -----------------------------------------
Magnitude (a.u.)       :      2.393203470
Magnitude (Debye)      :      6.083039794



--------------------
Rotational spectrum 
--------------------
 
Rotational constants in cm-1:             0.008427             0.008118             0.004363 
Rotational constants in MHz :           252.622162           243.384689           130.800892 

Dipole components along the rotational axes: 
x,y,z [a.u.] :     1.990741     0.029316     1.327973 
x,y,z [Debye]:     5.060062     0.074516     3.375440 

 

Dipole moment calculation done in   0.0 sec 

Maximum memory used throughout the entire PROP-calculation: 97.6 MB

--------------------------------
SUGGESTED CITATIONS FOR THIS RUN
--------------------------------

Below you find a list of papers that are relevant to this ORCA run
We neither can nor want to force you to cite these papers, but we appreciate if you do
You receive ORCA, which is the product of decades of hard work by many enthusiastic individuals, for free
The only thing we kindly ask in return is that you cite our papers,
We deeply appreciate it, if you show your appreciation for ORCA by not just citing the generic ORCA reference.

Please note that relegating all ORCA citations to the supporting information does *not* help us.
SI sections are not indexed - citations you put there will not count into any citation statistics
But we need these citations in order to attract the funding resources that allow us to do what we are doing

Therefore, if you are a happy ORCA user, please consider citing a few of the papers listed below in the main body of your paper

In addition to the list printed below, the program has created the file tddft.bibtex that contains the list in bibtex format
You can import this file easily into all common literature databanks and citation aid programs

It goes without saying that in many instances, there are alternative algorithms to achieve similar
results as the ones you have gotten from ORCA. It is, of course, also the case that in some instances
ORCA just re-implements algorithms worked out by others. We are fully aware of that and we are also
fully appreciative of our colleagues work. Hence this citation list should not be read as indicating
that the listed papers, which are focused on our own work, are the only ones worth citing. It simply
meant to make it easier for users to cite ORCA specific papers. It is not a substitute for doing your
own literature research and citing the relevant literature in a scientifically appropriate manner.

List of essential papers. We consider these as the minimum necessary citations

  1. Neese, F.
     Software update: the ORCA program system, version 6.0
     WIRES Comput. Molec. Sci. 2025 15(1), e70019
     doi.org/10.1002/wcms.70019

List of papers to cite with high priority. The work reported in these papers was absolutely
necessary for this run to complete.
Our perspective: the developers of density functionals and basis sets usually get cited in chemistry papers
Good! But without the algorithms to do something with them, the functionals or basis sets would not do anything.
Hence, in our opinion, the algorithm design and method developments papers are equally worthy of getting cited

  1. Neese, F.; Olbrich, G.
     Efficient use of the resolution of the identity approximation in time-dependent density functional calculations with hybrid density functionals
     Chem. Phys. Lett. 2002 362 , 170-178
     doi.org/10.1016/s0009-2614(02)01053-9
  2. Neese, F.
     An improvement of the resolution of the identity approximation for the formation of the Coulomb matrix
     J. Comp. Chem. 2003 24(14), 1740-1747
     doi.org/10.1002/jcc.10318
  3. Neese, F.; Wennmohs, F.; Hansen, A.; Becker, U.
     Efficient, approximate and parallel Hartree-Fock and hybrid DFT calculations. A 'chain-of-spheres' algorithm for the Hartree-Fock exchange
     Chem. Phys. 2009 356(1-3), 98-109
     doi.org/10.1016/j.chemphys.2008.10.036
  4. Garcia-Rates, M.; Neese, F.
     Effect of the Solute Cavity on the Solvation Energy and its Derivatives within the Framework of the Gaussian Charge Scheme
     J. Comput. Chem. 2020 41 , 922-939
     doi.org/10.1002/jcc.26139
  5. Helmich-Paris, B.; de Souza, B.; Neese, F.; Izsák, R.
     An improved chain of spheres for exchange algorithm
     J. Chem. Phys. 2021 155(10), 104109
     doi.org/10.1063/5.0058766
  6. Neese, F.
     The SHARK Integral Generation and Digestion System
     J. Comp. Chem. 2022 44(3), 381
     doi.org/10.1002/jcc.26942

List of suggested additional citations. These are papers that are important in the 'surrounding' of 
of this run, or papers that preceded the highly important papers. If you like your results we are grateful for a citation.

  1. Izsak, R.; Neese, F.
     An overlap fitted chain of spheres exchange method
     J. Chem. Phys. 2011 135 , 144105
     doi.org/10.1063/1.3646921
  2. Izsak, R.; Hansen, A.; Neese, F.
     The resolution of identity and chain of spheres approximations for the LPNO-CCSD singles Fock term
     Molec. Phys. 2012 110 , 2413-2417
     doi.org/10.1080/00268976.2012.687466
  3. Neese, F.
     The ORCA program system
     WIRES Comput. Molec. Sci. 2012 2(1), 73-78
     doi.org/10.1002/wcms.81
  4. Izsak, R.; Neese, F.; Klopper, W.
     Robust fitting techniques in the chain of spheres approximation to the Fock exchange: The role of the complementary space
     J. Chem. Phys. 2013 139 , 
     doi.org/10.1063/1.4819264
  5. Neese, F.
     Software update: the ORCA program system, version 4.0
     WIRES Comput. Molec. Sci. 2018 8(1), 1-6
     doi.org/10.1002/wcms.1327
  6. Neese, F.; Wennmohs, F.; Becker, U.; Riplinger, C.
     The ORCA quantum chemistry program package
     J. Chem. Phys. 2020 152(22), 224108
     doi.org/10.1063/5.0004608
  7. Neese, F.
     Software update: The ORCA program system—Version 5.0
     WIRES Comput. Molec. Sci. 2022 12(1), e1606
     doi.org/10.1002/wcms.1606

List of optional additional citations

  1. Neese, F.
     Approximate second-order SCF convergence for spin unrestricted wavefunctions
     Chem. Phys. Lett. 2000 325(1-3), 93-98
     doi.org/10.1016/s0009-2614(00)00662-x

Timings for individual modules:

Sum of individual times          ...    15792.927 sec (= 263.215 min)
Startup calculation              ...       18.248 sec (=   0.304 min)   0.1 %
SCF iterations                   ...     1355.669 sec (=  22.594 min)   8.6 %
Property integrals               ...        1.069 sec (=   0.018 min)   0.0 %
Property calculations            ...        0.899 sec (=   0.015 min)   0.0 %
CIS module                       ...    14417.042 sec (= 240.284 min)  91.3 %
                             ****ORCA TERMINATED NORMALLY****
TOTAL RUN TIME: 0 days 4 hours 23 minutes 13 seconds 335 msec
