
                                 *****************
                                 * O   R   C   A *
                                 *****************

                                            #,                                       
                                            ###                                      
                                            ####                                     
                                            #####                                    
                                            ######                                   
                                           ########,                                 
                                     ,,################,,,,,                         
                               ,,#################################,,                 
                          ,,##########################################,,             
                       ,#########################################, ''#####,          
                    ,#############################################,,   '####,        
                  ,##################################################,,,,####,       
                ,###########''''           ''''###############################       
              ,#####''   ,,,,##########,,,,          '''####'''          '####       
            ,##' ,,,,###########################,,,                        '##       
           ' ,,###''''                  '''############,,,                           
         ,,##''                                '''############,,,,        ,,,,,,###''
      ,#''                                            '''#######################'''  
     '                                                          ''''####''''         
             ,#######,   #######,   ,#######,      ##                                
            ,#'     '#,  ##    ##  ,#'     '#,    #''#        ,####,    ,#,          
            ##       ##  ##   ,#'  ##            #'  '#       #'       ,# #          
            ##       ##  #######   ##           ,######,      #####,      #          
            '#,     ,#'  ##    ##  '#,     ,#' ,#      #,     #,   #      #          
             '#######'   ##     ##  '#######'  #'      '#     '####' #    #          



                #########################################################
                #                        -***-                          #
                #          Department of theory and spectroscopy        #
                #                                                       #
                #                      Frank Neese                      #
                #                                                       #
                #     Directorship, Architecture, Infrastructure        #
                #                    SHARK, DRIVERS                     #
                #        Core code/Algorithms in most modules           #
                #                                                       #
                #        Max Planck Institute fuer Kohlenforschung      #
                #                Kaiser Wilhelm Platz 1                 #
                #                 D-45470 Muelheim/Ruhr                 #
                #                      Germany                          #
                #                                                       #
                #                  All rights reserved                  #
                #                        -***-                          #
                #########################################################


                         Program Version 6.1.1  -  RELEASE   -
                                (GIT: $487d211c$)
                          ($2025-11-21 10:33:24 +0100$)


 With contributions from (in alphabetic order):
[Max-Planck-Institut fuer Kohlenforschung]                               
  Daniel Aravena         : Magnetic Suceptibility                        
  Michael Atanasov       : Ab Initio Ligand Field Theory (pilot matlab implementation)
  Alexander A. Auer      : GIAO ZORA, VPT2 properties, NMR spectrum      
  Ute Becker             : All parallelization in ORCA, NUMFREQ, NUMCALC 
  Giovanni Bistoni       : ED, misc. LED, open-shell LED, HFLD           
  Dmytro Bykov           : pre 5.0 version of the SCF Hessian            
  Marcos Casanova-Páez   : Triplet and SCS-CIS(D). UHF-(DLPNO)-IP/EA/STEOM-CCSD. UHF-CVS-IP/STEOM-CCSD   
  Vijay G. Chilkuri      : MRCI spin determinant printing, contributions to CSF-ICE 
  Pauline Colinet        : FMM embedding                                 
  Dipayan Datta          : RHF DLPNO-CCSD density                        
  Achintya Kumar Dutta   : EOM-CC, STEOM-CC                              
  Nicolas Foglia         : Exact transition moments, OPA infrastructure, MCD improvements    
  Dmitry Ganyushin       : Spin-Orbit,Spin-Spin,Magnetic field MRCI      
  Miquel Garcia-Rates    : C-PCM and meta-GGA Hessian, CCSD/C-PCM, Gaussian charge scheme 
  Tiago L. C. Gouveia    : GS-ROHF, GS-ROCIS                             
  Yang Guo               : DLPNO-NEVPT2, F12-NEVPT2, CIM, IAO-localization        
  Andreas Hansen         : Spin unrestricted coupled pair/coupled cluster methods 
  Ingolf Harden          : AUTO-CI MPn and infrastructure                
  Benjamin Helmich-Paris : MC-RPA, TRAH-(SCF,CASSCF), AVAS, COSX integrals, SCF dyn. polar., MC-PDFT, srDFT 
  Lee Huntington         : MR-EOM, pCC                                   
  Robert Izsak           : Overlap fitted RIJCOSX, COSX-SCS-MP3, EOM     
  Riya Kayal             : Wick's Theorem for AUTO-CI, AUTO-CI UHF-CCSDT 
  Emily Kempfer          : AUTO-CI RHF CISDT and CCSDT, approximate NEVPT4
  Christian Kollmar      : KDIIS, OOCD, Brueckner-CCSD(T), CCSD density, CASPT2, CASPT2-K, improved NEVPT2 
  Axel Koslowski         : Symmetry handling                             
  Simone Kossmann        : meta-GGA functionals, TD-DFT gradient, OOMP2, (MP2 Hessian; deprecated post 5.0) 
  Lucas Lang             : DCDCAS, Hyperfine gauge corrections, ICE-SOC+SSC
  Marvin Lechner         : AUTO-CI (C++ implementation), FIC-MRCC        
  Spencer Leger          : CASSCF response                               
  Dagmar Lenk            : GEPOL surface, SMD, ORCA-2-JSON               
  Dimitrios Liakos       : Extrapolation schemes; Compound Job, Property file
  Dimitrios Manganas     : Further ROCIS development; embedding schemes. LFT, Crystal Embedding 
  Dimitrios Pantazis     : SARC Basis sets                               
  Anastasios Papadopoulos: AUTO-CI, single reference methods and gradients 
  Taras Petrenko         : pre 6.0 DFT Hessian and TD-DFT gradient,  ECA, NRVS 
  Petra Pikulova         : Analytic Raman intensities                    
  Peter Pinski           : DLPNO-MP2, DLPNO-MP2 Gradient                 
  Shashank Vittal Rao    : ES-AILFT, MagRelax                            
  Christoph Reimann      : Effective Core Potentials                     
  Marius Retegan         : Local ZFS, SOC                                
  Christoph Riplinger    : Optimizer, TS searches, QM/MM, DLPNO-CCSD(T), (RO)-DLPNO pert. Triples 
  Michael Roemelt        : Original ROCIS implementation, recursive CI coupling coefficients
  Masaaki Saitow         : Open-shell DLPNO-CCSD energy and density      
  Barbara Sandhoefer     : DKH picture change effects                    
  Yorick L. A. Schmerwitz: GMF and freeze-and-release deltaSCF, NEB S-IDPP initial path                    
  Kantharuban Sivalingam : CASSCF convergence/infrastructure, NEVPT2, NEVPT3, NEVPT4(SD), FIC-MRCI and CEPA variants
  Bernardo de Souza      : ESD, SOC TD-DFT                               
  Georgi L. Stoychev     : AutoAux, RI-MP2 NMR, DLPNO-MP2 response, X2C  
  Van Anh Tran           : RI-MP2 g-tensors                              
  Willem Van den Heuvel  : Paramagnetic NMR                              
  Zikuan Wang            : NOTCH, Electric field optimization            
  Frank Wennmohs         : Technical directorship and infrastructure     
  Hang Xu                : AUTO-CI-Response properties                   
                                                                         
[FACCTs GmbH]                                                            
  Markus Bursch, Nicolas Foglia, Miquel Garcia-Rates, Ingolf Harden, Hagen Neugebauer, Anastasios Papadopoulos, 
  Christoph Riplinger, Bernardo de Souza, Georgi L. Stoychev                                                    
                                                                 
  APM, various basis sets, CI-OPT, improved COSX, DLPNO-Multilevel,           
  DOCKER, DRACO, updates on ESD, Fragmentator, GOAT, IRC, LR-CPCM, L-BFGS, MBIS, meta-GGA TD-DFT gradient, ML-optimized integration grids, 
  MM, NACMEs, nearIR, NEB, NEB-TS, NL-DFT gradient (VV10), 2- and 3-layer-ONIOM, interface openCOSMO-RS, QMMM,   
  Crystal-QMMM, RESP, rigid body optimization, SF, symmetry and pop. for TD-DFT, various functionals, SOLVATOR                                   
                                                                         
[Other institutions]                                                     
  V. Asgeirsson          : NEB                                           
  Christoph Bannwarth    : sTDA-DFT, sTD-DFT, PBEh-3c, B97-3c, D3        
  Giovanni Bistoni       : ETS/NOCV, ADLD/ADEX, COVALED                  
  Martin Brehm           : Molecular dynamics                            
  Ronald Cardenas        : ETS/NOCV                                      
  Martina Colucci        : COVALED                                       
  Sebastian Ehlert       : rSCAN, r2SCAN, r2SCAN-3c, D4, dhf basis sets  
  Marvin Friede          : D4 for Fr, Ra, Ac-Lr                          
  Lars Goerigk           : TD-DFT with DH, B97 family of functionals     
  Stefan Grimme          : VdW corrections, initial TS optimization, DFT functionals, gCP, sTDA/sTD-DF 
  Waldemar Hujo          : DFT-NL                                        
  H. Jonsson             : NEB                                           
  Holger Kruse           : gCP                                           
  Marcel Mueller         : wB97X-3c, vDZP basis set                      
  Hagen Neugebauer       : wr2SCAN, Native XTB                           
  Gianluca Regni         : ADLD/ADEX                                     
  Tobias Risthaus        : pre 6.0 range-separated hybrid DFT and stability analysis
  Lukas Wittmann         : regularized MP2, r2SCAN double-hybrids, wr2SCAN        
                                                                         
We gratefully acknowledge several colleagues who have allowed us to      
interface, adapt or use parts of their codes:                            
  Ed Valeev, F. Pavosevic, A. Kumar             : LibInt (2-el integral package), F12 methods 
  Garnet Chan, S. Sharma, J. Yang, R. Olivares  : DMRG                   
  Ulf Ekstrom                                   : XCFun DFT Library      
  Mihaly Kallay                                 : mrcc  (arbitrary order and MRCC methods)
  Frank Weinhold                                : gennbo (NPA and NBO analysis)           
  Simon Mueller                                 : openCOSMO-RS                            
  Christopher J. Cramer and Donald G. Truhlar   : smd solvation model                     
  S Lehtola, MJT Oliveira, MAL Marques          : LibXC Library                           
  Liviu Ungur et al                             : ANISO software                          


 Your calculation uses the libint2 library for the computation of 2-el integrals
 For citations please refer to: http://libint.valeyev.net

 Your ORCA version has been built with support for libXC version: 7.0.0
 For citations please refer to: https://libxc.gitlab.io

 This ORCA versions uses:
   CBLAS   interface :  Fast vector & matrix operations
   LAPACKE interface :  Fast linear algebra routines
   SCALAPACK package :  Parallel linear algebra routines
   Shared memory     :  Shared parallel matrices
   BLAS/LAPACK       :  OpenBLAS 0.3.29  USE64BITINT DYNAMIC_ARCH NO_AFFINITY Haswell SINGLE_THREADED
        Core in use  :  Haswell
   Copyright (c) 2011-2014, The OpenBLAS Project


  ***********************************
  * Starting time: Fri Jul 10 19:00:45 2026
  * Host name:     steezy
  * Process ID:    2052706
  * Working dir.:  /home/jannes/chlorophyll-ladder/009-mgchlorin-axial-ligation/mgchlorin_h2o/03_tddft_ch2cl2/tpss
  ***********************************

NOTE: MaxCore=3000 MB was set to SCF,MP2,MDCI,CIPSI,MRCI,RASCI and CIS
      => If you want to overwrite this, your respective input block should be placed after the MaxCore statement


***************************************
The coordinates will be read from file: /home/jannes/chlorophyll-ladder/009-mgchlorin-axial-ligation/mgchlorin_h2o/01_opt/mgchlorin_h2o_opt_b3lypd4_tzvp.xyz
***************************************


================================================================================

----- Orbital basis set information -----
Your calculation utilizes the basis: def2-TZVP
   F. Weigend and R. Ahlrichs, Phys. Chem. Chem. Phys. 7, 3297 (2005).

----- AuxJ basis set information -----
Your calculation utilizes the auxiliary basis: def2/J
   H-Rn: F. Weigend, Phys. Chem. Chem. Phys. 8, 1057 (2006).
   Fr-Lr: K. Eichkorn, F. Weigend, O. Treutler, R. Ahlrichs; Theor. Chem. Acc. 97, 119 (1997).

================================================================================
                                        WARNINGS
                       Please study these warnings very carefully!
================================================================================



WARNING: Found flag for RIJCOSX approximation but no HF exchange needed!
  ===> : RIJCOSX  will be disabled and Split-RI-J is turned on

WARNING: CIS/ROCIS methods need fully converged wavefunctions
  ===> : Setting SCFConvForced true
         You can overwrite this default with %scf ConvForced false 


================================================================================
                                       INPUT FILE
================================================================================
NAME = tddft.inp
|  1> %pal nprocs 4 end
|  2> %maxcore 3000
|  3> ! TPSS def2-TZVP def2/J RIJCOSX DefGrid3 TightSCF CPCM(CH2Cl2)
|  4> %tddft
|  5>   nroots 30
|  6>   tda false
|  7>   triplets false
|  8> end
|  9> * xyzfile 0 1 /home/jannes/chlorophyll-ladder/009-mgchlorin-axial-ligation/mgchlorin_h2o/01_opt/mgchlorin_h2o_opt_b3lypd4_tzvp.xyz
| 10> 
| 11>                          ****END OF INPUT****
================================================================================

                       ****************************
                       * Single Point Calculation *
                       ****************************

---------------------------------
CARTESIAN COORDINATES (ANGSTROEM)
---------------------------------
  N      1.626237    1.306031    0.038938
  N     -1.306004    1.563454    0.073494
  N      1.278091   -1.617727    0.032663
  N     -1.618670   -1.330354   -0.001239
  C      2.884212    3.312096   -0.106744
  C      3.851613    2.129509    0.036084
  C      1.518889    2.656943   -0.000259
  C      2.927476    0.924704    0.029433
  C      0.345098    3.375640    0.024626
  C      3.390098   -0.371684    0.030361
  C     -0.971571    2.875123    0.046632
  C      2.630694   -1.558342    0.009504
  C     -2.683428    1.493746    0.043446
  C      0.927764   -2.950452   -0.032204
  C     -2.163831    3.684590    0.016307
  C      3.178677   -2.889613   -0.057444
  C     -3.222005    2.827457    0.015258
  C      2.122768   -3.749464   -0.083712
  C     -3.424259    0.324812    0.012386
  C     -0.368495   -3.435740   -0.062660
  C     -2.939096   -0.989888   -0.017415
  C     -1.556212   -2.691802   -0.053844
  C     -3.744507   -2.176095   -0.081554
  C     -2.883300   -3.235943   -0.104918
  H      2.984308    3.808734   -1.074923
  H      3.023248    4.077480    0.657932
  H      4.413638    2.168171    0.972749
  H      4.583647    2.075155   -0.770467
  H      0.439997    4.454120   -0.009359
  H      4.465764   -0.498594    0.017958
  H     -2.182660    4.763077   -0.012865
  H      4.230416   -3.128335   -0.092018
  H     -4.272860    3.071062   -0.014968
  H      2.146008   -4.826710   -0.143520
  H     -4.501372    0.438383   -0.010408
  H     -0.477643   -4.512439   -0.111844
  H     -4.822977   -2.197036   -0.110605
  H     -3.125386   -4.286224   -0.156604
  Mg    -0.024410   -0.037383    0.259696
  O      0.089462    0.001641    2.400445
  H     -0.015446    0.876043    2.793738
  H      0.906415   -0.374880    2.748982

----------------------------
CARTESIAN COORDINATES (A.U.)
----------------------------
  NO LB      ZA    FRAG     MASS         X           Y           Z
   0 N     7.0000    0    14.007    3.073142    2.468041    0.073583
   1 N     7.0000    0    14.007   -2.467990    2.954499    0.138883
   2 N     7.0000    0    14.007    2.415242   -3.057062    0.061724
   3 N     7.0000    0    14.007   -3.058844   -2.514004   -0.002341
   4 C     6.0000    0    12.011    5.450370    6.258954   -0.201717
   5 C     6.0000    0    12.011    7.278494    4.024188    0.068188
   6 C     6.0000    0    12.011    2.870285    5.020895   -0.000488
   7 C     6.0000    0    12.011    5.532128    1.747438    0.055620
   8 C     6.0000    0    12.011    0.652140    6.379035    0.046536
   9 C     6.0000    0    12.011    6.406357   -0.702381    0.057374
  10 C     6.0000    0    12.011   -1.836003    5.433195    0.088122
  11 C     6.0000    0    12.011    4.971290   -2.944840    0.017959
  12 C     6.0000    0    12.011   -5.070944    2.822771    0.082100
  13 C     6.0000    0    12.011    1.753220   -5.575546   -0.060857
  14 C     6.0000    0    12.011   -4.089048    6.962866    0.030817
  15 C     6.0000    0    12.011    6.006830   -5.460577   -0.108554
  16 C     6.0000    0    12.011   -6.088707    5.343119    0.028833
  17 C     6.0000    0    12.011    4.011451   -7.085461   -0.158192
  18 C     6.0000    0    12.011   -6.470911    0.613806    0.023406
  19 C     6.0000    0    12.011   -0.696355   -6.492607   -0.118411
  20 C     6.0000    0    12.011   -5.554086   -1.870617   -0.032909
  21 C     6.0000    0    12.011   -2.940814   -5.086769   -0.101750
  22 C     6.0000    0    12.011   -7.076093   -4.112224   -0.154114
  23 C     6.0000    0    12.011   -5.448647   -6.115046   -0.198266
  24 H     1.0000    0     1.008    5.639524    7.197465   -2.031310
  25 H     1.0000    0     1.008    5.713110    7.705321    1.243310
  26 H     1.0000    0     1.008    8.340566    4.097250    1.838229
  27 H     1.0000    0     1.008    8.661837    3.921474   -1.455971
  28 H     1.0000    0     1.008    0.831474    8.417068   -0.017687
  29 H     1.0000    0     1.008    8.439072   -0.942206    0.033937
  30 H     1.0000    0     1.008   -4.124629    9.000911   -0.024312
  31 H     1.0000    0     1.008    7.994329   -5.911696   -0.173889
  32 H     1.0000    0     1.008   -8.074535    5.803466   -0.028286
  33 H     1.0000    0     1.008    4.055367   -9.121160   -0.271213
  34 H     1.0000    0     1.008   -8.506360    0.828424   -0.019668
  35 H     1.0000    0     1.008   -0.902615   -8.527274   -0.211354
  36 H     1.0000    0     1.008   -9.114105   -4.151796   -0.209014
  37 H     1.0000    0     1.008   -5.906123   -8.099789   -0.295939
  38 Mg   12.0000    0    24.305   -0.046129   -0.070645    0.490755
  39 O     8.0000    0    15.999    0.169058    0.003101    4.536184
  40 H     1.0000    0     1.008   -0.029188    1.655482    5.279399
  41 H     1.0000    0     1.008    1.712876   -0.708421    5.194824

--------------------------------
INTERNAL COORDINATES (ANGSTROEM)
--------------------------------
 N      0   0   0     0.000000000000     0.00000000     0.00000000
 N      1   0   0     2.943721516731     0.00000000     0.00000000
 N      1   2   0     2.944419744066    88.22821202     0.00000000
 N      3   1   2     2.911178508507    91.12635037     1.34167266
 C      1   2   3     2.372345005729   117.06317661   176.24693010
 C      5   1   2     1.534528707660    71.15009076   176.59765671
 C      1   2   3     1.355737662676    80.46391429   178.06387760
 C      1   2   3     1.355995573600   168.68126818   358.54301494
 C      7   1   2     1.376564826847   125.96068500     1.52248966
 C      8   1   7     1.376459981018   125.97094915   181.58682588
 C      2   1   3     1.353899199071    80.70233079   181.18489476
 C      3   1   2     1.354103508536    80.69908692   179.66364965
 C      2   1   3     1.379514252775   171.85646874   346.50317993
 C      3   1   2     1.379525682750   171.65892207    18.71192698
 C     11   2   1     1.441402530311   109.88694227   178.63361876
 C     12   3   1     1.441197157130   109.88239714   182.19272878
 C     15  11   2     1.361767479563   106.81528502   359.54521630
 C     16  12   3     1.361975943462   106.81521067     0.43000617
 C     13   2  11     1.384269234552   125.27672082   177.73206013
 C     14   3  12     1.384456718752   125.27054729   181.49849213
 C      4   3   1     1.363708574783   171.20756988     0.24138409
 C      4   3   1     1.363894974438    81.74059628   177.77833719
 C     21   4  22     1.435231524833   109.72751259     0.04335446
 C     23  21   4     1.365833301255   106.75377651   359.94336044
 H      5   1   2     1.092720945061   119.16379692   281.85954556
 H      5   1   2     1.090812952053   128.16075500    71.36484840
 H      6   5   1     1.093026947053   112.12690580   244.91754971
 H      6   5   1     1.090573515161   113.12488809   123.95340319
 H      9   7   1     1.083181006441   116.39489105   179.72259474
 H     10   8   1     1.083198326177   116.36560415   179.77296715
 H     15  11   2     1.079045426292   125.19031665   180.27269833
 H     16  12   3     1.079045146572   125.20154794   179.71013310
 H     17  15  11     1.079144728524   127.92460432   180.75444031
 H     18  16  12     1.079155013060   127.92162589   179.28104477
 H     19  13   2     1.083323844085   116.36285765   180.08911017
 H     20  14   3     1.083334754912   116.34088540   180.12999787
 H     23  21   4     1.079063908001   125.31735682   180.27287049
 H     24  23  21     1.079058313192   127.92546313   180.33697144
 Mg     2   1   3     2.059085410304    46.61425575     7.93257506
 O     39   2   1     2.144130582759    96.26875525    92.81001535
 H     40  39   2     0.964501862100   114.69880499   329.89614876
 H     40  39   2     0.964707027710   113.49002546   205.95922581

---------------------------
INTERNAL COORDINATES (A.U.)
---------------------------
 N      0   0   0     0.000000000000     0.00000000     0.00000000
 N      1   0   0     5.562827481153     0.00000000     0.00000000
 N      1   2   0     5.564146939595    88.22821202     0.00000000
 N      3   1   2     5.501330108036    91.12635037     1.34167266
 C      1   2   3     4.483082356004   117.06317661   176.24693010
 C      5   1   2     2.899839002117    71.15009076   176.59765671
 C      1   2   3     2.561972891901    80.46391429   178.06387760
 C      1   2   3     2.562460272913   168.68126818   358.54301494
 C      7   1   2     2.601330528330   125.96068500     1.52248966
 C      8   1   7     2.601132398426   125.97094915   181.58682588
 C      2   1   3     2.558498699180    80.70233079   181.18489476
 C      3   1   2     2.558884788116    80.69908692   179.66364965
 C      2   1   3     2.606904135587   171.85646874   346.50317993
 C      3   1   2     2.606925735108   171.65892207    18.71192698
 C     11   2   1     2.723856031028   109.88694227   178.63361876
 C     12   3   1     2.723467931962   109.88239714   182.19272878
 C     15  11   2     2.573367594455   106.81528502   359.54521630
 C     16  12   3     2.573761534133   106.81521067     0.43000617
 C     13   2  11     2.615889748916   125.27672082   177.73206013
 C     14   3  12     2.616244042709   125.27054729   181.49849213
 C      4   3   1     2.577035732819   171.20756988     0.24138409
 C      4   3   1     2.577387977119    81.74059628   177.77833719
 C     21   4  22     2.712194520705   109.72751259     0.04335446
 C     23  21   4     2.581050883961   106.75377651   359.94336044
 H      5   1   2     2.064943326965   119.16379692   281.85954556
 H      5   1   2     2.061337742714   128.16075500    71.36484840
 H      6   5   1     2.065521586925   112.12690580   244.91754971
 H      6   5   1     2.060885272563   113.12488809   123.95340319
 H      9   7   1     2.046915455639   116.39489105   179.72259474
 H     10   8   1     2.046948185197   116.36560415   179.77296715
 H     15  11   2     2.039100341751   125.19031665   180.27269833
 H     16  12   3     2.039099813159   125.20154794   179.71013310
 H     17  15  11     2.039287995775   127.92460432   180.75444031
 H     18  16  12     2.039307430731   127.92162589   179.28104477
 H     19  13   2     2.047185379667   116.36285765   180.08911017
 H     20  14   3     2.047205998143   116.34088540   180.12999787
 H     23  21   4     2.039135267120   125.31735682   180.27287049
 H     24  23  21     2.039124694465   127.92546313   180.33697144
 Mg     2   1   3     3.891107511828    46.61425575     7.93257506
 O     39   2   1     4.051819596780    96.26875525    92.81001535
 H     40  39   2     1.822644375026   114.69880499   329.89614876
 H     40  39   2     1.823032081841   113.49002546   205.95922581

---------------------
BASIS SET INFORMATION
---------------------
There are 5 groups of distinct atoms

 Group   1 Type N   : 11s6p2d1f contracted to 5s3p2d1f pattern {62111/411/11/1}
 Group   2 Type C   : 11s6p2d1f contracted to 5s3p2d1f pattern {62111/411/11/1}
 Group   3 Type H   : 5s1p contracted to 3s1p pattern {311/1}
 Group   4 Type Mg  : 14s8p3d contracted to 5s4p3d pattern {73211/5111/111}
 Group   5 Type O   : 11s6p2d1f contracted to 5s3p2d1f pattern {62111/411/11/1}

Atom   0N    basis set group =>   1
Atom   1N    basis set group =>   1
Atom   2N    basis set group =>   1
Atom   3N    basis set group =>   1
Atom   4C    basis set group =>   2
Atom   5C    basis set group =>   2
Atom   6C    basis set group =>   2
Atom   7C    basis set group =>   2
Atom   8C    basis set group =>   2
Atom   9C    basis set group =>   2
Atom  10C    basis set group =>   2
Atom  11C    basis set group =>   2
Atom  12C    basis set group =>   2
Atom  13C    basis set group =>   2
Atom  14C    basis set group =>   2
Atom  15C    basis set group =>   2
Atom  16C    basis set group =>   2
Atom  17C    basis set group =>   2
Atom  18C    basis set group =>   2
Atom  19C    basis set group =>   2
Atom  20C    basis set group =>   2
Atom  21C    basis set group =>   2
Atom  22C    basis set group =>   2
Atom  23C    basis set group =>   2
Atom  24H    basis set group =>   3
Atom  25H    basis set group =>   3
Atom  26H    basis set group =>   3
Atom  27H    basis set group =>   3
Atom  28H    basis set group =>   3
Atom  29H    basis set group =>   3
Atom  30H    basis set group =>   3
Atom  31H    basis set group =>   3
Atom  32H    basis set group =>   3
Atom  33H    basis set group =>   3
Atom  34H    basis set group =>   3
Atom  35H    basis set group =>   3
Atom  36H    basis set group =>   3
Atom  37H    basis set group =>   3
Atom  38Mg   basis set group =>   4
Atom  39O    basis set group =>   5
Atom  40H    basis set group =>   3
Atom  41H    basis set group =>   3
---------------------------------
AUXILIARY/J BASIS SET INFORMATION
---------------------------------
There are 5 groups of distinct atoms

 Group   1 Type N   : 12s5p4d2f1g contracted to 6s4p3d1f1g pattern {711111/2111/211/2/1}
 Group   2 Type C   : 12s5p4d2f1g contracted to 6s4p3d1f1g pattern {711111/2111/211/2/1}
 Group   3 Type H   : 5s2p1d contracted to 3s1p1d pattern {311/2/1}
 Group   4 Type Mg  : 14s5p5d2f1g contracted to 8s4p4d1f1g pattern {71111111/2111/2111/2/1}
 Group   5 Type O   : 12s5p4d2f1g contracted to 6s4p3d1f1g pattern {711111/2111/211/2/1}

Atom   0N    basis set group =>   1
Atom   1N    basis set group =>   1
Atom   2N    basis set group =>   1
Atom   3N    basis set group =>   1
Atom   4C    basis set group =>   2
Atom   5C    basis set group =>   2
Atom   6C    basis set group =>   2
Atom   7C    basis set group =>   2
Atom   8C    basis set group =>   2
Atom   9C    basis set group =>   2
Atom  10C    basis set group =>   2
Atom  11C    basis set group =>   2
Atom  12C    basis set group =>   2
Atom  13C    basis set group =>   2
Atom  14C    basis set group =>   2
Atom  15C    basis set group =>   2
Atom  16C    basis set group =>   2
Atom  17C    basis set group =>   2
Atom  18C    basis set group =>   2
Atom  19C    basis set group =>   2
Atom  20C    basis set group =>   2
Atom  21C    basis set group =>   2
Atom  22C    basis set group =>   2
Atom  23C    basis set group =>   2
Atom  24H    basis set group =>   3
Atom  25H    basis set group =>   3
Atom  26H    basis set group =>   3
Atom  27H    basis set group =>   3
Atom  28H    basis set group =>   3
Atom  29H    basis set group =>   3
Atom  30H    basis set group =>   3
Atom  31H    basis set group =>   3
Atom  32H    basis set group =>   3
Atom  33H    basis set group =>   3
Atom  34H    basis set group =>   3
Atom  35H    basis set group =>   3
Atom  36H    basis set group =>   3
Atom  37H    basis set group =>   3
Atom  38Mg   basis set group =>   4
Atom  39O    basis set group =>   5
Atom  40H    basis set group =>   3
Atom  41H    basis set group =>   3


           ************************************************************
           *        Program running with 4 parallel MPI-processes     *
           *              working on a common directory               *
           ************************************************************
------------------------------------------------------------------------------
                             ORCA STARTUP CALCULATIONS
                           -- RI-GTO INTEGRALS CHOSEN --
------------------------------------------------------------------------------
------------------------------------------------------------------------------
                   ___                                                        
                  /   \      - P O W E R E D   B Y -                         
                 /     \                                                     
                 |  |  |   _    _      __       _____    __    __             
                 |  |  |  | |  | |    /  \     |  _  \  |  |  /  |          
                  \  \/   | |  | |   /    \    | | | |  |  | /  /          
                 / \  \   | |__| |  /  /\  \   | |_| |  |  |/  /          
                |  |  |   |  __  | /  /__\  \  |    /   |      \           
                |  |  |   | |  | | |   __   |  |    \   |  |\   \          
                \     /   | |  | | |  |  |  |  | |\  \  |  | \   \       
                 \___/    |_|  |_| |__|  |__|  |_| \__\ |__|  \__/        
                                                                              
                      - O R C A' S   B I G   F R I E N D -                    
                                      &                                       
                       - I N T E G R A L  F E E D E R -                       
                                                                              
 v1 FN, 2020, v2 2021, v3 2022-2024                                           
------------------------------------------------------------------------------


----------------------
SHARK INTEGRAL PACKAGE
----------------------

Number of atoms                             ...     42
Number of basis functions                   ...    903
Number of shells                            ...    351
Maximum angular momentum                    ...      3
Integral batch strategy                     ... SHARK/LIBINT Hybrid
RI-J (if used) integral strategy            ... SPLIT-RIJ (Revised 2003 algorithm where possible)
Printlevel                                  ...      1
Contraction scheme used                     ... SEGMENTED contraction
Prescreening option                         ... SCHWARTZ
   Thresh                                   ... 2.500e-11
   Tcut                                     ... 2.500e-12
   Tpresel                                  ... 2.500e-12 
Coulomb Range Separation                    ... NOT USED
Exchange Range Separation                   ... NOT USED
Multipole approximations                    ... NOT USED
Finite Nucleus Model                        ... NOT USED
CABS basis                                  ... NOT available
Auxiliary Coulomb fitting basis             ... AVAILABLE
   # of basis functions in Aux-J            ...   1457
   # of shells in Aux-J                     ...    473
   Maximum angular momentum in Aux-J        ...      4
Auxiliary J/K fitting basis                 ... NOT available
Auxiliary Correlation fitting basis         ... NOT available
Auxiliary 'external' fitting basis          ... NOT available

Checking pre-screening integrals            ... done (  0.0 sec) Dimension = 351
   => SHARK Basis and OBASIS are compatible. Storing Pre-screening
Shell pair information
Shell pair cut-off parameter TPreSel        ...   2.5e-12
Total number of shell pairs                 ...     61776
Shell pairs after pre-screening             ...     43746
Total number of primitive shell pairs       ...    193764
Primitive shell pairs kept                  ...     89275
          la=0 lb=0:  10682 shell pairs
          la=1 lb=0:  12550 shell pairs
          la=1 lb=1:   3664 shell pairs
          la=2 lb=0:   6430 shell pairs
          la=2 lb=1:   3867 shell pairs
          la=2 lb=2:   1053 shell pairs
          la=3 lb=0:   2743 shell pairs
          la=3 lb=1:   1710 shell pairs
          la=3 lb=2:    860 shell pairs
          la=3 lb=3:    187 shell pairs

Checking whether 4 symmetric matrices of dimension 903 fit in memory
:Max Core in MB      =   3000.00
 MB in use           =     56.45
 MB left             =   2943.55
 MB needed           =     12.46
 Data fit in memory  = YES
Calculating RI/J V-Matrix + Cholesky decomp.... done (  0.2 sec)
Calculating Nuclear repulsion               ... done (  0.0 sec) ENN=   2395.276864768696 Eh

Diagonalization of the overlap matrix:
Smallest eigenvalue                        ... 1.019e-05
Time for diagonalization                   ...    0.229 sec
Threshold for overlap eigenvalues          ... 1.000e-07
Number of eigenvalues below threshold      ... 0
Time for construction of square roots      ...    0.123 sec
Total time needed                          ...    0.361 sec

-------------------
DFT GRID GENERATION
-------------------

General Integration Accuracy     IntAcc      ... 4.959
Radial Grid Type                 RadialGrid  ... OptM3 with GC (2021)
Angular Grid (max. ang.)         AngularGrid ... 6 (Lebedev-590)
Angular grid pruning method      GridPruning ... 4 (adaptive)
Weight generation scheme         WeightScheme... mBecke (2022)
Basis function cutoff            BFCut       ... 1.0000e-11
Integration weight cutoff        WCut        ... 1.0000e-14
Partially contracted basis set               ... off
Rotationally invariant grid construction     ... off
Angular grids for H and He will be reduced by one unit

Total number of grid points                  ...   503735
Total number of batches                      ...     7886
Average number of points per batch           ...       63
Average number of grid points per atom       ...    11994
Grids setup in   9.3 sec
Initializing property integral containers    ... done (  0.0 sec)

SHARK setup successfully completed in  10.8 seconds

Maximum memory used throughout the entire STARTUP-calculation: 166.9 MB


           ************************************************************
           *        Program running with 4 parallel MPI-processes     *
           *              working on a common directory               *
           ************************************************************
-------------------------------------------------------------------------------
                                 ORCA GUESS
                   Start orbitals & Density for SCF / CASSCF
-------------------------------------------------------------------------------

------------
SCF SETTINGS
------------
Hamiltonian:
 Density Functional     Method          .... DFT(GTOs)
 Exchange Functional    Exchange        .... TPSS
 Correlation Functional Correlation     .... TPSS
 LDA part of GGA corr.  LDAOpt          .... PW91-LDA
 Gradients option       PostSCFGGA      .... off
   NL short-range parameter             ....  5.000000
 RI-approximation to the Coulomb term is turned on
   Number of AuxJ basis functions       .... 1457


General Settings:
 Integral files         IntName         .... tddft
 Hartree-Fock type      HFTyp           .... RHF
 Total Charge           Charge          ....    0
 Multiplicity           Mult            ....    1
 Number of Electrons    NEL             ....  184
 Basis Dimension        Dim             ....  903
 Nuclear Repulsion      ENuc            ....   2395.2768647687 Eh

Convergence Acceleration:
 AO-DIIS                CNVDIIS         .... on
   Start iteration      DIISMaxIt       ....    12
   Startup error        DIISStart       ....  0.200000
   # of expansion vecs  DIISMaxEq       ....     5
   Bias factor          DIISBfac        ....   1.050
   Max. coefficient     DIISMaxC        ....  10.000
 MO-DIIS                CNVKDIIS        .... off
 Trust-Rad. Augm. Hess. CNVTRAH         .... auto
   Auto Start mean grad. ratio tolernc. ....  1.125000
   Auto Start start iteration           ....    50
   Auto Start num. interpolation iter.  ....    10
   Max. Number of Micro iterations      ....    24
   Max. Number of Macro iterations      .... Maxiter - #DIIS iter
   Number of Davidson start vectors     ....     2
   Converg. threshold    (grad. norm)   ....   1.000e-05
   Grad. Scal. Fac. for Micro threshold ....   0.100
   Minimum threshold for Micro iter.    ....   1.000e-02
   NR start threshold (gradient norm)   ....   1.000e-04
   Initial trust radius                 ....   0.400
   Minimum AH scaling param. (alpha)    ....   1.000
   Maximum AH scaling param. (alpha)    .... 1000.000
   Quad. conv. algorithm                .... NR
   White noise on init. David. guess    .... on
   Maximum white noise                  ....   0.010
   Pseudo random numbers                .... off
   Inactive MOs                         .... canonical
   Orbital update algorithm             .... Taylor
   Preconditioner                       .... Diag
   Full preconditioner red. dimension   ....   250
 SOSCF                 CNVSOSCF           .... on
   Start iteration     SOSCFMaxIt         ....   150
   Startup grad/error  SOSCFStart         ....  0.003300
   Hessian update      SOSCFHessUp        .... L-BFGS
   Autom. constraints  SOSCFAutoConstrain .... off
 Level Shifting         CNVShift        .... on
   Level shift para.    LevelShift      ....    0.2500
   Turn off err/grad.   ShiftErr        ....    0.0010
 Zerner damping         CNVZerner       .... off
 Static damping         CNVDamp         .... on
   Fraction old density DampFac         ....    0.7000
   Max. Damping (<1)    DampMax         ....    0.9800
   Min. Damping (>=0)   DampMin         ....    0.0000
   Turn off err/grad.   DampErr         ....    0.1000

SCF Procedure:
 Maximum # iterations   MaxIter         ....   125
 SCF integral mode      SCFMode         .... Direct
   Integral package                     .... SHARK and LIBINT hybrid scheme
 Reset frequency        DirectResetFreq ....    20
 Integral Threshold     Thresh          ....  2.500e-11 Eh
 Primitive CutOff       TCut            ....  2.500e-12 Eh

Convergence Tolerance:
 Convergence Check Mode ConvCheckMode   .... Total+1el-Energy
 Convergence forced     ConvForced      .... 1
 Energy Change          TolE            ....  1.000e-08 Eh
 1-El. energy change                    ....  1.000e-05 Eh
 Orbital Gradient       TolG            ....  1.000e-05
 Orbital Rotation angle TolX            ....  1.000e-05
 DIIS Error             TolErr          ....  5.000e-07

------------------------------
INITIAL GUESS: MODEL POTENTIAL
------------------------------
Loading Hartree-Fock densities                     ... done
Calculating cut-offs                               ... done
Initializing the effective Hamiltonian             ... done
Setting up the integral package (SHARK)            ... done
Starting the Coulomb interaction                   ... done (   1.9 sec)
Making the grid                                    ... done (   0.7 sec)
Mapping shells                                     ... done
Starting the XC term evaluation                    ... done (   1.0 sec)
  promolecular density results
     # of electrons  =    183.996423990
     EX              =   -157.477042248
     EC              =     -6.248844446
     EX+EC           =   -163.725886694
Transforming the Hamiltonian                       ... done (   0.1 sec)
Diagonalizing the Hamiltonian                      ... done (   0.2 sec)
Back transforming the eigenvectors                 ... done (   0.1 sec)
Now organizing SCF variables                       ... done
                      ------------------
                      INITIAL GUESS DONE (   4.0 sec)
                      ------------------
             **** ENERGY FILE WAS UPDATED (tddft.en.tmp) ****
Finished Guess after   4.6 sec
Maximum memory used throughout the entire GUESS-calculation: 94.7 MB


           ************************************************************
           *        Program running with 4 parallel MPI-processes     *
           *              working on a common directory               *
           ************************************************************

-------------------------------------------------------------------------------------------
                                      ORCA LEAN-SCF
                              memory conserving SCF solver
-------------------------------------------------------------------------------------------

--------------------
CPCM SOLVATION MODEL
--------------------
CPCM parameters:
  Epsilon                                         ...       8.9990
  Refrac                                          ...       1.4242
  Rsolv                                           ...       1.3000
  Surface type                                    ... GAUSSIAN VDW
  Discretization scheme                           ... Constant charge density
    Threshold for H atoms                         ...       5.0000 (charges/Ang^2)
    Threshold for non-H atoms                     ...       5.0000 (charges/Ang^2)
  Epsilon function type                           ...         CPCM
Solvent:                                          ... DICHLOROMETHANE
Radii:
  Scheme                                          ... Element-dependent radii
  Radius for N  used is    3.5149 Bohr (=   1.8600 Ang.)
  Radius for C  used is    3.8550 Bohr (=   2.0400 Ang.)
  Radius for H  used is    2.4944 Bohr (=   1.3200 Ang.)
  Radius for Mg used is    3.9231 Bohr (=   2.0760 Ang.)
  Radius for O  used is    3.4469 Bohr (=   1.8240 Ang.)
Calculating surface                               ...        done! (  0.0s)
Cavity surface points                             ...         3714
Cavity Volume                                     ...    2655.0298
Cavity Surface-area                               ...    1281.3601
Calculating surface distance matrix               ...        done! (  0.3s)
Performing Cholesky decomposition & store         ...        done! (  0.7s)
Overall time for CPCM initialization              ...                 1.0s

----------------------------------------D-I-I-S--------------------------------------------
Iteration    Energy (Eh)           Delta-E    RMSDP     MaxDP     DIISErr   Damp  Time(sec)
-------------------------------------------------------------------------------------------
               ***  Starting incremental Fock matrix formation  ***
    1    -1266.2831250483086478     0.00e+00  2.16e-03  4.50e-02  2.74e-01  0.700  23.8
Warning: op=0 Small HOMO/LUMO gap (   0.066) - skipping pre-diagonalization
         Will do a full diagonalization
    2    -1266.5567001174954385    -2.74e-01  1.81e-03  3.61e-02  9.81e-02  0.700  20.7
                               ***Turning on AO-DIIS***
    3    -1266.6606498387363899    -1.04e-01  9.16e-04  1.90e-02  3.06e-02  0.700  22.1
    4    -1266.7215981621147876    -6.09e-02  1.78e-03  4.09e-02  1.43e-02  0.000  22.0
    5    -1266.8561795493537829    -1.35e-01  4.03e-04  1.58e-02  6.11e-03  0.000  23.3
                              *** Initializing SOSCF ***
---------------------------------------S-O-S-C-F--------------------------------------
Iteration    Energy (Eh)           Delta-E    RMSDP     MaxDP     MaxGrad    Time(sec)
--------------------------------------------------------------------------------------
    6    -1266.8572397611028464    -1.06e-03  2.06e-04  7.66e-03  1.49e-03    21.4
               *** Restarting incremental Fock matrix formation ***
    7    -1266.8573106313529024    -7.09e-05  1.51e-04  5.85e-03  4.51e-04    28.5
    8    -1266.8573089806200187     1.65e-06  4.58e-05  1.46e-03  4.97e-04    19.4
    9    -1266.8573334575407898    -2.45e-05  3.60e-05  1.29e-03  1.54e-04    18.6
   10    -1266.8573330089197952     4.49e-07  8.46e-06  2.80e-04  1.64e-04    17.6
   11    -1266.8573346376156223    -1.63e-06  1.11e-05  4.37e-04  2.33e-05    17.3
   12    -1266.8573346194339138     1.82e-08  4.35e-06  1.34e-04  3.58e-05    16.7
   13    -1266.8573346911671251    -7.17e-08  6.13e-06  2.15e-04  1.77e-05    16.1
   14    -1266.8573346972643776    -6.10e-09  4.56e-06  2.22e-04  9.67e-06    16.4
                 **** Energy Check signals convergence ****

               *****************************************************
               *                     SUCCESS                       *
               *           SCF CONVERGED AFTER  14 CYCLES          *
               *****************************************************

             **** ENERGY FILE WAS UPDATED (tddft.en.tmp) ****

----------------
TOTAL SCF ENERGY
----------------

Total Energy       :      -1266.85733470235709 Eh          -34472.94065 eV

Components:
Nuclear Repulsion  :       2395.27686476869621 Eh           65178.79712 eV
Electronic Energy  :      -3662.11172573667363 Eh          -99651.12622 eV
One Electron Energy:      -6493.99284765092125 Eh         -176710.52917 eV
Two Electron Energy:       2831.88112191424761 Eh           77059.40295 eV
CPCM Dielectric    :         -0.02247373437973 Eh              -0.61154 eV

Virial components:
Potential Energy   :      -2528.70457861578961 Eh          -68809.54979 eV
Kinetic Energy     :       1261.84724391343275 Eh           34336.60915 eV
Virial Ratio       :          2.00397044159908

DFT components:
N(Alpha)           :       91.999997549066 electrons
N(Beta)            :       91.999997549066 electrons
N(Total)           :      183.999995098132 electrons
E(X)               :     -161.803572023170 Eh       
E(C)               :       -6.274106196402 Eh       
E(XC)              :     -168.077678219572 Eh       

CPCM Solvation Model Properties:
Surface-charge          :         -0.03711648194444
Corrected charge        :          0.00000000000000
Outlying charge corr.   :          0.00006464426660 Eh               0.00176 eV
Free-energy (cav+disp)  :  This term is not implemented in the current solvation scheme

---------------
SCF CONVERGENCE
---------------

  Last Energy change         ...    6.0973e-09  Tolerance :   1.0000e-08
  Last MAX-Density change    ...    2.2208e-04  Tolerance :   1.0000e-07
  Last RMS-Density change    ...    4.5569e-06  Tolerance :   5.0000e-09
  Last DIIS Error            ...    1.4873e-03  Tolerance :   5.0000e-07
  Last Orbital Gradient      ...    9.6735e-06  Tolerance :   1.0000e-05
  Last Orbital Rotation      ...    4.1166e-05  Tolerance :   1.0000e-05


----------------
ORBITAL ENERGIES
----------------

  NO   OCC          E(Eh)            E(eV) 
   0   2.0000     -46.363721     -1261.6210 
   1   2.0000     -18.916408      -514.7416 
   2   2.0000     -14.100609      -383.6971 
   3   2.0000     -14.078497      -383.0954 
   4   2.0000     -14.078319      -383.0905 
   5   2.0000     -14.078279      -383.0894 
   6   2.0000     -10.020658      -272.6760 
   7   2.0000     -10.020630      -272.6752 
   8   2.0000     -10.012545      -272.4552 
   9   2.0000     -10.012529      -272.4548 
  10   2.0000     -10.007874      -272.3281 
  11   2.0000     -10.007831      -272.3269 
  12   2.0000     -10.007183      -272.3093 
  13   2.0000     -10.007168      -272.3089 
  14   2.0000      -9.988557      -271.8024 
  15   2.0000      -9.988520      -271.8015 
  16   2.0000      -9.987693      -271.7790 
  17   2.0000      -9.987558      -271.7753 
  18   2.0000      -9.979782      -271.5637 
  19   2.0000      -9.979769      -271.5633 
  20   2.0000      -9.978066      -271.5170 
  21   2.0000      -9.978012      -271.5155 
  22   2.0000      -9.977458      -271.5004 
  23   2.0000      -9.977449      -271.5002 
  24   2.0000      -9.976645      -271.4783 
  25   2.0000      -9.976143      -271.4646 
  26   2.0000      -2.897311       -78.8398 
  27   2.0000      -1.660731       -45.1908 
  28   2.0000      -1.656656       -45.0799 
  29   2.0000      -1.656229       -45.0683 
  30   2.0000      -0.977426       -26.5971 
  31   2.0000      -0.891088       -24.2477 
  32   2.0000      -0.883506       -24.0414 
  33   2.0000      -0.881372       -23.9834 
  34   2.0000      -0.873390       -23.7662 
  35   2.0000      -0.749428       -20.3930 
  36   2.0000      -0.725647       -19.7459 
  37   2.0000      -0.722361       -19.6565 
  38   2.0000      -0.710699       -19.3391 
  39   2.0000      -0.702371       -19.1125 
  40   2.0000      -0.700099       -19.0507 
  41   2.0000      -0.696149       -18.9432 
  42   2.0000      -0.675407       -18.3788 
  43   2.0000      -0.655782       -17.8447 
  44   2.0000      -0.600270       -16.3342 
  45   2.0000      -0.595064       -16.1925 
  46   2.0000      -0.556250       -15.1363 
  47   2.0000      -0.527431       -14.3521 
  48   2.0000      -0.517792       -14.0898 
  49   2.0000      -0.516015       -14.0415 
  50   2.0000      -0.515901       -14.0384 
  51   2.0000      -0.514824       -14.0091 
  52   2.0000      -0.499301       -13.5867 
  53   2.0000      -0.482314       -13.1244 
  54   2.0000      -0.469313       -12.7707 
  55   2.0000      -0.463719       -12.6184 
  56   2.0000      -0.451600       -12.2887 
  57   2.0000      -0.448660       -12.2086 
  58   2.0000      -0.440391       -11.9836 
  59   2.0000      -0.430271       -11.7083 
  60   2.0000      -0.397249       -10.8097 
  61   2.0000      -0.393036       -10.6951 
  62   2.0000      -0.388270       -10.5654 
  63   2.0000      -0.377475       -10.2716 
  64   2.0000      -0.373369       -10.1599 
  65   2.0000      -0.370866       -10.0918 
  66   2.0000      -0.370170       -10.0728 
  67   2.0000      -0.361262        -9.8304 
  68   2.0000      -0.359543        -9.7837 
  69   2.0000      -0.358927        -9.7669 
  70   2.0000      -0.342704        -9.3254 
  71   2.0000      -0.340113        -9.2549 
  72   2.0000      -0.337858        -9.1936 
  73   2.0000      -0.329128        -8.9560 
  74   2.0000      -0.328714        -8.9448 
  75   2.0000      -0.324888        -8.8407 
  76   2.0000      -0.322005        -8.7622 
  77   2.0000      -0.316409        -8.6099 
  78   2.0000      -0.314804        -8.5663 
  79   2.0000      -0.311883        -8.4868 
  80   2.0000      -0.296408        -8.0657 
  81   2.0000      -0.282583        -7.6895 
  82   2.0000      -0.265502        -7.2247 
  83   2.0000      -0.262982        -7.1561 
  84   2.0000      -0.248273        -6.7559 
  85   2.0000      -0.239787        -6.5249 
  86   2.0000      -0.238151        -6.4804 
  87   2.0000      -0.223714        -6.0876 
  88   2.0000      -0.215121        -5.8538 
  89   2.0000      -0.213492        -5.8094 
  90   2.0000      -0.173652        -4.7253 
  91   2.0000      -0.168019        -4.5720 
  92   0.0000      -0.100740        -2.7413 
  93   0.0000      -0.081892        -2.2284 
  94   0.0000      -0.023554        -0.6409 
  95   0.0000      -0.005904        -0.1607 
  96   0.0000       0.002322         0.0632 
  97   0.0000       0.025283         0.6880 
  98   0.0000       0.029429         0.8008 
  99   0.0000       0.038156         1.0383 
 100   0.0000       0.039318         1.0699 
 101   0.0000       0.050363         1.3704 
 102   0.0000       0.055147         1.5006 
*Only the first 10 virtual orbitals were printed.

                    ********************************
                    * MULLIKEN POPULATION ANALYSIS *
                    ********************************

-----------------------
MULLIKEN ATOMIC CHARGES
-----------------------
   0 N :   -0.312278
   1 N :   -0.363481
   2 N :   -0.365259
   3 N :   -0.349550
   4 C :   -0.113982
   5 C :   -0.116005
   6 C :    0.210983
   7 C :    0.210192
   8 C :   -0.484238
   9 C :   -0.487303
  10 C :    0.351526
  11 C :    0.354626
  12 C :    0.359200
  13 C :    0.359775
  14 C :   -0.236347
  15 C :   -0.235781
  16 C :   -0.234644
  17 C :   -0.235721
  18 C :   -0.489019
  19 C :   -0.488489
  20 C :    0.356387
  21 C :    0.357353
  22 C :   -0.238586
  23 C :   -0.239241
  24 H :    0.103921
  25 H :    0.114873
  26 H :    0.102549
  27 H :    0.115512
  28 H :    0.119821
  29 H :    0.119913
  30 H :    0.122727
  31 H :    0.122658
  32 H :    0.124108
  33 H :    0.123869
  34 H :    0.126258
  35 H :    0.126037
  36 H :    0.122823
  37 H :    0.122761
  38 Mg:    0.623904
  39 O :   -0.617976
  40 H :    0.377910
  41 H :    0.378216
Sum of atomic charges:   -0.0000000

--------------------------------
MULLIKEN REDUCED ORBITAL CHARGES
--------------------------------
  0 N s       :     3.664969  s :     3.664969
      pz      :     1.248459  p :     3.583945
      px      :     1.198224
      py      :     1.137262
      dz2     :     0.004057  d :     0.059661
      dxz     :     0.009456
      dyz     :     0.011252
      dx2y2   :     0.017802
      dxy     :     0.017093
      f0      :     0.000645  f :     0.003704
      f+1     :     0.000291
      f-1     :     0.000321
      f+2     :     0.000541
      f-2     :     0.000127
      f+3     :     0.001000
      f-3     :     0.000779

  1 N s       :     3.666157  s :     3.666157
      pz      :     1.341744  p :     3.635850
      px      :     1.124009
      py      :     1.170097
      dz2     :     0.004170  d :     0.057745
      dxz     :     0.010374
      dyz     :     0.009290
      dx2y2   :     0.017392
      dxy     :     0.016520
      f0      :     0.000653  f :     0.003728
      f+1     :     0.000369
      f-1     :     0.000333
      f+2     :     0.000609
      f-2     :     0.000106
      f+3     :     0.000760
      f-3     :     0.000898

  2 N s       :     3.665177  s :     3.665177
      pz      :     1.341121  p :     3.638596
      px      :     1.121241
      py      :     1.176234
      dz2     :     0.004198  d :     0.057758
      dxz     :     0.010933
      dyz     :     0.008753
      dx2y2   :     0.017078
      dxy     :     0.016796
      f0      :     0.000649  f :     0.003728
      f+1     :     0.000352
      f-1     :     0.000352
      f+2     :     0.000606
      f-2     :     0.000113
      f+3     :     0.000713
      f-3     :     0.000943

  3 N s       :     3.669497  s :     3.669497
      pz      :     1.323948  p :     3.617353
      px      :     1.170464
      py      :     1.122941
      dz2     :     0.004223  d :     0.058942
      dxz     :     0.009404
      dyz     :     0.011087
      dx2y2   :     0.017408
      dxy     :     0.016820
      f0      :     0.000649  f :     0.003758
      f+1     :     0.000334
      f-1     :     0.000359
      f+2     :     0.000638
      f-2     :     0.000110
      f+3     :     0.000927
      f-3     :     0.000741

  4 C s       :     3.066691  s :     3.066691
      pz      :     1.038237  p :     2.951707
      px      :     0.900380
      py      :     1.013089
      dz2     :     0.006393  d :     0.088752
      dxz     :     0.017460
      dyz     :     0.021121
      dx2y2   :     0.025762
      dxy     :     0.018016
      f0      :     0.000768  f :     0.006832
      f+1     :     0.000348
      f-1     :     0.001258
      f+2     :     0.000695
      f-2     :     0.000904
      f+3     :     0.001428
      f-3     :     0.001432

  5 C s       :     3.067360  s :     3.067360
      pz      :     1.037575  p :     2.953124
      px      :     1.010597
      py      :     0.904953
      dz2     :     0.005680  d :     0.088691
      dxz     :     0.021767
      dyz     :     0.017706
      dx2y2   :     0.025660
      dxy     :     0.017878
      f0      :     0.000673  f :     0.006830
      f+1     :     0.001389
      f-1     :     0.000326
      f+2     :     0.000664
      f-2     :     0.000922
      f+3     :     0.001175
      f-3     :     0.001681

  6 C s       :     3.135768  s :     3.135768
      pz      :     0.894925  p :     2.473457
      px      :     0.863341
      py      :     0.715190
      dz2     :     0.004002  d :     0.165536
      dxz     :     0.027591
      dyz     :     0.036122
      dx2y2   :     0.044026
      dxy     :     0.053796
      f0      :     0.001846  f :     0.014257
      f+1     :     0.000721
      f-1     :     0.001062
      f+2     :     0.001708
      f-2     :     0.001185
      f+3     :     0.005335
      f-3     :     0.002399

  7 C s       :     3.132512  s :     3.132512
      pz      :     0.895281  p :     2.477551
      px      :     0.746056
      py      :     0.836214
      dz2     :     0.003555  d :     0.165488
      dxz     :     0.032156
      dyz     :     0.031778
      dx2y2   :     0.045972
      dxy     :     0.052027
      f0      :     0.001862  f :     0.014256
      f+1     :     0.001049
      f-1     :     0.000704
      f+2     :     0.001464
      f-2     :     0.001431
      f+3     :     0.003679
      f-3     :     0.004067

  8 C s       :     3.438311  s :     3.438311
      pz      :     1.080855  p :     2.959115
      px      :     0.926886
      py      :     0.951374
      dz2     :     0.002235  d :     0.079035
      dxz     :     0.024673
      dyz     :     0.003784
      dx2y2   :     0.038148
      dxy     :     0.010196
      f0      :     0.001372  f :     0.007776
      f+1     :     0.000633
      f-1     :     0.000791
      f+2     :     0.000513
      f-2     :     0.000862
      f+3     :     0.002243
      f-3     :     0.001362

  9 C s       :     3.442235  s :     3.442235
      pz      :     1.080744  p :     2.958315
      px      :     0.945808
      py      :     0.931763
      dz2     :     0.002210  d :     0.078977
      dxz     :     0.003766
      dyz     :     0.024692
      dx2y2   :     0.038329
      dxy     :     0.009980
      f0      :     0.001372  f :     0.007776
      f+1     :     0.000799
      f-1     :     0.000627
      f+2     :     0.000535
      f-2     :     0.000835
      f+3     :     0.001467
      f-3     :     0.002140

 10 C s       :     3.081200  s :     3.081200
      pz      :     0.905523  p :     2.382134
      px      :     0.755289
      py      :     0.721321
      dz2     :     0.004288  d :     0.170337
      dxz     :     0.033258
      dyz     :     0.035872
      dx2y2   :     0.044277
      dxy     :     0.052641
      f0      :     0.002022  f :     0.014804
      f+1     :     0.000821
      f-1     :     0.001063
      f+2     :     0.001938
      f-2     :     0.001187
      f+3     :     0.004384
      f-3     :     0.003389

 11 C s       :     3.080526  s :     3.080526
      pz      :     0.905437  p :     2.379834
      px      :     0.710962
      py      :     0.763435
      dz2     :     0.004344  d :     0.170223
      dxz     :     0.038047
      dyz     :     0.030997
      dx2y2   :     0.041010
      dxy     :     0.055825
      f0      :     0.002014  f :     0.014791
      f+1     :     0.001101
      f-1     :     0.000790
      f+2     :     0.002402
      f-2     :     0.000722
      f+3     :     0.002375
      f-3     :     0.005387

 12 C s       :     3.066621  s :     3.066621
      pz      :     0.941786  p :     2.392326
      px      :     0.695386
      py      :     0.755154
      dz2     :     0.005108  d :     0.167274
      dxz     :     0.036719
      dyz     :     0.029251
      dx2y2   :     0.041571
      dxy     :     0.054624
      f0      :     0.002039  f :     0.014580
      f+1     :     0.001101
      f-1     :     0.000761
      f+2     :     0.002331
      f-2     :     0.000660
      f+3     :     0.002365
      f-3     :     0.005323

 13 C s       :     3.065744  s :     3.065744
      pz      :     0.940780  p :     2.392907
      px      :     0.743097
      py      :     0.709030
      dz2     :     0.005253  d :     0.167000
      dxz     :     0.031113
      dyz     :     0.034611
      dx2y2   :     0.044211
      dxy     :     0.051813
      f0      :     0.002026  f :     0.014573
      f+1     :     0.000798
      f-1     :     0.001079
      f+2     :     0.001831
      f-2     :     0.001166
      f+3     :     0.004338
      f-3     :     0.003335

 14 C s       :     3.311188  s :     3.311188
      pz      :     1.019622  p :     2.828712
      px      :     0.921300
      py      :     0.887789
      dz2     :     0.005058  d :     0.088398
      dxz     :     0.020496
      dyz     :     0.007717
      dx2y2   :     0.037098
      dxy     :     0.018029
      f0      :     0.001377  f :     0.008049
      f+1     :     0.000452
      f-1     :     0.000939
      f+2     :     0.000105
      f-2     :     0.001348
      f+3     :     0.002341
      f-3     :     0.001488

 15 C s       :     3.310988  s :     3.310988
      pz      :     1.019387  p :     2.828354
      px      :     0.894050
      py      :     0.914917
      dz2     :     0.005122  d :     0.088389
      dxz     :     0.009060
      dyz     :     0.019120
      dx2y2   :     0.035223
      dxy     :     0.019864
      f0      :     0.001369  f :     0.008049
      f+1     :     0.000887
      f-1     :     0.000511
      f+2     :     0.000429
      f-2     :     0.001029
      f+3     :     0.002044
      f-3     :     0.001779

 16 C s       :     3.318117  s :     3.318117
      pz      :     0.998990  p :     2.819208
      px      :     0.900836
      py      :     0.919381
      dz2     :     0.004928  d :     0.089246
      dxz     :     0.009257
      dyz     :     0.021084
      dx2y2   :     0.034157
      dxy     :     0.019821
      f0      :     0.001359  f :     0.008073
      f+1     :     0.000875
      f-1     :     0.000496
      f+2     :     0.000490
      f-2     :     0.001022
      f+3     :     0.002062
      f-3     :     0.001770

 17 C s       :     3.318954  s :     3.318954
      pz      :     0.999000  p :     2.819418
      px      :     0.925133
      py      :     0.895285
      dz2     :     0.004930  d :     0.089276
      dxz     :     0.022681
      dyz     :     0.007726
      dx2y2   :     0.036052
      dxy     :     0.017886
      f0      :     0.001357  f :     0.008074
      f+1     :     0.000449
      f-1     :     0.000920
      f+2     :     0.000136
      f-2     :     0.001388
      f+3     :     0.002339
      f-3     :     0.001484

 18 C s       :     3.478307  s :     3.478307
      pz      :     1.005125  p :     2.916331
      px      :     0.968571
      py      :     0.942634
      dz2     :     0.002470  d :     0.086748
      dxz     :     0.003574
      dyz     :     0.029610
      dx2y2   :     0.040269
      dxy     :     0.010825
      f0      :     0.001279  f :     0.007634
      f+1     :     0.000750
      f-1     :     0.000592
      f+2     :     0.000512
      f-2     :     0.000862
      f+3     :     0.001417
      f-3     :     0.002220

 19 C s       :     3.479364  s :     3.479364
      pz      :     1.005444  p :     2.914726
      px      :     0.942154
      py      :     0.967128
      dz2     :     0.002428  d :     0.086765
      dxz     :     0.029587
      dyz     :     0.003660
      dx2y2   :     0.039892
      dxy     :     0.011199
      f0      :     0.001283  f :     0.007634
      f+1     :     0.000585
      f-1     :     0.000749
      f+2     :     0.000531
      f-2     :     0.000849
      f+3     :     0.002216
      f-3     :     0.001421

 20 C s       :     3.064969  s :     3.064969
      pz      :     0.940142  p :     2.396114
      px      :     0.715625
      py      :     0.740347
      dz2     :     0.004910  d :     0.167763
      dxz     :     0.035112
      dyz     :     0.030639
      dx2y2   :     0.044358
      dxy     :     0.052744
      f0      :     0.002055  f :     0.014767
      f+1     :     0.001063
      f-1     :     0.000835
      f+2     :     0.001845
      f-2     :     0.001181
      f+3     :     0.003414
      f-3     :     0.004374

 21 C s       :     3.064330  s :     3.064330
      pz      :     0.939599  p :     2.395881
      px      :     0.752970
      py      :     0.703311
      dz2     :     0.004884  d :     0.167671
      dxz     :     0.029391
      dyz     :     0.036290
      dx2y2   :     0.040880
      dxy     :     0.056225
      f0      :     0.002053  f :     0.014766
      f+1     :     0.000783
      f-1     :     0.001119
      f+2     :     0.002354
      f-2     :     0.000676
      f+3     :     0.005405
      f-3     :     0.002375

 22 C s       :     3.313794  s :     3.313794
      pz      :     1.014428  p :     2.827950
      px      :     0.889713
      py      :     0.923809
      dz2     :     0.005064  d :     0.088738
      dxz     :     0.007642
      dyz     :     0.021923
      dx2y2   :     0.036393
      dxy     :     0.017716
      f0      :     0.001366  f :     0.008104
      f+1     :     0.000943
      f-1     :     0.000459
      f+2     :     0.000114
      f-2     :     0.001406
      f+3     :     0.001481
      f-3     :     0.002334

 23 C s       :     3.314507  s :     3.314507
      pz      :     1.014309  p :     2.827868
      px      :     0.917398
      py      :     0.896161
      dz2     :     0.004998  d :     0.088763
      dxz     :     0.020525
      dyz     :     0.009136
      dx2y2   :     0.034316
      dxy     :     0.019788
      f0      :     0.001371  f :     0.008104
      f+1     :     0.000503
      f-1     :     0.000891
      f+2     :     0.000470
      f-2     :     0.001055
      f+3     :     0.001785
      f-3     :     0.002028

 24 H s       :     0.875675  s :     0.875675
      pz      :     0.009522  p :     0.020403
      px      :     0.004558
      py      :     0.006324

 25 H s       :     0.864929  s :     0.864929
      pz      :     0.007360  p :     0.020198
      px      :     0.004605
      py      :     0.008233

 26 H s       :     0.877070  s :     0.877070
      pz      :     0.009126  p :     0.020381
      px      :     0.006806
      py      :     0.004449

 27 H s       :     0.864275  s :     0.864275
      pz      :     0.007747  p :     0.020213
      px      :     0.007994
      py      :     0.004473

 28 H s       :     0.859661  s :     0.859661
      pz      :     0.005579  p :     0.020518
      px      :     0.003587
      py      :     0.011352

 29 H s       :     0.859568  s :     0.859568
      pz      :     0.005574  p :     0.020519
      px      :     0.011321
      py      :     0.003625

 30 H s       :     0.857277  s :     0.857277
      pz      :     0.004929  p :     0.019996
      px      :     0.003666
      py      :     0.011401

 31 H s       :     0.857345  s :     0.857345
      pz      :     0.004931  p :     0.019997
      px      :     0.010986
      py      :     0.004080

 32 H s       :     0.855950  s :     0.855950
      pz      :     0.004802  p :     0.019941
      px      :     0.011021
      py      :     0.004119

 33 H s       :     0.856188  s :     0.856188
      pz      :     0.004819  p :     0.019944
      px      :     0.003692
      py      :     0.011432

 34 H s       :     0.853457  s :     0.853457
      pz      :     0.005127  p :     0.020285
      px      :     0.011522
      py      :     0.003637

 35 H s       :     0.853678  s :     0.853678
      pz      :     0.005138  p :     0.020285
      px      :     0.003622
      py      :     0.011525

 36 H s       :     0.857203  s :     0.857203
      pz      :     0.004903  p :     0.019974
      px      :     0.011390
      py      :     0.003681

 37 H s       :     0.857265  s :     0.857265
      pz      :     0.004913  p :     0.019974
      px      :     0.004097
      py      :     0.010963

 38 Mgs       :     4.520473  s :     4.520473
      pz      :     2.147379  p :     6.553570
      px      :     2.204617
      py      :     2.201575
      dz2     :     0.042341  d :     0.302052
      dxz     :     0.037058
      dyz     :     0.034787
      dx2y2   :     0.033590
      dxy     :     0.154275

 39 O s       :     3.780055  s :     3.780055
      pz      :     1.744696  p :     4.819201
      px      :     1.595260
      py      :     1.479244
      dz2     :     0.001346  d :     0.017366
      dxz     :     0.003361
      dyz     :     0.004136
      dx2y2   :     0.007042
      dxy     :     0.001481
      f0      :     0.000261  f :     0.001354
      f+1     :     0.000045
      f-1     :     0.000048
      f+2     :     0.000365
      f-2     :     0.000142
      f+3     :     0.000074
      f-3     :     0.000419

 40 H s       :     0.578250  s :     0.578250
      pz      :     0.014367  p :     0.043839
      px      :     0.011761
      py      :     0.017711

 41 H s       :     0.577935  s :     0.577935
      pz      :     0.013969  p :     0.043849
      px      :     0.017599
      py      :     0.012281



                     *******************************
                     * LOEWDIN POPULATION ANALYSIS *
                     *******************************

----------------------
LOEWDIN ATOMIC CHARGES
----------------------
   0 N :    0.206679
   1 N :    0.178551
   2 N :    0.178057
   3 N :    0.187691
   4 C :   -0.188895
   5 C :   -0.188878
   6 C :   -0.197635
   7 C :   -0.197662
   8 C :   -0.127205
   9 C :   -0.127314
  10 C :   -0.212003
  11 C :   -0.212169
  12 C :   -0.213583
  13 C :   -0.213871
  14 C :   -0.127958
  15 C :   -0.128119
  16 C :   -0.120429
  17 C :   -0.120673
  18 C :   -0.084627
  19 C :   -0.084668
  20 C :   -0.217223
  21 C :   -0.217250
  22 C :   -0.128136
  23 C :   -0.128070
  24 H :    0.147694
  25 H :    0.144478
  26 H :    0.146909
  27 H :    0.144979
  28 H :    0.160093
  29 H :    0.160074
  30 H :    0.140655
  31 H :    0.140643
  32 H :    0.142132
  33 H :    0.142079
  34 H :    0.162762
  35 H :    0.162743
  36 H :    0.140758
  37 H :    0.140779
  38 Mg:    0.111695
  39 O :   -0.106796
  40 H :    0.201731
  41 H :    0.201985

-------------------------------
LOEWDIN REDUCED ORBITAL CHARGES
-------------------------------
  0 N s       :     2.986056  s :     2.986056
      pz      :     1.113693  p :     3.577796
      px      :     1.255562
      py      :     1.208541
      dz2     :     0.016367  d :     0.210777
      dxz     :     0.024347
      dyz     :     0.031575
      dx2y2   :     0.074214
      dxy     :     0.064274
      f0      :     0.001183  f :     0.018692
      f+1     :     0.001183
      f-1     :     0.001401
      f+2     :     0.003226
      f-2     :     0.000444
      f+3     :     0.006588
      f-3     :     0.004666

  1 N s       :     2.982364  s :     2.982364
      pz      :     1.190675  p :     3.617968
      px      :     1.183739
      py      :     1.243553
      dz2     :     0.016249  d :     0.202406
      dxz     :     0.030534
      dyz     :     0.024570
      dx2y2   :     0.070064
      dxy     :     0.060990
      f0      :     0.001180  f :     0.018711
      f+1     :     0.001360
      f-1     :     0.001238
      f+2     :     0.003588
      f-2     :     0.000329
      f+3     :     0.004823
      f-3     :     0.006192

  2 N s       :     2.982548  s :     2.982548
      pz      :     1.191081  p :     3.618300
      px      :     1.198109
      py      :     1.229110
      dz2     :     0.016274  d :     0.202391
      dxz     :     0.031059
      dyz     :     0.024186
      dx2y2   :     0.068986
      dxy     :     0.061886
      f0      :     0.001177  f :     0.018704
      f+1     :     0.001425
      f-1     :     0.001176
      f+2     :     0.003557
      f-2     :     0.000378
      f+3     :     0.004559
      f-3     :     0.006432

  3 N s       :     2.982030  s :     2.982030
      pz      :     1.176154  p :     3.606226
      px      :     1.237803
      py      :     1.192268
      dz2     :     0.016339  d :     0.205065
      dxz     :     0.025314
      dyz     :     0.032135
      dx2y2   :     0.069669
      dxy     :     0.061608
      f0      :     0.001177  f :     0.018988
      f+1     :     0.001200
      f-1     :     0.001395
      f+2     :     0.003755
      f-2     :     0.000351
      f+3     :     0.006382
      f-3     :     0.004728

  4 C s       :     2.769344  s :     2.769344
      pz      :     1.030142  p :     3.011587
      px      :     0.982673
      py      :     0.998771
      dz2     :     0.044752  d :     0.366892
      dxz     :     0.049569
      dyz     :     0.093668
      dx2y2   :     0.092889
      dxy     :     0.086014
      f0      :     0.004228  f :     0.041072
      f+1     :     0.003379
      f-1     :     0.004247
      f+2     :     0.004786
      f-2     :     0.005460
      f+3     :     0.009193
      f-3     :     0.009780

  5 C s       :     2.769458  s :     2.769458
      pz      :     1.030264  p :     3.011585
      px      :     0.997292
      py      :     0.984029
      dz2     :     0.041429  d :     0.366783
      dxz     :     0.097987
      dyz     :     0.049355
      dx2y2   :     0.087062
      dxy     :     0.090951
      f0      :     0.003932  f :     0.041053
      f+1     :     0.004647
      f-1     :     0.003453
      f+2     :     0.004571
      f-2     :     0.005334
      f+3     :     0.007664
      f-3     :     0.011452

  6 C s       :     2.717014  s :     2.717014
      pz      :     0.824247  p :     2.771220
      px      :     1.007490
      py      :     0.939483
      dz2     :     0.043179  d :     0.632395
      dxz     :     0.083615
      dyz     :     0.108322
      dx2y2   :     0.194441
      dxy     :     0.202838
      f0      :     0.004990  f :     0.077006
      f+1     :     0.004194
      f-1     :     0.006404
      f+2     :     0.011004
      f-2     :     0.006534
      f+3     :     0.030335
      f-3     :     0.013546

  7 C s       :     2.716998  s :     2.716998
      pz      :     0.824041  p :     2.771588
      px      :     0.933459
      py      :     1.014088
      dz2     :     0.042391  d :     0.632119
      dxz     :     0.096888
      dyz     :     0.094961
      dx2y2   :     0.193263
      dxy     :     0.204615
      f0      :     0.004997  f :     0.076956
      f+1     :     0.006029
      f-1     :     0.004453
      f+2     :     0.009965
      f-2     :     0.007553
      f+3     :     0.020956
      f-3     :     0.023002

  8 C s       :     2.751854  s :     2.751854
      pz      :     0.954435  p :     2.966046
      px      :     1.025307
      py      :     0.986304
      dz2     :     0.024934  d :     0.369014
      dxz     :     0.077183
      dyz     :     0.011890
      dx2y2   :     0.157439
      dxy     :     0.097568
      f0      :     0.003200  f :     0.040291
      f+1     :     0.004703
      f-1     :     0.003103
      f+2     :     0.002180
      f-2     :     0.005866
      f+3     :     0.012192
      f-3     :     0.009046

  9 C s       :     2.751856  s :     2.751856
      pz      :     0.954503  p :     2.966123
      px      :     0.983645
      py      :     1.027975
      dz2     :     0.024911  d :     0.369055
      dxz     :     0.011957
      dyz     :     0.077056
      dx2y2   :     0.154554
      dxy     :     0.100577
      f0      :     0.003190  f :     0.040281
      f+1     :     0.003097
      f-1     :     0.004725
      f+2     :     0.002274
      f-2     :     0.005756
      f+3     :     0.009149
      f-3     :     0.012090

 10 C s       :     2.701993  s :     2.701993
      pz      :     0.834069  p :     2.777761
      px      :     1.002562
      py      :     0.941130
      dz2     :     0.043741  d :     0.651585
      dxz     :     0.091594
      dyz     :     0.115476
      dx2y2   :     0.197980
      dxy     :     0.202794
      f0      :     0.004731  f :     0.080664
      f+1     :     0.004642
      f-1     :     0.006082
      f+2     :     0.012398
      f-2     :     0.007837
      f+3     :     0.025847
      f-3     :     0.019127

 11 C s       :     2.702018  s :     2.702018
      pz      :     0.834548  p :     2.778065
      px      :     0.940457
      py      :     1.003059
      dz2     :     0.043864  d :     0.651447
      dxz     :     0.120616
      dyz     :     0.086475
      dx2y2   :     0.193017
      dxy     :     0.207475
      f0      :     0.004737  f :     0.080640
      f+1     :     0.006351
      f-1     :     0.004388
      f+2     :     0.014892
      f-2     :     0.005345
      f+3     :     0.013691
      f-3     :     0.031234

 12 C s       :     2.699935  s :     2.699935
      pz      :     0.862257  p :     2.797147
      px      :     0.924961
      py      :     1.009929
      dz2     :     0.043655  d :     0.637654
      dxz     :     0.115514
      dyz     :     0.081044
      dx2y2   :     0.197101
      dxy     :     0.200340
      f0      :     0.004752  f :     0.078847
      f+1     :     0.006274
      f-1     :     0.004531
      f+2     :     0.014072
      f-2     :     0.004829
      f+3     :     0.013883
      f-3     :     0.030506

 13 C s       :     2.699969  s :     2.699969
      pz      :     0.862538  p :     2.797411
      px      :     1.010421
      py      :     0.924451
      dz2     :     0.044033  d :     0.637648
      dxz     :     0.085166
      dyz     :     0.111410
      dx2y2   :     0.198184
      dxy     :     0.198856
      f0      :     0.004762  f :     0.078843
      f+1     :     0.004839
      f-1     :     0.005990
      f+2     :     0.011343
      f-2     :     0.007598
      f+3     :     0.025481
      f-3     :     0.018830

 14 C s       :     2.767643  s :     2.767643
      pz      :     0.919298  p :     2.939249
      px      :     1.024984
      py      :     0.994967
      dz2     :     0.027172  d :     0.374128
      dxz     :     0.069583
      dyz     :     0.018736
      dx2y2   :     0.153415
      dxy     :     0.105222
      f0      :     0.002991  f :     0.046937
      f+1     :     0.003723
      f-1     :     0.003922
      f+2     :     0.000553
      f-2     :     0.009257
[...]
  0-1A  -> 26-1A    5.163019   41642.6   240.1   0.007360310   0.05819   0.18284   0.15734   0.00151
  0-1A  -> 27-1A    5.204277   41975.3   238.2   0.000875679   0.00687  -0.05292   0.06305  -0.00956
  0-1A  -> 28-1A    5.294750   42705.0   234.2   0.075464947   0.58176  -0.48656   0.58721   0.01440
  0-1A  -> 29-1A    5.343069   43094.8   232.0   0.008107799   0.06194  -0.18650  -0.15885   0.04381
  0-1A  -> 30-1A    5.371069   43320.6   230.8   0.111800489   0.84962   0.68409   0.61772   0.00788

----------------------------------------------------------------------------------------------------
                     ABSORPTION SPECTRUM VIA TRANSITION VELOCITY DIPOLE MOMENTS    
----------------------------------------------------------------------------------------------------
     Transition      Energy     Energy  Wavelength fosc(P2)      P2        PX        PY        PZ   
                      (eV)      (cm-1)    (nm)                 (au**2)    (au)      (au)      (au)  
----------------------------------------------------------------------------------------------------
  0-1A  ->  1-1A    2.228694   17975.6   556.3   0.150616335   0.01850  -0.08590   0.10547   0.00059
  0-1A  ->  2-1A    2.290536   18474.4   541.3   0.016312497   0.00206  -0.03498  -0.02890  -0.00082
  0-1A  ->  3-1A    3.047292   24578.1   406.9   0.559277918   0.09395  -0.19360   0.23761   0.00221
  0-1A  ->  4-1A    3.133615   25274.3   395.7   0.757929392   0.13092  -0.27958  -0.22964  -0.00441
  0-1A  ->  5-1A    3.233987   26083.9   383.4   0.129046152   0.02301  -0.11946  -0.09346  -0.00030
  0-1A  ->  6-1A    3.262651   26315.1   380.0   0.164132862   0.02952   0.10925  -0.13259  -0.00178
  0-1A  ->  7-1A    3.512068   28326.7   353.0   0.232058322   0.04493   0.16514   0.13284   0.00299
  0-1A  ->  8-1A    3.732840   30107.4   332.1   0.005736051   0.00118  -0.02308   0.02544   0.00043
  0-1A  ->  9-1A    3.771518   30419.3   328.7   0.000409946   0.00009  -0.00571   0.00724  -0.00048
  0-1A  -> 10-1A    3.834514   30927.4   323.3   0.075333625   0.01592   0.09640   0.08127   0.00502
  0-1A  -> 11-1A    3.962129   31956.7   312.9   0.009879296   0.00216   0.02992  -0.03550  -0.00157
  0-1A  -> 12-1A    4.078737   32897.2   304.0   0.297743456   0.06694  -0.16817   0.19661   0.00294
  0-1A  -> 13-1A    4.087698   32969.5   303.3   0.088193488   0.01987  -0.10166  -0.09766  -0.00060
  0-1A  -> 14-1A    4.274852   34479.0   290.0   0.011060923   0.00261   0.02696  -0.04336  -0.00016
  0-1A  -> 15-1A    4.314634   34799.9   287.4   0.036736870   0.00874   0.09093  -0.02168   0.00026
  0-1A  -> 16-1A    4.318215   34828.8   287.1   0.093811800   0.02233  -0.07107   0.13145  -0.00033
  0-1A  -> 17-1A    4.398666   35477.6   281.9   0.000218142   0.00005   0.00703   0.00171  -0.00078
  0-1A  -> 18-1A    4.451058   35900.2   278.5   0.001287289   0.00032   0.00969   0.00450  -0.01420
  0-1A  -> 19-1A    4.496910   36270.0   275.7   0.000029769   0.00001   0.00086  -0.00240  -0.00094
  0-1A  -> 20-1A    4.545805   36664.4   272.7   0.000881167   0.00022   0.01471  -0.00199   0.00060
  0-1A  -> 21-1A    4.639871   37423.1   267.2   0.000107413   0.00003   0.00400   0.00297   0.00165
  0-1A  -> 22-1A    4.735277   38192.6   261.8   0.144610527   0.03775  -0.12244   0.15082   0.00264
  0-1A  -> 23-1A    4.934885   39802.5   251.2   0.002305440   0.00063  -0.01778   0.01755   0.00168
  0-1A  -> 24-1A    4.955244   39966.7   250.2   0.035001631   0.00956  -0.06090   0.07608   0.00798
  0-1A  -> 25-1A    5.026015   40537.6   246.7   0.000675382   0.00019   0.00051  -0.00072   0.01365
  0-1A  -> 26-1A    5.163019   41642.6   240.1   0.007621810   0.00217  -0.03535  -0.03031  -0.00094
  0-1A  -> 27-1A    5.204277   41975.3   238.2   0.000875522   0.00025   0.01008  -0.01211   0.00168
  0-1A  -> 28-1A    5.294750   42705.0   234.2   0.072442118   0.02114   0.09277  -0.11194  -0.00262
  0-1A  -> 29-1A    5.343069   43094.8   232.0   0.007902602   0.00233   0.03616   0.03079  -0.00849
  0-1A  -> 30-1A    5.371069   43320.6   230.8   0.109142513   0.03231  -0.13355  -0.12031  -0.00209

------------------------------------------------------------------------------------------
                     CD SPECTRUM VIA TRANSITION ELECTRIC DIPOLE MOMENTS    
------------------------------------------------------------------------------------------
     Transition      Energy     Energy  Wavelength    R        MX        MY        MZ   
                      (eV)      (cm-1)    (nm)   (1e40*cgs)   (au)      (au)      (au)  
------------------------------------------------------------------------------------------
  0-1A  ->  1-1A    2.228694   17975.6   556.3    1.23619   0.01656   0.01992  -0.75065
  0-1A  ->  2-1A    2.290536   18474.4   541.3   -0.46853  -0.00456   0.00826   0.00361
  0-1A  ->  3-1A    3.047292   24578.1   406.9   -3.30628   0.04546   0.03345   0.03779
  0-1A  ->  4-1A    3.133615   25274.3   395.7  -11.12193  -0.01726   0.03246   0.00371
  0-1A  ->  5-1A    3.233987   26083.9   383.4   -3.55629  -0.02293   0.03869  -0.00281
  0-1A  ->  6-1A    3.262651   26315.1   380.0    1.24424  -0.02489  -0.02951   0.49358
  0-1A  ->  7-1A    3.512068   28326.7   353.0   -5.83474   0.02653  -0.04465  -0.00279
  0-1A  ->  8-1A    3.732840   30107.4   332.1    0.26812   0.02313   0.03352  -0.57793
  0-1A  ->  9-1A    3.771518   30419.3   328.7    6.40485  -0.12595   0.15652   0.02365
  0-1A  -> 10-1A    3.834514   30927.4   323.3   -2.18211  -0.00475  -0.00200  -0.00365
  0-1A  -> 11-1A    3.962129   31956.7   312.9    0.95246  -0.01544  -0.00192  -0.44094
  0-1A  -> 12-1A    4.078737   32897.2   304.0    2.97505   0.01774   0.01713   0.18590
  0-1A  -> 13-1A    4.087698   32969.5   303.3   -1.85575  -0.01034   0.01675  -0.01012
  0-1A  -> 14-1A    4.274852   34479.0   290.0    2.92882  -0.12070  -0.09678  -0.04430
  0-1A  -> 15-1A    4.314634   34799.9   287.4   -2.55328  -0.01447  -0.02249  -0.00322
  0-1A  -> 16-1A    4.318215   34828.8   287.1   -0.23231  -0.00590  -0.00379  -0.01379
  0-1A  -> 17-1A    4.398666   35477.6   281.9   -0.19073  -0.01115  -0.00440  -0.03190
  0-1A  -> 18-1A    4.451058   35900.2   278.5   -0.19971   0.01982  -0.02289   0.01037
  0-1A  -> 19-1A    4.496910   36270.0   275.7    0.05406  -0.01664  -0.01582   0.00623
  0-1A  -> 20-1A    4.545805   36664.4   272.7   -1.85303  -0.03799   0.04761   0.00570
  0-1A  -> 21-1A    4.639871   37423.1   267.2    0.15389   0.00685   0.00756   0.00101
  0-1A  -> 22-1A    4.735277   38192.6   261.8    0.94666   0.02807   0.01834   0.38479
  0-1A  -> 23-1A    4.934885   39802.5   251.2    0.78484  -0.03067  -0.02757   0.14158
  0-1A  -> 24-1A    4.955244   39966.7   250.2   11.48163   0.01764   0.01139   0.56467
  0-1A  -> 25-1A    5.026015   40537.6   246.7   -0.25676  -0.02803   0.03197  -0.00435
  0-1A  -> 26-1A    5.163019   41642.6   240.1    0.04393  -0.00045  -0.00006  -0.00071
  0-1A  -> 27-1A    5.204277   41975.3   238.2   -0.33737  -0.00924  -0.01406  -0.11643
  0-1A  -> 28-1A    5.294750   42705.0   234.2   -2.56842  -0.01503  -0.01722   0.57264
  0-1A  -> 29-1A    5.343069   43094.8   232.0   -0.41102   0.05230  -0.06546   0.00521
  0-1A  -> 30-1A    5.371069   43320.6   230.8    3.10846  -0.01452   0.00481   0.04687

------------------------------------------------------------------------------------------
                     CD SPECTRUM VIA TRANSITION VELOCITY DIPOLE MOMENTS    
------------------------------------------------------------------------------------------
     Transition      Energy     Energy  Wavelength    R        MX        MY        MZ   
                      (eV)      (cm-1)    (nm)   (1e40*cgs)   (au)      (au)      (au)  
------------------------------------------------------------------------------------------
  0-1A  ->  1-1A    2.228694   17975.6   556.3    1.37475   0.01656   0.01992  -0.75065
  0-1A  ->  2-1A    2.290536   18474.4   541.3   -0.45998  -0.00456   0.00826   0.00361
  0-1A  ->  3-1A    3.047292   24578.1   406.9   -3.23790   0.04546   0.03345   0.03779
  0-1A  ->  4-1A    3.133615   25274.3   395.7  -10.82965  -0.01726   0.03246   0.00371
  0-1A  ->  5-1A    3.233987   26083.9   383.4   -3.47673  -0.02293   0.03869  -0.00281
  0-1A  ->  6-1A    3.262651   26315.1   380.0    1.23381  -0.02489  -0.02951   0.49358
  0-1A  ->  7-1A    3.512068   28326.7   353.0   -5.69305   0.02653  -0.04465  -0.00279
  0-1A  ->  8-1A    3.732840   30107.4   332.1    0.24842   0.02313   0.03352  -0.57793
  0-1A  ->  9-1A    3.771518   30419.3   328.7    6.26198  -0.12595   0.15652   0.02365
  0-1A  -> 10-1A    3.834514   30927.4   323.3   -2.13754  -0.00475  -0.00200  -0.00365
  0-1A  -> 11-1A    3.962129   31956.7   312.9    0.97266  -0.01544  -0.00192  -0.44094
  0-1A  -> 12-1A    4.078737   32897.2   304.0    2.92681   0.01774   0.01713   0.18590
  0-1A  -> 13-1A    4.087698   32969.5   303.3   -1.81509  -0.01034   0.01675  -0.01012
  0-1A  -> 14-1A    4.274852   34479.0   290.0    2.84945  -0.12070  -0.09678  -0.04430
  0-1A  -> 15-1A    4.314634   34799.9   287.4   -2.46396  -0.01447  -0.02249  -0.00322
  0-1A  -> 16-1A    4.318215   34828.8   287.1   -0.22168  -0.00590  -0.00379  -0.01379
  0-1A  -> 17-1A    4.398666   35477.6   281.9   -0.17747  -0.01115  -0.00440  -0.03190
  0-1A  -> 18-1A    4.451058   35900.2   278.5   -0.16818   0.01982  -0.02289   0.01037
  0-1A  -> 19-1A    4.496910   36270.0   275.7    0.05092  -0.01664  -0.01582   0.00623
  0-1A  -> 20-1A    4.545805   36664.4   272.7   -1.83474  -0.03799   0.04761   0.00570
  0-1A  -> 21-1A    4.639871   37423.1   267.2    0.14226   0.00685   0.00756   0.00101
  0-1A  -> 22-1A    4.735277   38192.6   261.8    0.93373   0.02807   0.01834   0.38479
  0-1A  -> 23-1A    4.934885   39802.5   251.2    0.77714  -0.03067  -0.02757   0.14158
  0-1A  -> 24-1A    4.955244   39966.7   250.2   11.13455   0.01764   0.01139   0.56467
  0-1A  -> 25-1A    5.026015   40537.6   246.7   -0.24666  -0.02803   0.03197  -0.00435
  0-1A  -> 26-1A    5.163019   41642.6   240.1    0.04589  -0.00045  -0.00006  -0.00071
  0-1A  -> 27-1A    5.204277   41975.3   238.2   -0.29294  -0.00924  -0.01406  -0.11643
  0-1A  -> 28-1A    5.294750   42705.0   234.2   -2.34552  -0.01503  -0.01722   0.57264
  0-1A  -> 29-1A    5.343069   43094.8   232.0   -0.40360   0.05230  -0.06546   0.00521
  0-1A  -> 30-1A    5.371069   43320.6   230.8    3.01557  -0.01452   0.00481   0.04687

Total run time:     3215.187 sec

           *** ORCA-CIS/TD-DFT FINISHED WITHOUT ERROR ***
-----------------------
CIS/TD-DFT TOTAL ENERGY
-----------------------

    E(SCF)  =  -1266.857334702 Eh
    DE(CIS) =      0.081902995 Eh (Root  1)
    ----------------------------- ---------
    E(tot)  =  -1266.775431708 Eh


Maximum memory used throughout the entire CIS-calculation: 1819.1 MB
=> NOW LEAVING ORCA_CIS

-------------------------   --------------------
FINAL SINGLE POINT ENERGY     -1266.775431707556
-------------------------   --------------------



           ************************************************************
           *        Program running with 4 parallel MPI-processes     *
           *              working on a common directory               *
           ************************************************************

------------------------------------------------------------------------------
                              ORCA PROPERTY CALCULATIONS
------------------------------------------------------------------------------

GBWName                                 ... tddft.gbw
Number of atoms                         ...     42
Number of basis functions               ...    903
Max core memory                         ...   3000 MB

Electric properties:
Dipole moment                           ... YES
Quadrupole moment                       ...  NO
Static polarizability (Dipole/Dipole)   ...  NO
Static polarizability (Dipole/Quad.)    ...  NO
Static polarizability (Quad./Quad.)     ...  NO
Static polarizability (Velocity)        ...  NO
Static hyperpolarizability              ...  NO

Atomic electric properties:
Dipole moment                           ...  NO
Quadrupole moment                       ...  NO
Static polarizability                   ...  NO

Choice of electric origin               ... Center of mass
Position of electric origin             ...     0.033518    -0.007318     0.254024

General magnetic properties:
Magnetizability                         ...  NO

EPR properties:
g-Tensor (aka g-matrix)                 ...  NO
Zero-Field splitting spin-orbit         ...  NO
Zero-field splitting spin-spin          ...  NO
Hyperfine couplings                     ...  NO (   0 nuclei)
Quadrupole couplings                    ...  NO (   0 nuclei)
Contact density                         ...  NO (   0 nuclei)

NMR properties:
Chemical shifts                         ...  NO (   0 nuclei)
Spin-rotation constants                 ...  NO (   0 nuclei)
Spin-spin couplings                     ...  NO (   0 nuclei,    0 pairs)

Choice of magnetic origin               ... GIAO
Position of magnetic origin             ...     0.000000     0.000000     0.000000

Properties with geometric perturbations:
SCF Hessian                             ...  NO
IR spectrum                             ...  NO
VCD spectrum                            ...  NO
X-ray spectroscopy properties:
SCF XES/XAS/RIXS spectra                ...  NO

SCF SOC stabilization energy            ...  NO
Diagonal Born-Oppenheimer correction    ...  NO

-------------
DIPOLE MOMENT
-------------

Method             : SCF
Type of density    : Electron Density
Multiplicity       :   1
Irrep              :   0
Energy             : -1266.8573347023570932 Eh
Basis              : AO
                                X                 Y                 Z
Electronic contribution:     -5.465115381      -4.379809200      -1.020370167
Nuclear contribution   :      7.058745785       5.609567489       2.374276317
                        -----------------------------------------
Total Dipole Moment    :      1.593630403       1.229758289       1.353906150
                        -----------------------------------------
Magnitude (a.u.)       :      2.425907083
Magnitude (Debye)      :      6.166165771



--------------------
Rotational spectrum 
--------------------
 
Rotational constants in cm-1:             0.008427             0.008118             0.004363 
Rotational constants in MHz :           252.622162           243.384689           130.800892 

Dipole components along the rotational axes: 
x,y,z [a.u.] :     2.026989     0.029649     1.332464 
x,y,z [Debye]:     5.152197     0.075362     3.386855 

 

Dipole moment calculation done in   0.1 sec 

Maximum memory used throughout the entire PROP-calculation: 97.6 MB

--------------------------------
SUGGESTED CITATIONS FOR THIS RUN
--------------------------------

Below you find a list of papers that are relevant to this ORCA run
We neither can nor want to force you to cite these papers, but we appreciate if you do
You receive ORCA, which is the product of decades of hard work by many enthusiastic individuals, for free
The only thing we kindly ask in return is that you cite our papers,
We deeply appreciate it, if you show your appreciation for ORCA by not just citing the generic ORCA reference.

Please note that relegating all ORCA citations to the supporting information does *not* help us.
SI sections are not indexed - citations you put there will not count into any citation statistics
But we need these citations in order to attract the funding resources that allow us to do what we are doing

Therefore, if you are a happy ORCA user, please consider citing a few of the papers listed below in the main body of your paper

In addition to the list printed below, the program has created the file tddft.bibtex that contains the list in bibtex format
You can import this file easily into all common literature databanks and citation aid programs

It goes without saying that in many instances, there are alternative algorithms to achieve similar
results as the ones you have gotten from ORCA. It is, of course, also the case that in some instances
ORCA just re-implements algorithms worked out by others. We are fully aware of that and we are also
fully appreciative of our colleagues work. Hence this citation list should not be read as indicating
that the listed papers, which are focused on our own work, are the only ones worth citing. It simply
meant to make it easier for users to cite ORCA specific papers. It is not a substitute for doing your
own literature research and citing the relevant literature in a scientifically appropriate manner.

List of essential papers. We consider these as the minimum necessary citations

  1. Neese, F.
     Software update: the ORCA program system, version 6.0
     WIRES Comput. Molec. Sci. 2025 15(1), e70019
     doi.org/10.1002/wcms.70019

List of papers to cite with high priority. The work reported in these papers was absolutely
necessary for this run to complete.
Our perspective: the developers of density functionals and basis sets usually get cited in chemistry papers
Good! But without the algorithms to do something with them, the functionals or basis sets would not do anything.
Hence, in our opinion, the algorithm design and method developments papers are equally worthy of getting cited

  1. Neese, F.; Olbrich, G.
     Efficient use of the resolution of the identity approximation in time-dependent density functional calculations with hybrid density functionals
     Chem. Phys. Lett. 2002 362 , 170-178
     doi.org/10.1016/s0009-2614(02)01053-9
  2. Neese, F.
     An improvement of the resolution of the identity approximation for the formation of the Coulomb matrix
     J. Comp. Chem. 2003 24(14), 1740-1747
     doi.org/10.1002/jcc.10318
  3. Garcia-Rates, M.; Neese, F.
     Effect of the Solute Cavity on the Solvation Energy and its Derivatives within the Framework of the Gaussian Charge Scheme
     J. Comput. Chem. 2020 41 , 922-939
     doi.org/10.1002/jcc.26139
  4. Neese, F.
     The SHARK Integral Generation and Digestion System
     J. Comp. Chem. 2022 44(3), 381
     doi.org/10.1002/jcc.26942

List of suggested additional citations. These are papers that are important in the 'surrounding' of 
of this run, or papers that preceded the highly important papers. If you like your results we are grateful for a citation.

  1. Neese, F.
     The ORCA program system
     WIRES Comput. Molec. Sci. 2012 2(1), 73-78
     doi.org/10.1002/wcms.81
  2. Neese, F.
     Software update: the ORCA program system, version 4.0
     WIRES Comput. Molec. Sci. 2018 8(1), 1-6
     doi.org/10.1002/wcms.1327
  3. Neese, F.; Wennmohs, F.; Becker, U.; Riplinger, C.
     The ORCA quantum chemistry program package
     J. Chem. Phys. 2020 152(22), 224108
     doi.org/10.1063/5.0004608
  4. Neese, F.
     Software update: The ORCA program system—Version 5.0
     WIRES Comput. Molec. Sci. 2022 12(1), e1606
     doi.org/10.1002/wcms.1606

List of optional additional citations

  1. Neese, F.
     Approximate second-order SCF convergence for spin unrestricted wavefunctions
     Chem. Phys. Lett. 2000 325(1-3), 93-98
     doi.org/10.1016/s0009-2614(00)00662-x

Timings for individual modules:

Sum of individual times          ...     3535.817 sec (=  58.930 min)
Startup calculation              ...       11.082 sec (=   0.185 min)   0.3 %
SCF iterations                   ...      306.701 sec (=   5.112 min)   8.7 %
Property integrals               ...        1.041 sec (=   0.017 min)   0.0 %
Property calculations            ...        1.311 sec (=   0.022 min)   0.0 %
CIS module                       ...     3215.682 sec (=  53.595 min)  90.9 %
                             ****ORCA TERMINATED NORMALLY****
TOTAL RUN TIME: 0 days 0 hours 58 minutes 56 seconds 269 msec
