
                                 *****************
                                 * O   R   C   A *
                                 *****************

                                            #,                                       
                                            ###                                      
                                            ####                                     
                                            #####                                    
                                            ######                                   
                                           ########,                                 
                                     ,,################,,,,,                         
                               ,,#################################,,                 
                          ,,##########################################,,             
                       ,#########################################, ''#####,          
                    ,#############################################,,   '####,        
                  ,##################################################,,,,####,       
                ,###########''''           ''''###############################       
              ,#####''   ,,,,##########,,,,          '''####'''          '####       
            ,##' ,,,,###########################,,,                        '##       
           ' ,,###''''                  '''############,,,                           
         ,,##''                                '''############,,,,        ,,,,,,###''
      ,#''                                            '''#######################'''  
     '                                                          ''''####''''         
             ,#######,   #######,   ,#######,      ##                                
            ,#'     '#,  ##    ##  ,#'     '#,    #''#        ,####,    ,#,          
            ##       ##  ##   ,#'  ##            #'  '#       #'       ,# #          
            ##       ##  #######   ##           ,######,      #####,      #          
            '#,     ,#'  ##    ##  '#,     ,#' ,#      #,     #,   #      #          
             '#######'   ##     ##  '#######'  #'      '#     '####' #    #          



                #########################################################
                #                        -***-                          #
                #          Department of theory and spectroscopy        #
                #                                                       #
                #                      Frank Neese                      #
                #                                                       #
                #     Directorship, Architecture, Infrastructure        #
                #                    SHARK, DRIVERS                     #
                #        Core code/Algorithms in most modules           #
                #                                                       #
                #        Max Planck Institute fuer Kohlenforschung      #
                #                Kaiser Wilhelm Platz 1                 #
                #                 D-45470 Muelheim/Ruhr                 #
                #                      Germany                          #
                #                                                       #
                #                  All rights reserved                  #
                #                        -***-                          #
                #########################################################


                         Program Version 6.1.1  -  RELEASE   -
                                (GIT: $487d211c$)
                          ($2025-11-21 10:33:24 +0100$)


 With contributions from (in alphabetic order):
[Max-Planck-Institut fuer Kohlenforschung]                               
  Daniel Aravena         : Magnetic Suceptibility                        
  Michael Atanasov       : Ab Initio Ligand Field Theory (pilot matlab implementation)
  Alexander A. Auer      : GIAO ZORA, VPT2 properties, NMR spectrum      
  Ute Becker             : All parallelization in ORCA, NUMFREQ, NUMCALC 
  Giovanni Bistoni       : ED, misc. LED, open-shell LED, HFLD           
  Dmytro Bykov           : pre 5.0 version of the SCF Hessian            
  Marcos Casanova-Páez   : Triplet and SCS-CIS(D). UHF-(DLPNO)-IP/EA/STEOM-CCSD. UHF-CVS-IP/STEOM-CCSD   
  Vijay G. Chilkuri      : MRCI spin determinant printing, contributions to CSF-ICE 
  Pauline Colinet        : FMM embedding                                 
  Dipayan Datta          : RHF DLPNO-CCSD density                        
  Achintya Kumar Dutta   : EOM-CC, STEOM-CC                              
  Nicolas Foglia         : Exact transition moments, OPA infrastructure, MCD improvements    
  Dmitry Ganyushin       : Spin-Orbit,Spin-Spin,Magnetic field MRCI      
  Miquel Garcia-Rates    : C-PCM and meta-GGA Hessian, CCSD/C-PCM, Gaussian charge scheme 
  Tiago L. C. Gouveia    : GS-ROHF, GS-ROCIS                             
  Yang Guo               : DLPNO-NEVPT2, F12-NEVPT2, CIM, IAO-localization        
  Andreas Hansen         : Spin unrestricted coupled pair/coupled cluster methods 
  Ingolf Harden          : AUTO-CI MPn and infrastructure                
  Benjamin Helmich-Paris : MC-RPA, TRAH-(SCF,CASSCF), AVAS, COSX integrals, SCF dyn. polar., MC-PDFT, srDFT 
  Lee Huntington         : MR-EOM, pCC                                   
  Robert Izsak           : Overlap fitted RIJCOSX, COSX-SCS-MP3, EOM     
  Riya Kayal             : Wick's Theorem for AUTO-CI, AUTO-CI UHF-CCSDT 
  Emily Kempfer          : AUTO-CI RHF CISDT and CCSDT, approximate NEVPT4
  Christian Kollmar      : KDIIS, OOCD, Brueckner-CCSD(T), CCSD density, CASPT2, CASPT2-K, improved NEVPT2 
  Axel Koslowski         : Symmetry handling                             
  Simone Kossmann        : meta-GGA functionals, TD-DFT gradient, OOMP2, (MP2 Hessian; deprecated post 5.0) 
  Lucas Lang             : DCDCAS, Hyperfine gauge corrections, ICE-SOC+SSC
  Marvin Lechner         : AUTO-CI (C++ implementation), FIC-MRCC        
  Spencer Leger          : CASSCF response                               
  Dagmar Lenk            : GEPOL surface, SMD, ORCA-2-JSON               
  Dimitrios Liakos       : Extrapolation schemes; Compound Job, Property file
  Dimitrios Manganas     : Further ROCIS development; embedding schemes. LFT, Crystal Embedding 
  Dimitrios Pantazis     : SARC Basis sets                               
  Anastasios Papadopoulos: AUTO-CI, single reference methods and gradients 
  Taras Petrenko         : pre 6.0 DFT Hessian and TD-DFT gradient,  ECA, NRVS 
  Petra Pikulova         : Analytic Raman intensities                    
  Peter Pinski           : DLPNO-MP2, DLPNO-MP2 Gradient                 
  Shashank Vittal Rao    : ES-AILFT, MagRelax                            
  Christoph Reimann      : Effective Core Potentials                     
  Marius Retegan         : Local ZFS, SOC                                
  Christoph Riplinger    : Optimizer, TS searches, QM/MM, DLPNO-CCSD(T), (RO)-DLPNO pert. Triples 
  Michael Roemelt        : Original ROCIS implementation, recursive CI coupling coefficients
  Masaaki Saitow         : Open-shell DLPNO-CCSD energy and density      
  Barbara Sandhoefer     : DKH picture change effects                    
  Yorick L. A. Schmerwitz: GMF and freeze-and-release deltaSCF, NEB S-IDPP initial path                    
  Kantharuban Sivalingam : CASSCF convergence/infrastructure, NEVPT2, NEVPT3, NEVPT4(SD), FIC-MRCI and CEPA variants
  Bernardo de Souza      : ESD, SOC TD-DFT                               
  Georgi L. Stoychev     : AutoAux, RI-MP2 NMR, DLPNO-MP2 response, X2C  
  Van Anh Tran           : RI-MP2 g-tensors                              
  Willem Van den Heuvel  : Paramagnetic NMR                              
  Zikuan Wang            : NOTCH, Electric field optimization            
  Frank Wennmohs         : Technical directorship and infrastructure     
  Hang Xu                : AUTO-CI-Response properties                   
                                                                         
[FACCTs GmbH]                                                            
  Markus Bursch, Nicolas Foglia, Miquel Garcia-Rates, Ingolf Harden, Hagen Neugebauer, Anastasios Papadopoulos, 
  Christoph Riplinger, Bernardo de Souza, Georgi L. Stoychev                                                    
                                                                 
  APM, various basis sets, CI-OPT, improved COSX, DLPNO-Multilevel,           
  DOCKER, DRACO, updates on ESD, Fragmentator, GOAT, IRC, LR-CPCM, L-BFGS, MBIS, meta-GGA TD-DFT gradient, ML-optimized integration grids, 
  MM, NACMEs, nearIR, NEB, NEB-TS, NL-DFT gradient (VV10), 2- and 3-layer-ONIOM, interface openCOSMO-RS, QMMM,   
  Crystal-QMMM, RESP, rigid body optimization, SF, symmetry and pop. for TD-DFT, various functionals, SOLVATOR                                   
                                                                         
[Other institutions]                                                     
  V. Asgeirsson          : NEB                                           
  Christoph Bannwarth    : sTDA-DFT, sTD-DFT, PBEh-3c, B97-3c, D3        
  Giovanni Bistoni       : ETS/NOCV, ADLD/ADEX, COVALED                  
  Martin Brehm           : Molecular dynamics                            
  Ronald Cardenas        : ETS/NOCV                                      
  Martina Colucci        : COVALED                                       
  Sebastian Ehlert       : rSCAN, r2SCAN, r2SCAN-3c, D4, dhf basis sets  
  Marvin Friede          : D4 for Fr, Ra, Ac-Lr                          
  Lars Goerigk           : TD-DFT with DH, B97 family of functionals     
  Stefan Grimme          : VdW corrections, initial TS optimization, DFT functionals, gCP, sTDA/sTD-DF 
  Waldemar Hujo          : DFT-NL                                        
  H. Jonsson             : NEB                                           
  Holger Kruse           : gCP                                           
  Marcel Mueller         : wB97X-3c, vDZP basis set                      
  Hagen Neugebauer       : wr2SCAN, Native XTB                           
  Gianluca Regni         : ADLD/ADEX                                     
  Tobias Risthaus        : pre 6.0 range-separated hybrid DFT and stability analysis
  Lukas Wittmann         : regularized MP2, r2SCAN double-hybrids, wr2SCAN        
                                                                         
We gratefully acknowledge several colleagues who have allowed us to      
interface, adapt or use parts of their codes:                            
  Ed Valeev, F. Pavosevic, A. Kumar             : LibInt (2-el integral package), F12 methods 
  Garnet Chan, S. Sharma, J. Yang, R. Olivares  : DMRG                   
  Ulf Ekstrom                                   : XCFun DFT Library      
  Mihaly Kallay                                 : mrcc  (arbitrary order and MRCC methods)
  Frank Weinhold                                : gennbo (NPA and NBO analysis)           
  Simon Mueller                                 : openCOSMO-RS                            
  Christopher J. Cramer and Donald G. Truhlar   : smd solvation model                     
  S Lehtola, MJT Oliveira, MAL Marques          : LibXC Library                           
  Liviu Ungur et al                             : ANISO software                          


 Your calculation uses the libint2 library for the computation of 2-el integrals
 For citations please refer to: http://libint.valeyev.net

 Your ORCA version has been built with support for libXC version: 7.0.0
 For citations please refer to: https://libxc.gitlab.io

 This ORCA versions uses:
   CBLAS   interface :  Fast vector & matrix operations
   LAPACKE interface :  Fast linear algebra routines
   SCALAPACK package :  Parallel linear algebra routines
   Shared memory     :  Shared parallel matrices
   BLAS/LAPACK       :  OpenBLAS 0.3.29  USE64BITINT DYNAMIC_ARCH NO_AFFINITY Haswell SINGLE_THREADED
        Core in use  :  Haswell
   Copyright (c) 2011-2014, The OpenBLAS Project


  ***********************************
  * Starting time: Tue Jul  7 19:47:10 2026
  * Host name:     steezy
  * Process ID:    1593017
  * Working dir.:  /home/jannes/chlorophyll-ladder/008-mgbacteriochlorin-axial-ligation/mgbacteriochlorin_h2o/03_tddft_ch2cl2/pbe0
  ***********************************

NOTE: MaxCore=3000 MB was set to SCF,MP2,MDCI,CIPSI,MRCI,RASCI and CIS
      => If you want to overwrite this, your respective input block should be placed after the MaxCore statement


***************************************
The coordinates will be read from file: /home/jannes/chlorophyll-ladder/008-mgbacteriochlorin-axial-ligation/mgbacteriochlorin_h2o/01_opt/mgbacteriochlorin_h2o_opt_b3lypd4_tzvp.xyz
***************************************


================================================================================

----- Orbital basis set information -----
Your calculation utilizes the basis: def2-TZVP
   F. Weigend and R. Ahlrichs, Phys. Chem. Chem. Phys. 7, 3297 (2005).

----- AuxJ basis set information -----
Your calculation utilizes the auxiliary basis: def2/J
   H-Rn: F. Weigend, Phys. Chem. Chem. Phys. 8, 1057 (2006).
   Fr-Lr: K. Eichkorn, F. Weigend, O. Treutler, R. Ahlrichs; Theor. Chem. Acc. 97, 119 (1997).

================================================================================
                                        WARNINGS
                       Please study these warnings very carefully!
================================================================================


WARNING: CIS/ROCIS methods need fully converged wavefunctions
  ===> : Setting SCFConvForced true
         You can overwrite this default with %scf ConvForced false 


================================================================================
                                       INPUT FILE
================================================================================
NAME = tddft.inp
|  1> %pal nprocs 4 end
|  2> %maxcore 3000
|  3> ! PBE0 def2-TZVP def2/J RIJCOSX DefGrid3 TightSCF CPCM(CH2Cl2)
|  4> %tddft
|  5>   nroots 30
|  6>   tda false
|  7>   triplets false
|  8> end
|  9> * xyzfile 0 1 /home/jannes/chlorophyll-ladder/008-mgbacteriochlorin-axial-ligation/mgbacteriochlorin_h2o/01_opt/mgbacteriochlorin_h2o_opt_b3lypd4_tzvp.xyz
| 10> 
| 11>                          ****END OF INPUT****
================================================================================

                       ****************************
                       * Single Point Calculation *
                       ****************************

---------------------------------
CARTESIAN COORDINATES (ANGSTROEM)
---------------------------------
  N     -2.156179    0.006114    0.036878
  N      2.102580   -0.004526    0.102992
  N     -0.032041   -2.040000    0.093616
  N     -0.018741    2.039836    0.083219
  C     -4.393036   -0.746615   -0.166870
  C      4.344044   -0.771023    0.178652
  C     -4.396683    0.774170    0.045307
  C      4.343804    0.743748   -0.070389
  C     -2.923497   -1.105288   -0.039037
  C      2.866903   -1.121763    0.137973
  C     -2.919147    1.121999    0.041477
  C      2.872913    1.105503    0.034517
  C     -1.133006   -2.850018    0.024587
  C      1.065546   -2.857221    0.116587
  C     -1.117205    2.855485    0.060628
  C      1.082524    2.850275    0.041163
  C     -2.460552   -2.404500   -0.034933
  C      2.397316   -2.418293    0.158356
  C     -2.448219    2.419005    0.059809
  C      2.411636    2.405893    0.022346
  C     -0.719897   -4.221529    0.011968
  C      0.646521   -4.226206    0.072013
  C     -0.697606    4.225313    0.015128
  C      0.669055    4.222145    0.001449
  H     -4.759027   -1.019902   -1.160331
  H     -5.005958   -1.284365    0.557426
  H      4.761766   -1.022683    1.157974
  H      4.915452   -1.329919   -0.562975
  H     -4.942672    1.315486   -0.728128
  H     -4.842336    1.051574    1.004576
  H      4.954192    1.300480    0.641562
  H      4.714943    0.989813   -1.069247
  H     -3.213681   -3.181014   -0.098020
  H      3.148300   -3.199118    0.182678
  H     -3.198630    3.200610    0.053346
  H      3.166310    3.181733   -0.029250
  H     -1.384098   -5.070165   -0.043494
  H      1.307513   -5.079195    0.074080
  H     -1.359495    5.077053   -0.013993
  H      1.334322    5.070706   -0.041147
  Mg    -0.040363    0.003360    0.290590
  O      0.028812   -0.090701    2.428612
  H      0.570655    0.585984    2.851620
  H      0.372811   -0.949552    2.705244

----------------------------
CARTESIAN COORDINATES (A.U.)
----------------------------
  NO LB      ZA    FRAG     MASS         X           Y           Z
   0 N     7.0000    0    14.007   -4.074588    0.011554    0.069689
   1 N     7.0000    0    14.007    3.973300   -0.008554    0.194628
   2 N     7.0000    0    14.007   -0.060548   -3.855042    0.176908
   3 N     7.0000    0    14.007   -0.035416    3.854732    0.157261
   4 C     6.0000    0    12.011   -8.301635   -1.410897   -0.315338
   5 C     6.0000    0    12.011    8.209054   -1.457022    0.337604
   6 C     6.0000    0    12.011   -8.308527    1.462969    0.085618
   7 C     6.0000    0    12.011    8.208601    1.405479   -0.133016
   8 C     6.0000    0    12.011   -5.524610   -2.088692   -0.073769
   9 C     6.0000    0    12.011    5.417661   -2.119826    0.260732
  10 C     6.0000    0    12.011   -5.516389    2.120272    0.078381
  11 C     6.0000    0    12.011    5.429018    2.089098    0.065227
  12 C     6.0000    0    12.011   -2.141070   -5.385753    0.046463
  13 C     6.0000    0    12.011    2.013591   -5.399366    0.220317
  14 C     6.0000    0    12.011   -2.111211    5.396084    0.114570
  15 C     6.0000    0    12.011    2.045674    5.386240    0.077788
  16 C     6.0000    0    12.011   -4.649769   -4.543847   -0.066014
  17 C     6.0000    0    12.011    4.530270   -4.569911    0.299249
  18 C     6.0000    0    12.011   -4.626464    4.571257    0.113022
  19 C     6.0000    0    12.011    4.557331    4.546479    0.042228
  20 C     6.0000    0    12.011   -1.360407   -7.977534    0.022616
  21 C     6.0000    0    12.011    1.221748   -7.986372    0.136085
  22 C     6.0000    0    12.011   -1.318284    7.984684    0.028587
  23 C     6.0000    0    12.011    1.264331    7.978698    0.002737
  24 H     1.0000    0     1.008   -8.993258   -1.927336   -2.192707
  25 H     1.0000    0     1.008   -9.459889   -2.427098    1.053383
  26 H     1.0000    0     1.008    8.998434   -1.932590    2.188254
  27 H     1.0000    0     1.008    9.288858   -2.513182   -1.063869
  28 H     1.0000    0     1.008   -9.340296    2.485908   -1.375963
  29 H     1.0000    0     1.008   -9.150688    1.987186    1.898373
  30 H     1.0000    0     1.008    9.362067    2.457550    1.212376
  31 H     1.0000    0     1.008    8.909951    1.870475   -2.020583
  32 H     1.0000    0     1.008   -6.072977   -6.011245   -0.185232
  33 H     1.0000    0     1.008    5.949425   -6.045457    0.345212
  34 H     1.0000    0     1.008   -6.044536    6.048277    0.100809
  35 H     1.0000    0     1.008    5.983459    6.012604   -0.055274
  36 H     1.0000    0     1.008   -2.615566   -9.581222   -0.082191
  37 H     1.0000    0     1.008    2.470842   -9.598288    0.139991
  38 H     1.0000    0     1.008   -2.569074    9.594239   -0.026442
  39 H     1.0000    0     1.008    2.521504    9.582246   -0.077757
  40 Mg   12.0000    0    24.305   -0.076275    0.006349    0.549136
  41 O     8.0000    0    15.999    0.054446   -0.171401    4.589411
  42 H     1.0000    0     1.008    1.078383    1.107349    5.388782
  43 H     1.0000    0     1.008    0.704511   -1.794393    5.112171

--------------------------------
INTERNAL COORDINATES (ANGSTROEM)
--------------------------------
 N      0   0   0     0.000000000000     0.00000000     0.00000000
 N      1   0   0     4.259285829235     0.00000000     0.00000000
 N      2   1   0     2.949550369100    43.78457817     0.00000000
 N      2   1   3     2.946152376679    43.79838596   181.03669561
 C      1   2   3     2.368890537971   160.85438094   346.76925813
 C      2   1   3     2.370106324845   161.24635194   357.59335046
 C      5   1   2     1.535518542595    71.07386358   184.88469291
 C      6   2   1     1.535106411509    71.06808885   173.37883935
 C      1   2   3     1.352684496835   124.47205820   356.04317936
 C      2   1   3     1.354116544231   124.52989936   359.47985145
 C      1   2   3     1.351791916111   124.49621974   178.48738058
 C      2   1   3     1.352873575595   124.50645671   176.53011320
 C      3   2   1     1.368582006516   172.22153724    19.35498761
 C      3   2   1     1.368603548823    80.30628569   179.84920352
 C      4   2   1     1.368362098294   172.63267473   356.47709650
 C      4   2   1     1.367978468433    80.30841674   182.73698194
 C      9   1   2     1.379234208357   125.68919730     3.65507770
 C     10   2   1     1.379099740346   125.72217239   359.96022644
 C     11   1   2     1.379975901185   125.68221746     0.41613129
 C     12   2   1     1.379832763259   125.68670198     4.54099452
 C     13   3  14     1.432432135038   109.58081178     0.37123379
 C     21  13   3     1.367744202265   106.91809471   359.89479433
 C     15   4  16     1.433374681345   109.58339486   359.46208186
 C     23  15   4     1.366732810082   106.90721094     0.40366842
 H      5   1   2     1.093435256433   118.26984707   290.10139938
 H      5   1   2     1.090620064460   129.06674261    79.82521641
 H      6   2   1     1.094027077664   117.64966573   278.72183082
 H      6   2   1     1.090358882379   129.76699462    68.39427391
 H      7   5   1     1.090563856191   113.25301698   125.44994526
 H      7   5   1     1.093506087998   111.92751164   246.50090329
 H      8   6   2     1.090595237110   113.43627246   126.32484931
 H      8   6   2     1.093621602711   111.72423857   247.29927140
 H     17   9   1     1.083585621267   116.20429390   179.71961492
 H     18  10   2     1.083631421493   116.21724037   179.80230125
 H     19  11   1     1.083542978229   116.20300698   179.55103495
 H     20  12   2     1.083569967529   116.25523453   179.58467236
 H     21  13   3     1.079083581233   125.16490024   180.35946823
 H     22  21  13     1.079122759318   127.93158749   180.52927258
 H     23  15   4     1.079076840007   125.14351488   179.74624991
 H     24  23  15     1.079097217377   127.95509224   179.30511111
 Mg     4   2   1     2.047122040207    46.89198746     8.49657532
 O     41   4   2     2.141207087278    98.30876720    93.03965604
 H     42  41   4     0.964590073126   115.16428813   323.59763969
 H     42  41   4     0.965652962433   109.67138309   202.41045368

---------------------------
INTERNAL COORDINATES (A.U.)
---------------------------
 N      0   0   0     0.000000000000     0.00000000     0.00000000
 N      1   0   0     8.048883743346     0.00000000     0.00000000
 N      2   1   0     5.573842415805    43.78457817     0.00000000
 N      2   1   3     5.567421140724    43.79838596   181.03669561
 C      1   2   3     4.476554358002   160.85438094   346.76925813
 C      2   1   3     4.478851862231   161.24635194   357.59335046
 C      5   1   2     2.901709519062    71.07386358   184.88469291
 C      6   2   1     2.900930704179    71.06808885   173.37883935
 C      1   2   3     2.556203244620   124.47205820   356.04317936
 C      2   1   3     2.558909422008   124.52989936   359.47985145
 C      1   2   3     2.554516511499   124.49621974   178.48738058
 C      2   1   3     2.556560551694   124.50645671   176.53011320
 C      3   2   1     2.586245184128   172.22153724    19.35498761
 C      3   2   1     2.586285893188    80.30628569   179.84920352
 C      4   2   1     2.585829617813   172.63267473   356.47709650
 C      4   2   1     2.585104662439    80.30841674   182.73698194
 C      9   1   2     2.606374928330   125.68919730     3.65507770
 C     10   2   1     2.606120820617   125.72217239   359.96022644
 C     11   1   2     2.607776524652   125.68221746     0.41613129
 C     12   2   1     2.607506033171   125.68670198     4.54099452
 C     13   3  14     2.706904440650   109.58081178     0.37123379
 C     21  13   3     2.584661963539   106.91809471   359.89479433
 C     15   4  16     2.708685595039   109.58339486   359.46208186
 C     23  15   4     2.582750709299   106.90721094     0.40366842
 H      5   1   2     2.066293179833   118.26984707   290.10139938
 H      5   1   2     2.060973237989   129.06674261    79.82521641
 H      6   2   1     2.067411559879   117.64966573   278.72183082
 H      6   2   1     2.060479675386   129.76699462    68.39427391
 H      7   5   1     2.060867019754   113.25301698   125.44994526
 H      7   5   1     2.066427032092   111.92751164   246.50090329
 H      8   6   2     2.060926321097   113.43627246   126.32484931
 H      8   6   2     2.066645323265   111.72423857   247.29927140
 H     17   9   1     2.047680066850   116.20429390   179.71961492
 H     18  10   2     2.047766616733   116.21724037   179.80230125
 H     19  11   1     2.047599483185   116.20300698   179.55103495
 H     20  12   2     2.047650485571   116.25523453   179.58467236
 H     21  13   3     2.039172444141   125.16490024   180.35946823
 H     22  21  13     2.039246479993   127.93158749   180.52927258
 H     23  15   4     2.039159705070   125.14351488   179.74624991
 H     24  23  15     2.039198212719   127.95509224   179.30511111
 Mg     4   2   1     3.868500018706    46.89198746     8.49657532
 O     41   4   2     4.046294990966    98.30876720    93.03965604
 H     42  41   4     1.822811069707   115.16428813   323.59763969
 H     42  41   4     1.824819639409   109.67138309   202.41045368

---------------------
BASIS SET INFORMATION
---------------------
There are 5 groups of distinct atoms

 Group   1 Type N   : 11s6p2d1f contracted to 5s3p2d1f pattern {62111/411/11/1}
 Group   2 Type C   : 11s6p2d1f contracted to 5s3p2d1f pattern {62111/411/11/1}
 Group   3 Type H   : 5s1p contracted to 3s1p pattern {311/1}
 Group   4 Type Mg  : 14s8p3d contracted to 5s4p3d pattern {73211/5111/111}
 Group   5 Type O   : 11s6p2d1f contracted to 5s3p2d1f pattern {62111/411/11/1}

Atom   0N    basis set group =>   1
Atom   1N    basis set group =>   1
Atom   2N    basis set group =>   1
Atom   3N    basis set group =>   1
Atom   4C    basis set group =>   2
Atom   5C    basis set group =>   2
Atom   6C    basis set group =>   2
Atom   7C    basis set group =>   2
Atom   8C    basis set group =>   2
Atom   9C    basis set group =>   2
Atom  10C    basis set group =>   2
Atom  11C    basis set group =>   2
Atom  12C    basis set group =>   2
Atom  13C    basis set group =>   2
Atom  14C    basis set group =>   2
Atom  15C    basis set group =>   2
Atom  16C    basis set group =>   2
Atom  17C    basis set group =>   2
Atom  18C    basis set group =>   2
Atom  19C    basis set group =>   2
Atom  20C    basis set group =>   2
Atom  21C    basis set group =>   2
Atom  22C    basis set group =>   2
Atom  23C    basis set group =>   2
Atom  24H    basis set group =>   3
Atom  25H    basis set group =>   3
Atom  26H    basis set group =>   3
Atom  27H    basis set group =>   3
Atom  28H    basis set group =>   3
Atom  29H    basis set group =>   3
Atom  30H    basis set group =>   3
Atom  31H    basis set group =>   3
Atom  32H    basis set group =>   3
Atom  33H    basis set group =>   3
Atom  34H    basis set group =>   3
Atom  35H    basis set group =>   3
Atom  36H    basis set group =>   3
Atom  37H    basis set group =>   3
Atom  38H    basis set group =>   3
Atom  39H    basis set group =>   3
Atom  40Mg   basis set group =>   4
Atom  41O    basis set group =>   5
Atom  42H    basis set group =>   3
Atom  43H    basis set group =>   3
---------------------------------
AUXILIARY/J BASIS SET INFORMATION
---------------------------------
There are 5 groups of distinct atoms

 Group   1 Type N   : 12s5p4d2f1g contracted to 6s4p3d1f1g pattern {711111/2111/211/2/1}
 Group   2 Type C   : 12s5p4d2f1g contracted to 6s4p3d1f1g pattern {711111/2111/211/2/1}
 Group   3 Type H   : 5s2p1d contracted to 3s1p1d pattern {311/2/1}
 Group   4 Type Mg  : 14s5p5d2f1g contracted to 8s4p4d1f1g pattern {71111111/2111/2111/2/1}
 Group   5 Type O   : 12s5p4d2f1g contracted to 6s4p3d1f1g pattern {711111/2111/211/2/1}

Atom   0N    basis set group =>   1
Atom   1N    basis set group =>   1
Atom   2N    basis set group =>   1
Atom   3N    basis set group =>   1
Atom   4C    basis set group =>   2
Atom   5C    basis set group =>   2
Atom   6C    basis set group =>   2
Atom   7C    basis set group =>   2
Atom   8C    basis set group =>   2
Atom   9C    basis set group =>   2
Atom  10C    basis set group =>   2
Atom  11C    basis set group =>   2
Atom  12C    basis set group =>   2
Atom  13C    basis set group =>   2
Atom  14C    basis set group =>   2
Atom  15C    basis set group =>   2
Atom  16C    basis set group =>   2
Atom  17C    basis set group =>   2
Atom  18C    basis set group =>   2
Atom  19C    basis set group =>   2
Atom  20C    basis set group =>   2
Atom  21C    basis set group =>   2
Atom  22C    basis set group =>   2
Atom  23C    basis set group =>   2
Atom  24H    basis set group =>   3
Atom  25H    basis set group =>   3
Atom  26H    basis set group =>   3
Atom  27H    basis set group =>   3
Atom  28H    basis set group =>   3
Atom  29H    basis set group =>   3
Atom  30H    basis set group =>   3
Atom  31H    basis set group =>   3
Atom  32H    basis set group =>   3
Atom  33H    basis set group =>   3
Atom  34H    basis set group =>   3
Atom  35H    basis set group =>   3
Atom  36H    basis set group =>   3
Atom  37H    basis set group =>   3
Atom  38H    basis set group =>   3
Atom  39H    basis set group =>   3
Atom  40Mg   basis set group =>   4
Atom  41O    basis set group =>   5
Atom  42H    basis set group =>   3
Atom  43H    basis set group =>   3


           ************************************************************
           *        Program running with 4 parallel MPI-processes     *
           *              working on a common directory               *
           ************************************************************
------------------------------------------------------------------------------
                             ORCA STARTUP CALCULATIONS
                           -- RI-GTO INTEGRALS CHOSEN --
------------------------------------------------------------------------------
------------------------------------------------------------------------------
                   ___                                                        
                  /   \      - P O W E R E D   B Y -                         
                 /     \                                                     
                 |  |  |   _    _      __       _____    __    __             
                 |  |  |  | |  | |    /  \     |  _  \  |  |  /  |          
                  \  \/   | |  | |   /    \    | | | |  |  | /  /          
                 / \  \   | |__| |  /  /\  \   | |_| |  |  |/  /          
                |  |  |   |  __  | /  /__\  \  |    /   |      \           
                |  |  |   | |  | | |   __   |  |    \   |  |\   \          
                \     /   | |  | | |  |  |  |  | |\  \  |  | \   \       
                 \___/    |_|  |_| |__|  |__|  |_| \__\ |__|  \__/        
                                                                              
                      - O R C A' S   B I G   F R I E N D -                    
                                      &                                       
                       - I N T E G R A L  F E E D E R -                       
                                                                              
 v1 FN, 2020, v2 2021, v3 2022-2024                                           
------------------------------------------------------------------------------


----------------------
SHARK INTEGRAL PACKAGE
----------------------

Number of atoms                             ...     44
Number of basis functions                   ...    915
Number of shells                            ...    359
Maximum angular momentum                    ...      3
Integral batch strategy                     ... SHARK/LIBINT Hybrid
RI-J (if used) integral strategy            ... SPLIT-RIJ (Revised 2003 algorithm where possible)
Printlevel                                  ...      1
Contraction scheme used                     ... SEGMENTED contraction
Prescreening option                         ... SCHWARTZ
   Thresh                                   ... 2.500e-11
   Tcut                                     ... 2.500e-12
   Tpresel                                  ... 2.500e-12 
Coulomb Range Separation                    ... NOT USED
Exchange Range Separation                   ... NOT USED
Multipole approximations                    ... NOT USED
Finite Nucleus Model                        ... NOT USED
CABS basis                                  ... NOT available
Auxiliary Coulomb fitting basis             ... AVAILABLE
   # of basis functions in Aux-J            ...   1479
   # of shells in Aux-J                     ...    483
   Maximum angular momentum in Aux-J        ...      4
Auxiliary J/K fitting basis                 ... NOT available
Auxiliary Correlation fitting basis         ... NOT available
Auxiliary 'external' fitting basis          ... NOT available

Checking pre-screening integrals            ... done (  0.0 sec) Dimension = 359
   => SHARK Basis and OBASIS are compatible. Storing Pre-screening
Shell pair information
Shell pair cut-off parameter TPreSel        ...   2.5e-12
Total number of shell pairs                 ...     64620
Shell pairs after pre-screening             ...     45394
Total number of primitive shell pairs       ...    201300
Primitive shell pairs kept                  ...     92130
          la=0 lb=0:  11348 shell pairs
          la=1 lb=0:  13107 shell pairs
          la=1 lb=1:   3774 shell pairs
          la=2 lb=0:   6618 shell pairs
          la=2 lb=1:   3900 shell pairs
          la=2 lb=2:   1045 shell pairs
          la=3 lb=0:   2836 shell pairs
          la=3 lb=1:   1724 shell pairs
          la=3 lb=2:    855 shell pairs
          la=3 lb=3:    187 shell pairs

Checking whether 4 symmetric matrices of dimension 915 fit in memory
:Max Core in MB      =   3000.00
 MB in use           =     58.25
 MB left             =   2941.75
 MB needed           =     12.79
 Data fit in memory  = YES
Calculating RI/J V-Matrix + Cholesky decomp.... done (  0.2 sec)
Calculating Nuclear repulsion               ... done (  0.0 sec) ENN=   2431.746330796860 Eh

Diagonalization of the overlap matrix:
Smallest eigenvalue                        ... 1.028e-05
Time for diagonalization                   ...    0.241 sec
Threshold for overlap eigenvalues          ... 1.000e-07
Number of eigenvalues below threshold      ... 0
Time for construction of square roots      ...    0.135 sec
Total time needed                          ...    0.387 sec

-------------------
DFT GRID GENERATION
-------------------

General Integration Accuracy     IntAcc      ... 4.959
Radial Grid Type                 RadialGrid  ... OptM3 with GC (2021)
Angular Grid (max. ang.)         AngularGrid ... 6 (Lebedev-590)
Angular grid pruning method      GridPruning ... 4 (adaptive)
Weight generation scheme         WeightScheme... mBecke (2022)
Basis function cutoff            BFCut       ... 1.0000e-11
Integration weight cutoff        WCut        ... 1.0000e-14
Partially contracted basis set               ... off
Rotationally invariant grid construction     ... off
Angular grids for H and He will be reduced by one unit

Total number of grid points                  ...   520431
Total number of batches                      ...     8155
Average number of points per batch           ...       63
Average number of grid points per atom       ...    11828

--------------------
COSX GRID GENERATION
--------------------

GRIDX 1
-------
General Integration Accuracy     IntAcc      ... 4.020
Radial Grid Type                 RadialGrid  ... OptM3 with GC (2021)
Angular Grid (max. ang.)         AngularGrid ... 2 (Lebedev-110)
Angular grid pruning method      GridPruning ... 4 (adaptive)
Weight generation scheme         WeightScheme... mBecke (2022)
Basis function cutoff            BFCut       ... 1.0000e-11
Integration weight cutoff        WCut        ... 1.0000e-14
Partially contracted basis set               ... on
Rotationally invariant grid construction     ... off
Angular grids for H and He will be reduced by one unit

Total number of grid points                  ...    58501
Total number of batches                      ...      479
Average number of points per batch           ...      122
Average number of grid points per atom       ...     1330
UseSFitting                                  ... on

GRIDX 2
-------
General Integration Accuracy     IntAcc      ... 4.338
Radial Grid Type                 RadialGrid  ... OptM3 with GC (2021)
Angular Grid (max. ang.)         AngularGrid ... 3 (Lebedev-194)
Angular grid pruning method      GridPruning ... 4 (adaptive)
Weight generation scheme         WeightScheme... mBecke (2022)
Basis function cutoff            BFCut       ... 1.0000e-11
Integration weight cutoff        WCut        ... 1.0000e-14
Partially contracted basis set               ... on
Rotationally invariant grid construction     ... off
Angular grids for H and He will be reduced by one unit

Total number of grid points                  ...   128370
Total number of batches                      ...     1025
Average number of points per batch           ...      125
Average number of grid points per atom       ...     2918
UseSFitting                                  ... on

GRIDX 3
-------
General Integration Accuracy     IntAcc      ... 4.871
Radial Grid Type                 RadialGrid  ... OptM3 with GC (2021)
Angular Grid (max. ang.)         AngularGrid ... 4 (Lebedev-302)
Angular grid pruning method      GridPruning ... 4 (adaptive)
Weight generation scheme         WeightScheme... mBecke (2022)
Basis function cutoff            BFCut       ... 1.0000e-11
Integration weight cutoff        WCut        ... 1.0000e-14
Partially contracted basis set               ... on
Rotationally invariant grid construction     ... off
Angular grids for H and He will be reduced by one unit

Total number of grid points                  ...   238296
Total number of batches                      ...     1884
Average number of points per batch           ...      126
Average number of grid points per atom       ...     5416
UseSFitting                                  ... on
Grids setup in  16.9 sec
Initializing property integral containers    ... done (  0.0 sec)

SHARK setup successfully completed in  18.4 seconds

Maximum memory used throughout the entire STARTUP-calculation: 172.9 MB


           ************************************************************
           *        Program running with 4 parallel MPI-processes     *
           *              working on a common directory               *
           ************************************************************
-------------------------------------------------------------------------------
                                 ORCA GUESS
                   Start orbitals & Density for SCF / CASSCF
-------------------------------------------------------------------------------

------------
SCF SETTINGS
------------
Hamiltonian:
 Density Functional     Method          .... DFT(GTOs)
 Exchange Functional    Exchange        .... PBE
   PBE kappa parameter   XKappa         ....  0.804000
   PBE mue parameter    XMuePBE         ....  0.219520
 Correlation Functional Correlation     .... PBE
   PBE beta parameter  CBetaPBE         ....  0.066725
 LDA part of GGA corr.  LDAOpt          .... PW91-LDA
 Gradients option       PostSCFGGA      .... off
 Hybrid DFT is turned on
   Fraction HF Exchange ScalHFX         ....  0.250000
   Scaling of DF-GGA-X  ScalDFX         ....  0.750000
   Scaling of DF-GGA-C  ScalDFC         ....  1.000000
   Scaling of DF-LDA-C  ScalLDAC        ....  1.000000
   Perturbative correction              ....  0.000000
   NL short-range parameter             ....  6.900000
 RI-approximation to the Coulomb term is turned on
   Number of AuxJ basis functions       .... 1479
   RIJ-COSX (HFX calculated with COS-X)).... on


General Settings:
 Integral files         IntName         .... tddft
 Hartree-Fock type      HFTyp           .... RHF
 Total Charge           Charge          ....    0
 Multiplicity           Mult            ....    1
 Number of Electrons    NEL             ....  186
 Basis Dimension        Dim             ....  915
 Nuclear Repulsion      ENuc            ....   2431.7463307969 Eh

Convergence Acceleration:
 AO-DIIS                CNVDIIS         .... on
   Start iteration      DIISMaxIt       ....    12
   Startup error        DIISStart       ....  0.200000
   # of expansion vecs  DIISMaxEq       ....     5
   Bias factor          DIISBfac        ....   1.050
   Max. coefficient     DIISMaxC        ....  10.000
 MO-DIIS                CNVKDIIS        .... off
 Trust-Rad. Augm. Hess. CNVTRAH         .... auto
   Auto Start mean grad. ratio tolernc. ....  1.125000
   Auto Start start iteration           ....    50
   Auto Start num. interpolation iter.  ....    10
   Max. Number of Micro iterations      ....    24
   Max. Number of Macro iterations      .... Maxiter - #DIIS iter
   Number of Davidson start vectors     ....     2
   Converg. threshold    (grad. norm)   ....   1.000e-05
   Grad. Scal. Fac. for Micro threshold ....   0.100
   Minimum threshold for Micro iter.    ....   1.000e-02
   NR start threshold (gradient norm)   ....   1.000e-04
   Initial trust radius                 ....   0.400
   Minimum AH scaling param. (alpha)    ....   1.000
   Maximum AH scaling param. (alpha)    .... 1000.000
   Quad. conv. algorithm                .... NR
   White noise on init. David. guess    .... on
   Maximum white noise                  ....   0.010
   Pseudo random numbers                .... off
   Inactive MOs                         .... canonical
   Orbital update algorithm             .... Taylor
   Preconditioner                       .... Diag
   Full preconditioner red. dimension   ....   250
 SOSCF                 CNVSOSCF           .... on
   Start iteration     SOSCFMaxIt         ....   150
   Startup grad/error  SOSCFStart         ....  0.003300
   Hessian update      SOSCFHessUp        .... L-BFGS
   Autom. constraints  SOSCFAutoConstrain .... off
 Level Shifting         CNVShift        .... on
   Level shift para.    LevelShift      ....    0.2500
   Turn off err/grad.   ShiftErr        ....    0.0010
 Zerner damping         CNVZerner       .... off
 Static damping         CNVDamp         .... on
   Fraction old density DampFac         ....    0.7000
   Max. Damping (<1)    DampMax         ....    0.9800
   Min. Damping (>=0)   DampMin         ....    0.0000
   Turn off err/grad.   DampErr         ....    0.1000

SCF Procedure:
 Maximum # iterations   MaxIter         ....   125
 SCF integral mode      SCFMode         .... Direct
   Integral package                     .... SHARK and LIBINT hybrid scheme
 Reset frequency        DirectResetFreq ....    20
 Integral Threshold     Thresh          ....  2.500e-11 Eh
 Primitive CutOff       TCut            ....  2.500e-12 Eh

Convergence Tolerance:
 Convergence Check Mode ConvCheckMode   .... Total+1el-Energy
 Convergence forced     ConvForced      .... 1
 Energy Change          TolE            ....  1.000e-08 Eh
 1-El. energy change                    ....  1.000e-05 Eh
 Orbital Gradient       TolG            ....  1.000e-05
 Orbital Rotation angle TolX            ....  1.000e-05
 DIIS Error             TolErr          ....  5.000e-07

------------------------------
INITIAL GUESS: MODEL POTENTIAL
------------------------------
Loading Hartree-Fock densities                     ... done
Calculating cut-offs                               ... done
Initializing the effective Hamiltonian             ... done
Setting up the integral package (SHARK)            ... done
Starting the Coulomb interaction                   ... done (   2.0 sec)
Making the grid                                    ... done (   0.8 sec)
Mapping shells                                     ... done
Starting the XC term evaluation                    ... done (   1.0 sec)
  promolecular density results
     # of electrons  =    186.019238533
     EX              =   -158.078320827
     EC              =     -6.314627460
     EX+EC           =   -164.392948287
Transforming the Hamiltonian                       ... done (   0.1 sec)
Diagonalizing the Hamiltonian                      ... done (   0.3 sec)
Back transforming the eigenvectors                 ... done (   0.1 sec)
Now organizing SCF variables                       ... done
                      ------------------
                      INITIAL GUESS DONE (   4.3 sec)
                      ------------------
             **** ENERGY FILE WAS UPDATED (tddft.en.tmp) ****
Finished Guess after   4.9 sec
Maximum memory used throughout the entire GUESS-calculation: 97.3 MB


           ************************************************************
           *        Program running with 4 parallel MPI-processes     *
           *              working on a common directory               *
           ************************************************************

-------------------------------------------------------------------------------------------
                                      ORCA LEAN-SCF
                              memory conserving SCF solver
-------------------------------------------------------------------------------------------

--------------------
CPCM SOLVATION MODEL
--------------------
CPCM parameters:
  Epsilon                                         ...       8.9990
  Refrac                                          ...       1.4242
  Rsolv                                           ...       1.3000
  Surface type                                    ... GAUSSIAN VDW
  Discretization scheme                           ... Constant charge density
    Threshold for H atoms                         ...       5.0000 (charges/Ang^2)
    Threshold for non-H atoms                     ...       5.0000 (charges/Ang^2)
  Epsilon function type                           ...         CPCM
Solvent:                                          ... DICHLOROMETHANE
Radii:
  Scheme                                          ... Element-dependent radii
  Radius for N  used is    3.5149 Bohr (=   1.8600 Ang.)
  Radius for C  used is    3.8550 Bohr (=   2.0400 Ang.)
  Radius for H  used is    2.4944 Bohr (=   1.3200 Ang.)
  Radius for Mg used is    3.9231 Bohr (=   2.0760 Ang.)
  Radius for O  used is    3.4469 Bohr (=   1.8240 Ang.)
Calculating surface                               ...        done! (  0.0s)
Cavity surface points                             ...         3858
Cavity Volume                                     ...    2687.3554
Cavity Surface-area                               ...    1293.8355
Calculating surface distance matrix               ...        done! (  0.3s)
Performing Cholesky decomposition & store         ...        done! (  1.0s)
Overall time for CPCM initialization              ...                 1.3s

----------------------------------------D-I-I-S--------------------------------------------
Iteration    Energy (Eh)           Delta-E    RMSDP     MaxDP     DIISErr   Damp  Time(sec)
-------------------------------------------------------------------------------------------
               ***  Starting incremental Fock matrix formation  ***
    1    -1265.8894689360199663     0.00e+00  1.79e-03  4.35e-02  2.80e-01  0.700 106.4
Warning: op=0 Small HOMO/LUMO gap (   0.088) - skipping pre-diagonalization
         Will do a full diagonalization
    2    -1266.1656430553193786    -2.76e-01  1.40e-03  2.74e-02  1.20e-01  0.700  51.6
                               ***Turning on AO-DIIS***
    3    -1266.2876988533353142    -1.22e-01  6.49e-04  1.08e-02  4.07e-02  0.700  50.4
    4    -1266.3586965788540510    -7.10e-02  1.26e-03  2.69e-02  2.44e-02  0.000  46.9
    5    -1266.5110434744101440    -1.52e-01  2.56e-04  5.51e-03  4.73e-03  0.000  49.4
                              *** Initializing SOSCF ***
---------------------------------------S-O-S-C-F--------------------------------------
Iteration    Energy (Eh)           Delta-E    RMSDP     MaxDP     MaxGrad    Time(sec)
--------------------------------------------------------------------------------------
    6    -1266.5117279416167548    -6.84e-04  1.21e-04  2.81e-03  2.44e-03    61.9
               *** Restarting incremental Fock matrix formation ***
    7    -1266.5117719171466888    -4.40e-05  8.86e-05  2.19e-03  2.11e-04   122.0
    8    -1266.5117758261094423    -3.91e-06  3.36e-05  8.25e-04  2.35e-04   102.5
    9    -1266.5117791987577220    -3.37e-06  2.27e-05  5.33e-04  8.28e-05    67.8
   10    -1266.5117794872467130    -2.88e-07  4.99e-06  1.57e-04  2.72e-05    79.1
   11    -1266.5117796144040767    -1.27e-07  5.36e-06  1.92e-04  1.67e-05    61.1
   12    -1266.5117795898145232     2.46e-08  5.93e-06  1.97e-04  4.58e-06    48.9
   13    -1266.5117795769988334     1.28e-08  4.99e-06  2.02e-04  2.37e-06    44.5
                  *** Gradient check signals convergence ***

               *****************************************************
               *                     SUCCESS                       *
               *           SCF CONVERGED AFTER  13 CYCLES          *
               *****************************************************

Recomputing exchange energy using gridx3       ... done (  197.978 sec)
Old exchange energy                            :    -40.278926484 Eh
New exchange energy                            :    -40.278907379 Eh
Exchange energy change after final integration :      0.000019106 Eh
Total energy after final integration           :  -1266.511760489 Eh
             **** ENERGY FILE WAS UPDATED (tddft.en.tmp) ****

----------------
TOTAL SCF ENERGY
----------------

Total Energy       :      -1266.51176048915522 Eh          -34463.53710 eV

Components:
Nuclear Repulsion  :       2431.74633079685964 Eh           66171.18174 eV
Electronic Energy  :      -3698.23541649136541 Eh         -100634.10182 eV
One Electron Energy:      -6567.82193856387039 Eh         -178719.52087 eV
Two Electron Energy:       2869.58652207250498 Eh           78085.41905 eV
CPCM Dielectric    :         -0.02269390036480 Eh              -0.61753 eV

Virial components:
Potential Energy   :      -2527.21502049473474 Eh          -68769.01686 eV
Kinetic Energy     :       1260.70326000557975 Eh           34305.47976 eV
Virial Ratio       :          2.00460734945950

DFT components:
N(Alpha)           :       93.000028526706 electrons
N(Beta)            :       93.000028526706 electrons
N(Total)           :      186.000057053411 electrons
E(X)               :     -120.522756884416 Eh       
E(C)               :       -6.327809529443 Eh       
E(XC)              :     -126.850566413860 Eh       

CPCM Solvation Model Properties:
Surface-charge          :         -0.03836455893884
Corrected charge        :         -0.00000000000000
Outlying charge corr.   :          0.00006868194691 Eh               0.00187 eV
Free-energy (cav+disp)  :  This term is not implemented in the current solvation scheme

---------------
SCF CONVERGENCE
---------------

  Last Energy change         ...   -1.2816e-08  Tolerance :   1.0000e-08
  Last MAX-Density change    ...    2.0188e-04  Tolerance :   1.0000e-07
  Last RMS-Density change    ...    4.9875e-06  Tolerance :   5.0000e-09
  Last DIIS Error            ...    2.4434e-03  Tolerance :   5.0000e-07
  Last Orbital Gradient      ...    2.3707e-06  Tolerance :   1.0000e-05
  Last Orbital Rotation      ...    5.1596e-06  Tolerance :   1.0000e-05


----------------
ORBITAL ENERGIES
----------------

  NO   OCC          E(Eh)            E(eV) 
   0   2.0000     -46.855861     -1275.0128 
   1   2.0000     -19.238826      -523.5151 
   2   2.0000     -14.387001      -391.4902 
   3   2.0000     -14.386632      -391.4802 
   4   2.0000     -14.360813      -390.7776 
   5   2.0000     -14.360465      -390.7681 
   6   2.0000     -10.258970      -279.1608 
   7   2.0000     -10.258915      -279.1593 
   8   2.0000     -10.258802      -279.1562 
   9   2.0000     -10.258664      -279.1525 
  10   2.0000     -10.248171      -278.8669 
  11   2.0000     -10.247925      -278.8602 
  12   2.0000     -10.247868      -278.8587 
  13   2.0000     -10.247495      -278.8485 
  14   2.0000     -10.222450      -278.1670 
  15   2.0000     -10.222202      -278.1602 
  16   2.0000     -10.221933      -278.1529 
  17   2.0000     -10.221695      -278.1465 
  18   2.0000     -10.216134      -277.9951 
  19   2.0000     -10.216013      -277.9918 
  20   2.0000     -10.215718      -277.9838 
  21   2.0000     -10.215646      -277.9819 
  22   2.0000     -10.213473      -277.9227 
  23   2.0000     -10.213179      -277.9147 
  24   2.0000     -10.212731      -277.9026 
  25   2.0000     -10.212441      -277.8947 
  26   2.0000      -3.078255       -83.7636 
  27   2.0000      -1.803672       -49.0804 
  28   2.0000      -1.800644       -48.9980 
  29   2.0000      -1.799794       -48.9749 
  30   2.0000      -1.071556       -29.1585 
  31   2.0000      -0.984729       -26.7958 
  32   2.0000      -0.979224       -26.6460 
  33   2.0000      -0.971729       -26.4421 
  34   2.0000      -0.965282       -26.2667 
  35   2.0000      -0.832296       -22.6479 
  36   2.0000      -0.808929       -22.0121 
  37   2.0000      -0.800601       -21.7855 
  38   2.0000      -0.789303       -21.4780 
  39   2.0000      -0.787854       -21.4386 
  40   2.0000      -0.777188       -21.1484 
  41   2.0000      -0.776617       -21.1328 
  42   2.0000      -0.750781       -20.4298 
  43   2.0000      -0.735093       -20.0029 
  44   2.0000      -0.674783       -18.3618 
  45   2.0000      -0.666926       -18.1480 
  46   2.0000      -0.630331       -17.1522 
  47   2.0000      -0.610312       -16.6074 
  48   2.0000      -0.582732       -15.8570 
  49   2.0000      -0.582708       -15.8563 
  50   2.0000      -0.578963       -15.7544 
  51   2.0000      -0.578576       -15.7439 
  52   2.0000      -0.569145       -15.4872 
  53   2.0000      -0.542802       -14.7704 
  54   2.0000      -0.530719       -14.4416 
  55   2.0000      -0.518851       -14.1187 
  56   2.0000      -0.513786       -13.9808 
  57   2.0000      -0.507153       -13.8003 
  58   2.0000      -0.496351       -13.5064 
  59   2.0000      -0.485572       -13.2131 
  60   2.0000      -0.483440       -13.1551 
  61   2.0000      -0.457619       -12.4525 
  62   2.0000      -0.449352       -12.2275 
  63   2.0000      -0.444678       -12.1003 
  64   2.0000      -0.426126       -11.5955 
  65   2.0000      -0.423701       -11.5295 
  66   2.0000      -0.423558       -11.5256 
  67   2.0000      -0.412173       -11.2158 
  68   2.0000      -0.411796       -11.2055 
  69   2.0000      -0.409476       -11.1424 
  70   2.0000      -0.395111       -10.7515 
  71   2.0000      -0.389221       -10.5912 
  72   2.0000      -0.386731       -10.5235 
  73   2.0000      -0.385627       -10.4934 
  74   2.0000      -0.380811       -10.3624 
  75   2.0000      -0.376311       -10.2399 
  76   2.0000      -0.373113       -10.1529 
  77   2.0000      -0.369540       -10.0557 
  78   2.0000      -0.367408        -9.9977 
  79   2.0000      -0.366118        -9.9626 
  80   2.0000      -0.363289        -9.8856 
  81   2.0000      -0.358568        -9.7571 
  82   2.0000      -0.352821        -9.6008 
  83   2.0000      -0.317637        -8.6433 
  84   2.0000      -0.313965        -8.5434 
  85   2.0000      -0.313882        -8.5412 
  86   2.0000      -0.288813        -7.8590 
  87   2.0000      -0.281144        -7.6503 
  88   2.0000      -0.267824        -7.2879 
  89   2.0000      -0.257060        -6.9949 
  90   2.0000      -0.248628        -6.7655 
  91   2.0000      -0.201061        -5.4711 
  92   2.0000      -0.172364        -4.6903 
  93   0.0000      -0.090617        -2.4658 
  94   0.0000      -0.033667        -0.9161 
  95   0.0000       0.010058         0.2737 
  96   0.0000       0.023608         0.6424 
  97   0.0000       0.029446         0.8013 
  98   0.0000       0.044355         1.2070 
  99   0.0000       0.045756         1.2451 
 100   0.0000       0.050826         1.3830 
 101   0.0000       0.065828         1.7913 
 102   0.0000       0.067712         1.8425 
 103   0.0000       0.078573         2.1381 
*Only the first 10 virtual orbitals were printed.

                    ********************************
                    * MULLIKEN POPULATION ANALYSIS *
                    ********************************

-----------------------
MULLIKEN ATOMIC CHARGES
-----------------------
   0 N :   -0.281906
   1 N :   -0.279749
   2 N :   -0.346200
   3 N :   -0.335058
   4 C :   -0.167618
   5 C :   -0.170457
   6 C :   -0.166573
   7 C :   -0.170837
   8 C :    0.185578
   9 C :    0.187651
  10 C :    0.183393
  11 C :    0.187520
  12 C :    0.321227
  13 C :    0.310773
  14 C :    0.318852
  15 C :    0.303712
  16 C :   -0.475336
  17 C :   -0.476124
  18 C :   -0.480241
  19 C :   -0.467589
  20 C :   -0.269513
  21 C :   -0.267996
  22 C :   -0.265607
  23 C :   -0.270695
  24 H :    0.118653
  25 H :    0.132311
  26 H :    0.116429
  27 H :    0.133773
  28 H :    0.132970
  29 H :    0.117716
  30 H :    0.132917
  31 H :    0.118561
  32 H :    0.142450
  33 H :    0.141771
  34 H :    0.142884
  35 H :    0.142044
  36 H :    0.142565
  37 H :    0.142814
  38 H :    0.143166
  39 H :    0.142955
  40 Mg:    0.601800
  41 O :   -0.628371
  42 H :    0.386532
  43 H :    0.388854
Sum of atomic charges:   -0.0000000

--------------------------------
MULLIKEN REDUCED ORBITAL CHARGES
--------------------------------
  0 N s       :     3.649510  s :     3.649510
      pz      :     1.252384  p :     3.564819
      px      :     1.295098
      py      :     1.017337
      dz2     :     0.004349  d :     0.063931
      dxz     :     0.006237
      dyz     :     0.016463
      dx2y2   :     0.017755
      dxy     :     0.019127
      f0      :     0.000639  f :     0.003646
      f+1     :     0.000247
      f-1     :     0.000381
      f+2     :     0.000108
      f-2     :     0.000573
      f+3     :     0.000640
      f-3     :     0.001057

  1 N s       :     3.640691  s :     3.640691
      pz      :     1.245283  p :     3.571451
      px      :     1.307905
      py      :     1.018263
      dz2     :     0.004416  d :     0.063970
      dxz     :     0.006489
      dyz     :     0.016276
      dx2y2   :     0.017411
      dxy     :     0.019378
      f0      :     0.000637  f :     0.003638
      f+1     :     0.000246
      f-1     :     0.000382
      f+2     :     0.000108
      f-2     :     0.000573
      f+3     :     0.000643
      f-3     :     0.001049

  2 N s       :     3.645374  s :     3.645374
      pz      :     1.366526  p :     3.637273
      px      :     1.016633
      py      :     1.254114
      dz2     :     0.004512  d :     0.059908
      dxz     :     0.014267
      dyz     :     0.006003
      dx2y2   :     0.017023
      dxy     :     0.018103
      f0      :     0.000644  f :     0.003646
      f+1     :     0.000419
      f-1     :     0.000314
      f+2     :     0.000082
      f-2     :     0.000627
      f+3     :     0.000941
      f-3     :     0.000619

  3 N s       :     3.644121  s :     3.644121
      pz      :     1.365596  p :     3.627435
      px      :     1.014498
      py      :     1.247342
      dz2     :     0.004438  d :     0.059854
      dxz     :     0.014272
      dyz     :     0.005932
      dx2y2   :     0.017155
      dxy     :     0.018056
      f0      :     0.000648  f :     0.003648
      f+1     :     0.000418
      f-1     :     0.000315
      f+2     :     0.000080
      f-2     :     0.000624
      f+3     :     0.000945
      f-3     :     0.000619

  4 C s       :     3.109579  s :     3.109579
      pz      :     1.058217  p :     2.967073
      px      :     0.945622
      py      :     0.963234
      dz2     :     0.007142  d :     0.085203
      dxz     :     0.016575
      dyz     :     0.018224
      dx2y2   :     0.017890
      dxy     :     0.025372
      f0      :     0.000754  f :     0.005764
      f+1     :     0.000620
      f-1     :     0.000526
      f+2     :     0.000820
      f-2     :     0.000402
      f+3     :     0.001540
      f-3     :     0.001103

  5 C s       :     3.113508  s :     3.113508
      pz      :     1.056543  p :     2.965782
      px      :     0.945086
      py      :     0.964152
      dz2     :     0.007050  d :     0.085399
      dxz     :     0.017236
      dyz     :     0.017884
      dx2y2   :     0.017865
      dxy     :     0.025364
      f0      :     0.000688  f :     0.005767
      f+1     :     0.000652
      f-1     :     0.000562
      f+2     :     0.000827
      f-2     :     0.000396
      f+3     :     0.001548
      f-3     :     0.001094

  6 C s       :     3.109161  s :     3.109161
      pz      :     1.056538  p :     2.966349
      px      :     0.945315
      py      :     0.964495
      dz2     :     0.006275  d :     0.085297
      dxz     :     0.017479
      dyz     :     0.018435
      dx2y2   :     0.017908
      dxy     :     0.025200
      f0      :     0.000645  f :     0.005766
      f+1     :     0.000688
      f-1     :     0.000578
      f+2     :     0.000842
      f-2     :     0.000371
      f+3     :     0.001550
      f-3     :     0.001092

  7 C s       :     3.115386  s :     3.115386
      pz      :     1.057455  p :     2.964238
      px      :     0.944615
      py      :     0.962168
      dz2     :     0.007670  d :     0.085447
      dxz     :     0.016608
      dyz     :     0.017773
      dx2y2   :     0.017877
      dxy     :     0.025519
      f0      :     0.000762  f :     0.005766
      f+1     :     0.000607
      f-1     :     0.000526
      f+2     :     0.000811
      f-2     :     0.000413
      f+3     :     0.001545
      f-3     :     0.001101

  8 C s       :     3.146295  s :     3.146295
      pz      :     0.903168  p :     2.488319
      px      :     0.857420
      py      :     0.727730
      dz2     :     0.003799  d :     0.165801
      dxz     :     0.022432
      dyz     :     0.042304
      dx2y2   :     0.052690
      dxy     :     0.044577
      f0      :     0.001932  f :     0.014007
      f+1     :     0.000924
      f-1     :     0.000946
      f+2     :     0.001240
      f-2     :     0.001555
      f+3     :     0.002592
      f-3     :     0.004818

  9 C s       :     3.140329  s :     3.140329
      pz      :     0.905890  p :     2.493348
      px      :     0.857952
      py      :     0.729506
      dz2     :     0.003308  d :     0.164738
      dxz     :     0.022306
      dyz     :     0.042454
      dx2y2   :     0.052206
      dxy     :     0.044464
      f0      :     0.001945  f :     0.013935
      f+1     :     0.000889
      f-1     :     0.000932
      f+2     :     0.001233
      f-2     :     0.001537
      f+3     :     0.002558
      f-3     :     0.004840

 10 C s       :     3.143365  s :     3.143365
      pz      :     0.904351  p :     2.492930
      px      :     0.857124
      py      :     0.731455
      dz2     :     0.003093  d :     0.166288
      dxz     :     0.022797
      dyz     :     0.042421
      dx2y2   :     0.053288
      dxy     :     0.044689
      f0      :     0.001966  f :     0.014025
      f+1     :     0.000884
      f-1     :     0.000932
      f+2     :     0.001244
      f-2     :     0.001550
      f+3     :     0.002563
      f-3     :     0.004886

 11 C s       :     3.146235  s :     3.146235
      pz      :     0.903048  p :     2.487379
      px      :     0.856262
      py      :     0.728069
      dz2     :     0.003722  d :     0.164919
      dxz     :     0.022277
      dyz     :     0.042348
      dx2y2   :     0.052121
      dxy     :     0.044450
      f0      :     0.001925  f :     0.013946
      f+1     :     0.000915
      f-1     :     0.000941
      f+2     :     0.001227
      f-2     :     0.001549
      f+3     :     0.002597
      f-3     :     0.004792

 12 C s       :     3.103671  s :     3.103671
      pz      :     0.918547  p :     2.392294
      px      :     0.700393
      py      :     0.773355
      dz2     :     0.004190  d :     0.168443
      dxz     :     0.039966
      dyz     :     0.030533
      dx2y2   :     0.050669
      dxy     :     0.043084
      f0      :     0.002077  f :     0.014365
      f+1     :     0.001073
      f-1     :     0.000853
      f+2     :     0.000879
      f-2     :     0.002124
      f+3     :     0.004517
      f-3     :     0.002842

 13 C s       :     3.102859  s :     3.102859
      pz      :     0.921912  p :     2.403874
      px      :     0.700708
      py      :     0.781255
      dz2     :     0.003972  d :     0.168148
      dxz     :     0.040099
      dyz     :     0.030653
      dx2y2   :     0.050586
      dxy     :     0.042837
      f0      :     0.002088  f :     0.014346
      f+1     :     0.001049
      f-1     :     0.000855
      f+2     :     0.000851
      f-2     :     0.002141
      f+3     :     0.004478
      f-3     :     0.002884

 14 C s       :     3.105880  s :     3.105880
      pz      :     0.919315  p :     2.391356
      px      :     0.702457
      py      :     0.769583
      dz2     :     0.004009  d :     0.169522
      dxz     :     0.040617
      dyz     :     0.030736
      dx2y2   :     0.050903
      dxy     :     0.043257
      f0      :     0.002102  f :     0.014391
      f+1     :     0.001044
      f-1     :     0.000854
      f+2     :     0.000853
      f-2     :     0.002148
      f+3     :     0.004504
      f-3     :     0.002886

 15 C s       :     3.104951  s :     3.104951
      pz      :     0.920246  p :     2.408093
      px      :     0.700826
      py      :     0.787022
      dz2     :     0.003973  d :     0.168850
      dxz     :     0.040503
      dyz     :     0.030634
      dx2y2   :     0.050890
      dxy     :     0.042851
      f0      :     0.002097  f :     0.014394
      f+1     :     0.001053
      f-1     :     0.000855
      f+2     :     0.000866
      f-2     :     0.002137
      f+3     :     0.004539
      f-3     :     0.002846

 16 C s       :     3.389426  s :     3.389426
      pz      :     1.073019  p :     3.002554
      px      :     0.954425
      py      :     0.975110
      dz2     :     0.002500  d :     0.076090
      dxz     :     0.015320
      dyz     :     0.016032
      dx2y2   :     0.008476
      dxy     :     0.033762
      f0      :     0.001459  f :     0.007266
      f+1     :     0.000686
      f-1     :     0.000665
      f+2     :     0.000833
      f-2     :     0.000430
      f+3     :     0.001523
      f-3     :     0.001671

 17 C s       :     3.395485  s :     3.395485
      pz      :     1.073469  p :     2.997210
      px      :     0.951196
      py      :     0.972544
      dz2     :     0.002486  d :     0.076173
      dxz     :     0.015452
      dyz     :     0.015868
      dx2y2   :     0.008419
      dxy     :     0.033948
      f0      :     0.001457  f :     0.007256
      f+1     :     0.000683
      f-1     :     0.000671
      f+2     :     0.000832
      f-2     :     0.000417
      f+3     :     0.001505
      f-3     :     0.001691

 18 C s       :     3.391907  s :     3.391907
      pz      :     1.073461  p :     3.005166
      px      :     0.953471
      py      :     0.978233
      dz2     :     0.002458  d :     0.075904
      dxz     :     0.015510
      dyz     :     0.015762
      dx2y2   :     0.008256
      dxy     :     0.033919
      f0      :     0.001466  f :     0.007264
      f+1     :     0.000680
      f-1     :     0.000673
      f+2     :     0.000830
      f-2     :     0.000414
      f+3     :     0.001506
      f-3     :     0.001694

 19 C s       :     3.386765  s :     3.386765
      pz      :     1.074325  p :     2.997410
      px      :     0.952223
      py      :     0.970862
      dz2     :     0.002459  d :     0.076154
      dxz     :     0.015307
      dyz     :     0.015934
      dx2y2   :     0.008514
      dxy     :     0.033939
      f0      :     0.001462  f :     0.007260
      f+1     :     0.000677
      f-1     :     0.000670
      f+2     :     0.000834
      f-2     :     0.000420
      f+3     :     0.001526
      f-3     :     0.001673

 20 C s       :     3.281384  s :     3.281384
      pz      :     1.025810  p :     2.892873
      px      :     0.948901
      py      :     0.918161
      dz2     :     0.005013  d :     0.087528
      dxz     :     0.019663
      dyz     :     0.011373
      dx2y2   :     0.019126
      dxy     :     0.032354
      f0      :     0.001462  f :     0.007727
      f+1     :     0.000612
      f-1     :     0.000751
      f+2     :     0.001194
      f-2     :     0.000225
      f+3     :     0.001214
      f-3     :     0.002269

 21 C s       :     3.279285  s :     3.279285
      pz      :     1.026848  p :     2.893476
      px      :     0.949505
      py      :     0.917122
      dz2     :     0.005093  d :     0.087508
      dxz     :     0.019670
      dyz     :     0.011164
      dx2y2   :     0.019109
      dxy     :     0.032473
      f0      :     0.001457  f :     0.007727
      f+1     :     0.000611
      f-1     :     0.000761
      f+2     :     0.001181
      f-2     :     0.000229
      f+3     :     0.001213
      f-3     :     0.002275

 22 C s       :     3.279241  s :     3.279241
      pz      :     1.024267  p :     2.891212
      px      :     0.949352
      py      :     0.917594
      dz2     :     0.005002  d :     0.087431
      dxz     :     0.019747
      dyz     :     0.011180
      dx2y2   :     0.019043
      dxy     :     0.032459
      f0      :     0.001470  f :     0.007722
      f+1     :     0.000591
      f-1     :     0.000763
      f+2     :     0.001186
      f-2     :     0.000223
      f+3     :     0.001206
      f-3     :     0.002283

 23 C s       :     3.282342  s :     3.282342
      pz      :     1.025456  p :     2.893121
      px      :     0.949191
      py      :     0.918474
      dz2     :     0.004973  d :     0.087510
      dxz     :     0.019696
      dyz     :     0.011216
      dx2y2   :     0.019153
      dxy     :     0.032472
      f0      :     0.001471  f :     0.007721
      f+1     :     0.000592
      f-1     :     0.000759
      f+2     :     0.001194
      f-2     :     0.000217
      f+3     :     0.001210
      f-3     :     0.002278

 24 H s       :     0.859449  s :     0.859449
      pz      :     0.011310  p :     0.021898
      px      :     0.005626
      py      :     0.004962

 25 H s       :     0.845927  s :     0.845927
      pz      :     0.007844  p :     0.021762
      px      :     0.007367
      py      :     0.006551

 26 H s       :     0.861694  s :     0.861694
      pz      :     0.011058  p :     0.021877
      px      :     0.005946
      py      :     0.004873

 27 H s       :     0.844472  s :     0.844472
      pz      :     0.008024  p :     0.021756
      px      :     0.007010
      py      :     0.006722

 28 H s       :     0.845273  s :     0.845273
      pz      :     0.008371  p :     0.021757
      px      :     0.006807
      py      :     0.006579

 29 H s       :     0.860381  s :     0.860381
      pz      :     0.010791  p :     0.021903
      px      :     0.006130
      py      :     0.004982

 30 H s       :     0.845338  s :     0.845338
      pz      :     0.007703  p :     0.021745
      px      :     0.007344
      py      :     0.006698

 31 H s       :     0.859536  s :     0.859536
      pz      :     0.011390  p :     0.021903
      px      :     0.005660
      py      :     0.004852

 32 H s       :     0.834981  s :     0.834981
      pz      :     0.005572  p :     0.022569
      px      :     0.008367
      py      :     0.008630

 33 H s       :     0.835655  s :     0.835655
      pz      :     0.005560  p :     0.022575
      px      :     0.008332
      py      :     0.008683

 34 H s       :     0.834542  s :     0.834542
      pz      :     0.005549  p :     0.022574
      px      :     0.008326
      py      :     0.008699

 35 H s       :     0.835378  s :     0.835378
      pz      :     0.005579  p :     0.022578
      px      :     0.008378
      py      :     0.008621

 36 H s       :     0.835075  s :     0.835075
      pz      :     0.005086  p :     0.022361
      px      :     0.007362
      py      :     0.009913

 37 H s       :     0.834826  s :     0.834826
      pz      :     0.005068  p :     0.022360
      px      :     0.007321
      py      :     0.009971

 38 H s       :     0.834479  s :     0.834479
      pz      :     0.005057  p :     0.022354
      px      :     0.007334
      py      :     0.009963

 39 H s       :     0.834688  s :     0.834688
      pz      :     0.005071  p :     0.022357
      px      :     0.007369
      py      :     0.009917

 40 Mgs       :     4.539523  s :     4.539523
      pz      :     2.145281  p :     6.544797
      px      :     2.192942
      py      :     2.206574
      dz2     :     0.049323  d :     0.313880
      dxz     :     0.032658
      dyz     :     0.040103
      dx2y2   :     0.166394
      dxy     :     0.025402

 41 O s       :     3.769750  s :     3.769750
      pz      :     1.759339  p :     4.839411
      px      :     1.736731
      py      :     1.343340
      dz2     :     0.001651  d :     0.017949
      dxz     :     0.003621
      dyz     :     0.003451
      dx2y2   :     0.001526
      dxy     :     0.007700
      f0      :     0.000238  f :     0.001261
      f+1     :     0.000040
      f-1     :     0.000101
      f+2     :     0.000095
      f-2     :     0.000326
      f+3     :     0.000361
      f-3     :     0.000100

 42 H s       :     0.567842  s :     0.567842
      pz      :     0.015241  p :     0.045626
      px      :     0.015510
      py      :     0.014874

 43 H s       :     0.565605  s :     0.565605
      pz      :     0.013727  p :     0.045541
      px      :     0.013685
      py      :     0.018128



                     *******************************
                     * LOEWDIN POPULATION ANALYSIS *
                     *******************************

----------------------
LOEWDIN ATOMIC CHARGES
----------------------
   0 N :    0.209219
   1 N :    0.205903
   2 N :    0.163987
   3 N :    0.166128
   4 C :   -0.197571
   5 C :   -0.198512
   6 C :   -0.197422
   7 C :   -0.198472
   8 C :   -0.206713
   9 C :   -0.208954
  10 C :   -0.206367
  11 C :   -0.208600
  12 C :   -0.222254
  13 C :   -0.223441
  14 C :   -0.220819
  15 C :   -0.221811
  16 C :   -0.132217
  17 C :   -0.134011
  18 C :   -0.131909
  19 C :   -0.133622
  20 C :   -0.141151
  21 C :   -0.141855
  22 C :   -0.139908
  23 C :   -0.140484
  24 H :    0.150612
  25 H :    0.147534
  26 H :    0.149998
  27 H :    0.147304
  28 H :    0.147642
  29 H :    0.150585
  30 H :    0.146918
  31 H :    0.150882
  32 H :    0.165073
  33 H :    0.164782
  34 H :    0.165159
  35 H :    0.164816
  36 H :    0.144121
  37 H :    0.144063
  38 H :    0.144325
  39 H :    0.144256
  40 Mg:    0.137614
  41 O :   -0.113623
  42 H :    0.203832
  43 H :    0.204963

-------------------------------
LOEWDIN REDUCED ORBITAL CHARGES
-------------------------------
  0 N s       :     2.976509  s :     2.976509
      pz      :     1.108997  p :     3.579464
      px      :     1.349606
      py      :     1.120862
      dz2     :     0.016547  d :     0.215991
      dxz     :     0.009767
      dyz     :     0.050078
      dx2y2   :     0.064735
      dxy     :     0.074864
      f0      :     0.001125  f :     0.018817
      f+1     :     0.000772
      f-1     :     0.001800
      f+2     :     0.000327
      f-2     :     0.003520
      f+3     :     0.003859
      f-3     :     0.007414

  1 N s       :     2.979845  s :     2.979845
      pz      :     1.107740  p :     3.580201
      px      :     1.352496
      py      :     1.119965
      dz2     :     0.016579  d :     0.215311
      dxz     :     0.010050
      dyz     :     0.049701
      dx2y2   :     0.064152
      dxy     :     0.074828
      f0      :     0.001118  f :     0.018739
      f+1     :     0.000775
      f-1     :     0.001785
      f+2     :     0.000326
      f-2     :     0.003491
      f+3     :     0.003874
      f-3     :     0.007371

  2 N s       :     2.976767  s :     2.976767
      pz      :     1.207526  p :     3.637859
      px      :     1.103116
      py      :     1.327217
      dz2     :     0.016267  d :     0.202894
      dxz     :     0.044394
      dyz     :     0.011652
      dx2y2   :     0.061000
      dxy     :     0.069582
      f0      :     0.001119  f :     0.018493
      f+1     :     0.001723
      f-1     :     0.000842
      f+2     :     0.000207
      f-2     :     0.003768
      f+3     :     0.006859
      f-3     :     0.003977

  3 N s       :     2.976028  s :     2.976028
      pz      :     1.207043  p :     3.636406
      px      :     1.103002
      py      :     1.326361
      dz2     :     0.016198  d :     0.202923
      dxz     :     0.044294
      dyz     :     0.011539
      dx2y2   :     0.061176
      dxy     :     0.069716
      f0      :     0.001122  f :     0.018515
      f+1     :     0.001736
      f-1     :     0.000834
      f+2     :     0.000197
      f-2     :     0.003768
      f+3     :     0.006883
      f-3     :     0.003976

  4 C s       :     2.767425  s :     2.767425
      pz      :     1.036139  p :     3.024880
      px      :     0.991660
      py      :     0.997081
      dz2     :     0.048402  d :     0.365281
      dxz     :     0.069536
      dyz     :     0.068863
      dx2y2   :     0.086663
      dxy     :     0.091817
      f0      :     0.004456  f :     0.039984
      f+1     :     0.003404
      f-1     :     0.003392
      f+2     :     0.005585
      f-2     :     0.004640
      f+3     :     0.011161
      f-3     :     0.007345

  5 C s       :     2.767705  s :     2.767705
      pz      :     1.036059  p :     3.024970
      px      :     0.991259
      py      :     0.997651
      dz2     :     0.046524  d :     0.365884
      dxz     :     0.072463
      dyz     :     0.069052
      dx2y2   :     0.086827
      dxy     :     0.091019
      f0      :     0.004218  f :     0.039954
      f+1     :     0.003647
      f-1     :     0.003607
      f+2     :     0.005405
      f-2     :     0.004471
      f+3     :     0.011270
      f-3     :     0.007335

  6 C s       :     2.767449  s :     2.767449
      pz      :     1.036310  p :     3.024740
      px      :     0.991145
      py      :     0.997285
      dz2     :     0.043332  d :     0.365254
      dxz     :     0.073780
      dyz     :     0.070819
[...]
  0-1A  ->  1-1A    1.884169   15196.8   658.0   0.425362379   0.04418  -0.00072  -0.21019   0.00094
  0-1A  ->  2-1A    2.438730   19669.7   508.4   0.109483330   0.01472   0.12130  -0.00034   0.00222
  0-1A  ->  3-1A    3.425081   27625.1   362.0   0.000830544   0.00016  -0.01218   0.00025  -0.00291
  0-1A  ->  4-1A    3.486459   28120.2   355.6   0.870683274   0.16733  -0.40901   0.00179  -0.00637
  0-1A  ->  5-1A    3.689982   29761.7   336.0   0.387528110   0.07883   0.28072  -0.00071   0.00435
  0-1A  ->  6-1A    3.982177   32118.4   311.3   0.970902315   0.21313   0.00130   0.46165  -0.00215
  0-1A  ->  7-1A    4.114765   33187.8   301.3   0.000248057   0.00006   0.00747   0.00012  -0.00071
  0-1A  ->  8-1A    4.127000   33286.5   300.4   0.000291699   0.00007  -0.00313  -0.00247   0.00710
  0-1A  ->  9-1A    4.284791   34559.2   289.4   0.004737707   0.00112  -0.01363  -0.03055  -0.00048
  0-1A  -> 10-1A    4.515163   36417.3   274.6   0.000063944   0.00002   0.00074   0.00337  -0.00200
  0-1A  -> 11-1A    4.701614   37921.1   263.7   0.000696143   0.00018   0.00090  -0.00026   0.01340
  0-1A  -> 12-1A    4.725346   38112.5   262.4   0.000020728   0.00001  -0.00144   0.00032   0.00180
  0-1A  -> 13-1A    4.838162   39022.4   256.3   0.000748077   0.00020   0.00762  -0.00595  -0.01030
  0-1A  -> 14-1A    4.980718   40172.2   248.9   0.001141567   0.00031   0.00476  -0.00037  -0.01705
  0-1A  -> 15-1A    5.056699   40785.0   245.2   0.000030207   0.00001  -0.00172  -0.00158  -0.00172
  0-1A  -> 16-1A    5.083703   41002.8   243.9   0.001532569   0.00043  -0.00301   0.01987   0.00504
  0-1A  -> 17-1A    5.120971   41303.4   242.1   0.002295804   0.00065  -0.00043  -0.02477   0.00588
  0-1A  -> 18-1A    5.128386   41363.2   241.8   0.037448449   0.01059  -0.00008  -0.10289  -0.00070
  0-1A  -> 19-1A    5.262609   42445.8   235.6   0.000086472   0.00003   0.00248   0.00111  -0.00421
  0-1A  -> 20-1A    5.319938   42908.2   233.1   0.099275854   0.02911   0.00153   0.17062  -0.00094
  0-1A  -> 21-1A    5.404306   43588.7   229.4   0.000269158   0.00008   0.00076  -0.00156   0.00878
  0-1A  -> 22-1A    5.419580   43711.9   228.8   0.282204156   0.08431   0.00140   0.29035  -0.00075
  0-1A  -> 23-1A    5.473911   44150.1   226.5   0.000034829   0.00001  -0.00264   0.00175   0.00067
  0-1A  -> 24-1A    5.691267   45903.2   217.8   0.000011258   0.00000  -0.00081   0.00145   0.00087
  0-1A  -> 25-1A    5.710029   46054.5   217.1   0.000192054   0.00006  -0.00634   0.00214  -0.00396
  0-1A  -> 26-1A    5.728716   46205.2   216.4   0.000114939   0.00004  -0.00464   0.00297  -0.00244
  0-1A  -> 27-1A    5.769929   46537.6   214.9   0.003455320   0.00110   0.01434  -0.02989   0.00038
  0-1A  -> 28-1A    5.827393   47001.1   212.8   0.024480596   0.00786   0.08816  -0.00425   0.00855
  0-1A  -> 29-1A    5.845479   47147.0   212.1   0.015740011   0.00507  -0.07080  -0.00491   0.00597
  0-1A  -> 30-1A    5.997286   48371.4   206.7   0.000379715   0.00013  -0.00033   0.00248   0.01092

------------------------------------------------------------------------------------------
                     CD SPECTRUM VIA TRANSITION ELECTRIC DIPOLE MOMENTS    
------------------------------------------------------------------------------------------
     Transition      Energy     Energy  Wavelength    R        MX        MY        MZ   
                      (eV)      (cm-1)    (nm)   (1e40*cgs)   (au)      (au)      (au)  
------------------------------------------------------------------------------------------
  0-1A  ->  1-1A    1.884169   15196.8   658.0  -12.38895  -0.02618   0.00876  -0.00085
  0-1A  ->  2-1A    2.438730   19669.7   508.4   -6.33378  -0.00960  -0.02194  -0.01767
  0-1A  ->  3-1A    3.425081   27625.1   362.0   -1.61393  -0.00279   0.00193   0.16495
  0-1A  ->  4-1A    3.486459   28120.2   355.6  -41.54272   0.02785   0.05118  -0.00988
  0-1A  ->  5-1A    3.689982   29761.7   336.0  -32.17863  -0.03310  -0.06859  -0.00146
  0-1A  ->  6-1A    3.982177   32118.4   311.3    0.07082   0.07994  -0.00015   0.00519
  0-1A  ->  7-1A    4.114765   33187.8   301.3   -0.13376   0.00327   0.00560   0.10239
  0-1A  ->  8-1A    4.127000   33286.5   300.4   19.34327  -0.01615   0.00839   0.91480
  0-1A  ->  9-1A    4.284791   34559.2   289.4   25.05541  -0.00339  -0.27449   0.01318
  0-1A  -> 10-1A    4.515163   36417.3   274.6    0.01902   0.00135   0.00040  -0.00198
  0-1A  -> 11-1A    4.701614   37921.1   263.7   43.61946  -0.01987   0.00228   1.17762
  0-1A  -> 12-1A    4.725346   38112.5   262.4    0.57274  -0.00141   0.00222   0.10942
  0-1A  -> 13-1A    4.838162   39022.4   256.3    1.02276   0.00425   0.03029  -0.05822
  0-1A  -> 14-1A    4.980718   40172.2   248.9   -2.54865  -0.00133   0.00123   0.06404
  0-1A  -> 15-1A    5.056699   40785.0   245.2   -0.10410   0.00059   0.00341   0.02182
  0-1A  -> 16-1A    5.083703   41002.8   243.9   -3.16904   0.00727  -0.01448  -0.15664
  0-1A  -> 17-1A    5.120971   41303.4   242.1   -0.04105  -0.00741  -0.00124  -0.00833
  0-1A  -> 18-1A    5.128386   41363.2   241.8    1.06017  -0.02309  -0.00398  -0.01728
  0-1A  -> 19-1A    5.262609   42445.8   235.6   -0.28644   0.02552   0.00466   0.03522
  0-1A  -> 20-1A    5.319938   42908.2   233.1   -2.69509  -0.01055  -0.00642  -0.00066
  0-1A  -> 21-1A    5.404306   43588.7   229.4   -4.19205   0.00350   0.01103  -0.20198
  0-1A  -> 22-1A    5.419580   43711.9   228.8    8.30214   0.02177   0.01186  -0.00501
  0-1A  -> 23-1A    5.473911   44150.1   226.5   -0.10767  -0.00511  -0.02437  -0.01142
  0-1A  -> 24-1A    5.691267   45903.2   217.8    0.78722   0.01234   0.09600   0.05057
  0-1A  -> 25-1A    5.710029   46054.5   217.1    0.71524  -0.00957   0.04910  -0.02375
  0-1A  -> 26-1A    5.728716   46205.2   216.4   -0.22679  -0.01673  -0.07479   0.01819
  0-1A  -> 27-1A    5.769929   46537.6   214.9   -7.02755  -0.21270   0.00577  -0.00372
  0-1A  -> 28-1A    5.827393   47001.1   212.8    3.93188   0.02328   0.06497   0.00687
  0-1A  -> 29-1A    5.845479   47147.0   212.1   -1.96634   0.00685   0.09672   0.00509
  0-1A  -> 30-1A    5.997286   48371.4   206.7   -1.55992  -0.01875   0.00060  -0.06680

------------------------------------------------------------------------------------------
                     CD SPECTRUM VIA TRANSITION VELOCITY DIPOLE MOMENTS    
------------------------------------------------------------------------------------------
     Transition      Energy     Energy  Wavelength    R        MX        MY        MZ   
                      (eV)      (cm-1)    (nm)   (1e40*cgs)   (au)      (au)      (au)  
------------------------------------------------------------------------------------------
  0-1A  ->  1-1A    1.884169   15196.8   658.0  -12.40696  -0.02618   0.00876  -0.00085
  0-1A  ->  2-1A    2.438730   19669.7   508.4   -6.29566  -0.00960  -0.02194  -0.01767
  0-1A  ->  3-1A    3.425081   27625.1   362.0   -1.66900  -0.00279   0.00193   0.16495
  0-1A  ->  4-1A    3.486459   28120.2   355.6  -41.33811   0.02785   0.05118  -0.00988
  0-1A  ->  5-1A    3.689982   29761.7   336.0  -32.15900  -0.03310  -0.06859  -0.00146
  0-1A  ->  6-1A    3.982177   32118.4   311.3    0.07991   0.07994  -0.00015   0.00519
  0-1A  ->  7-1A    4.114765   33187.8   301.3   -0.14710   0.00327   0.00560   0.10239
  0-1A  ->  8-1A    4.127000   33286.5   300.4   20.29552  -0.01615   0.00839   0.91480
  0-1A  ->  9-1A    4.284791   34559.2   289.4   25.22341  -0.00339  -0.27449   0.01318
  0-1A  -> 10-1A    4.515163   36417.3   274.6    0.01789   0.00135   0.00040  -0.00198
  0-1A  -> 11-1A    4.701614   37921.1   263.7   43.00637  -0.01987   0.00228   1.17762
  0-1A  -> 12-1A    4.725346   38112.5   262.4    0.54155  -0.00141   0.00222   0.10942
  0-1A  -> 13-1A    4.838162   39022.4   256.3    1.19856   0.00425   0.03029  -0.05822
  0-1A  -> 14-1A    4.980718   40172.2   248.9   -2.82929  -0.00133   0.00123   0.06404
  0-1A  -> 15-1A    5.056699   40785.0   245.2   -0.11119   0.00059   0.00341   0.02182
  0-1A  -> 16-1A    5.083703   41002.8   243.9   -2.77349   0.00727  -0.01448  -0.15664
  0-1A  -> 17-1A    5.120971   41303.4   242.1   -0.03774  -0.00741  -0.00124  -0.00833
  0-1A  -> 18-1A    5.128386   41363.2   241.8    1.05833  -0.02309  -0.00398  -0.01728
  0-1A  -> 19-1A    5.262609   42445.8   235.6   -0.19419   0.02552   0.00466   0.03522
  0-1A  -> 20-1A    5.319938   42908.2   233.1   -2.67811  -0.01055  -0.00642  -0.00066
  0-1A  -> 21-1A    5.404306   43588.7   229.4   -4.24609   0.00350   0.01103  -0.20198
  0-1A  -> 22-1A    5.419580   43711.9   228.8    8.23167   0.02177   0.01186  -0.00501
  0-1A  -> 23-1A    5.473911   44150.1   226.5   -0.08631  -0.00511  -0.02437  -0.01142
  0-1A  -> 24-1A    5.691267   45903.2   217.8    0.39158   0.01234   0.09600   0.05057
  0-1A  -> 25-1A    5.710029   46054.5   217.1    0.58384  -0.00957   0.04910  -0.02375
  0-1A  -> 26-1A    5.728716   46205.2   216.4   -0.42269  -0.01673  -0.07479   0.01819
  0-1A  -> 27-1A    5.769929   46537.6   214.9   -7.16921  -0.21270   0.00577  -0.00372
  0-1A  -> 28-1A    5.827393   47001.1   212.8    4.03954   0.02328   0.06497   0.00687
  0-1A  -> 29-1A    5.845479   47147.0   212.1   -2.03989   0.00685   0.09672   0.00509
  0-1A  -> 30-1A    5.997286   48371.4   206.7   -1.54396  -0.01875   0.00060  -0.06680

Total run time:     9412.712 sec

           *** ORCA-CIS/TD-DFT FINISHED WITHOUT ERROR ***
-----------------------
CIS/TD-DFT TOTAL ENERGY
-----------------------

    E(SCF)  =  -1266.511760489 Eh
    DE(CIS) =      0.069241932 Eh (Root  1)
    ----------------------------- ---------
    E(tot)  =  -1266.442518557 Eh


Maximum memory used throughout the entire CIS-calculation: 2693.1 MB
=> NOW LEAVING ORCA_CIS

-------------------------   --------------------
FINAL SINGLE POINT ENERGY     -1266.442518557286
-------------------------   --------------------



           ************************************************************
           *        Program running with 4 parallel MPI-processes     *
           *              working on a common directory               *
           ************************************************************

------------------------------------------------------------------------------
                              ORCA PROPERTY CALCULATIONS
------------------------------------------------------------------------------

GBWName                                 ... tddft.gbw
Number of atoms                         ...     44
Number of basis functions               ...    915
Max core memory                         ...   3000 MB

Electric properties:
Dipole moment                           ... YES
Quadrupole moment                       ...  NO
Static polarizability (Dipole/Dipole)   ...  NO
Static polarizability (Dipole/Quad.)    ...  NO
Static polarizability (Quad./Quad.)     ...  NO
Static polarizability (Velocity)        ...  NO
Static hyperpolarizability              ...  NO

Atomic electric properties:
Dipole moment                           ...  NO
Quadrupole moment                       ...  NO
Static polarizability                   ...  NO

Choice of electric origin               ... Center of mass
Position of electric origin             ...    -0.040203    -0.009067     0.343195

General magnetic properties:
Magnetizability                         ...  NO

EPR properties:
g-Tensor (aka g-matrix)                 ...  NO
Zero-Field splitting spin-orbit         ...  NO
Zero-field splitting spin-spin          ...  NO
Hyperfine couplings                     ...  NO (   0 nuclei)
Quadrupole couplings                    ...  NO (   0 nuclei)
Contact density                         ...  NO (   0 nuclei)

NMR properties:
Chemical shifts                         ...  NO (   0 nuclei)
Spin-rotation constants                 ...  NO (   0 nuclei)
Spin-spin couplings                     ...  NO (   0 nuclei,    0 pairs)

Choice of magnetic origin               ... GIAO
Position of magnetic origin             ...     0.000000     0.000000     0.000000

Properties with geometric perturbations:
SCF Hessian                             ...  NO
IR spectrum                             ...  NO
VCD spectrum                            ...  NO
X-ray spectroscopy properties:
SCF XES/XAS/RIXS spectra                ...  NO

SCF SOC stabilization energy            ...  NO
Diagonal Born-Oppenheimer correction    ...  NO

-------------
DIPOLE MOMENT
-------------

Method             : SCF
Type of density    : Electron Density
Multiplicity       :   1
Irrep              :   0
Energy             : -1266.5117604891552219 Eh
Basis              : AO
                                X                 Y                 Z
Electronic contribution:     -0.247779095       0.161710339      -0.784246316
Nuclear contribution   :      0.871965853      -0.262371262       2.077979131
                        -----------------------------------------
Total Dipole Moment    :      0.624186758      -0.100660924       1.293732815
                        -----------------------------------------
Magnitude (a.u.)       :      1.439960529
Magnitude (Debye)      :      3.660088793



--------------------
Rotational spectrum 
--------------------
 
Rotational constants in cm-1:             0.008440             0.007806             0.004278 
Rotational constants in MHz :           253.032612           234.030468           128.263522 

Dipole components along the rotational axes: 
x,y,z [a.u.] :    -0.647285    -0.103596     1.282098 
x,y,z [Debye]:    -1.645268    -0.263319     3.258835 

 

Dipole moment calculation done in   0.3 sec 

Maximum memory used throughout the entire PROP-calculation: 100.1 MB

--------------------------------
SUGGESTED CITATIONS FOR THIS RUN
--------------------------------

Below you find a list of papers that are relevant to this ORCA run
We neither can nor want to force you to cite these papers, but we appreciate if you do
You receive ORCA, which is the product of decades of hard work by many enthusiastic individuals, for free
The only thing we kindly ask in return is that you cite our papers,
We deeply appreciate it, if you show your appreciation for ORCA by not just citing the generic ORCA reference.

Please note that relegating all ORCA citations to the supporting information does *not* help us.
SI sections are not indexed - citations you put there will not count into any citation statistics
But we need these citations in order to attract the funding resources that allow us to do what we are doing

Therefore, if you are a happy ORCA user, please consider citing a few of the papers listed below in the main body of your paper

In addition to the list printed below, the program has created the file tddft.bibtex that contains the list in bibtex format
You can import this file easily into all common literature databanks and citation aid programs

It goes without saying that in many instances, there are alternative algorithms to achieve similar
results as the ones you have gotten from ORCA. It is, of course, also the case that in some instances
ORCA just re-implements algorithms worked out by others. We are fully aware of that and we are also
fully appreciative of our colleagues work. Hence this citation list should not be read as indicating
that the listed papers, which are focused on our own work, are the only ones worth citing. It simply
meant to make it easier for users to cite ORCA specific papers. It is not a substitute for doing your
own literature research and citing the relevant literature in a scientifically appropriate manner.

List of essential papers. We consider these as the minimum necessary citations

  1. Neese, F.
     Software update: the ORCA program system, version 6.0
     WIRES Comput. Molec. Sci. 2025 15(1), e70019
     doi.org/10.1002/wcms.70019

List of papers to cite with high priority. The work reported in these papers was absolutely
necessary for this run to complete.
Our perspective: the developers of density functionals and basis sets usually get cited in chemistry papers
Good! But without the algorithms to do something with them, the functionals or basis sets would not do anything.
Hence, in our opinion, the algorithm design and method developments papers are equally worthy of getting cited

  1. Neese, F.; Olbrich, G.
     Efficient use of the resolution of the identity approximation in time-dependent density functional calculations with hybrid density functionals
     Chem. Phys. Lett. 2002 362 , 170-178
     doi.org/10.1016/s0009-2614(02)01053-9
  2. Neese, F.
     An improvement of the resolution of the identity approximation for the formation of the Coulomb matrix
     J. Comp. Chem. 2003 24(14), 1740-1747
     doi.org/10.1002/jcc.10318
  3. Neese, F.; Wennmohs, F.; Hansen, A.; Becker, U.
     Efficient, approximate and parallel Hartree-Fock and hybrid DFT calculations. A 'chain-of-spheres' algorithm for the Hartree-Fock exchange
     Chem. Phys. 2009 356(1-3), 98-109
     doi.org/10.1016/j.chemphys.2008.10.036
  4. Garcia-Rates, M.; Neese, F.
     Effect of the Solute Cavity on the Solvation Energy and its Derivatives within the Framework of the Gaussian Charge Scheme
     J. Comput. Chem. 2020 41 , 922-939
     doi.org/10.1002/jcc.26139
  5. Helmich-Paris, B.; de Souza, B.; Neese, F.; Izsák, R.
     An improved chain of spheres for exchange algorithm
     J. Chem. Phys. 2021 155(10), 104109
     doi.org/10.1063/5.0058766
  6. Neese, F.
     The SHARK Integral Generation and Digestion System
     J. Comp. Chem. 2022 44(3), 381
     doi.org/10.1002/jcc.26942

List of suggested additional citations. These are papers that are important in the 'surrounding' of 
of this run, or papers that preceded the highly important papers. If you like your results we are grateful for a citation.

  1. Izsak, R.; Neese, F.
     An overlap fitted chain of spheres exchange method
     J. Chem. Phys. 2011 135 , 144105
     doi.org/10.1063/1.3646921
  2. Izsak, R.; Hansen, A.; Neese, F.
     The resolution of identity and chain of spheres approximations for the LPNO-CCSD singles Fock term
     Molec. Phys. 2012 110 , 2413-2417
     doi.org/10.1080/00268976.2012.687466
  3. Neese, F.
     The ORCA program system
     WIRES Comput. Molec. Sci. 2012 2(1), 73-78
     doi.org/10.1002/wcms.81
  4. Izsak, R.; Neese, F.; Klopper, W.
     Robust fitting techniques in the chain of spheres approximation to the Fock exchange: The role of the complementary space
     J. Chem. Phys. 2013 139 , 
     doi.org/10.1063/1.4819264
  5. Neese, F.
     Software update: the ORCA program system, version 4.0
     WIRES Comput. Molec. Sci. 2018 8(1), 1-6
     doi.org/10.1002/wcms.1327
  6. Neese, F.; Wennmohs, F.; Becker, U.; Riplinger, C.
     The ORCA quantum chemistry program package
     J. Chem. Phys. 2020 152(22), 224108
     doi.org/10.1063/5.0004608
  7. Neese, F.
     Software update: The ORCA program system—Version 5.0
     WIRES Comput. Molec. Sci. 2022 12(1), e1606
     doi.org/10.1002/wcms.1606

List of optional additional citations

  1. Neese, F.
     Approximate second-order SCF convergence for spin unrestricted wavefunctions
     Chem. Phys. Lett. 2000 325(1-3), 93-98
     doi.org/10.1016/s0009-2614(00)00662-x

Timings for individual modules:

Sum of individual times          ...    10601.702 sec (= 176.695 min)
Startup calculation              ...       18.739 sec (=   0.312 min)   0.2 %
SCF iterations                   ...     1167.031 sec (=  19.451 min)  11.0 %
Property integrals               ...        1.076 sec (=   0.018 min)   0.0 %
Property calculations            ...        1.699 sec (=   0.028 min)   0.0 %
CIS module                       ...     9413.156 sec (= 156.886 min)  88.8 %
                             ****ORCA TERMINATED NORMALLY****
TOTAL RUN TIME: 0 days 2 hours 56 minutes 42 seconds 939 msec
