
                                 *****************
                                 * O   R   C   A *
                                 *****************

                                            #,                                       
                                            ###                                      
                                            ####                                     
                                            #####                                    
                                            ######                                   
                                           ########,                                 
                                     ,,################,,,,,                         
                               ,,#################################,,                 
                          ,,##########################################,,             
                       ,#########################################, ''#####,          
                    ,#############################################,,   '####,        
                  ,##################################################,,,,####,       
                ,###########''''           ''''###############################       
              ,#####''   ,,,,##########,,,,          '''####'''          '####       
            ,##' ,,,,###########################,,,                        '##       
           ' ,,###''''                  '''############,,,                           
         ,,##''                                '''############,,,,        ,,,,,,###''
      ,#''                                            '''#######################'''  
     '                                                          ''''####''''         
             ,#######,   #######,   ,#######,      ##                                
            ,#'     '#,  ##    ##  ,#'     '#,    #''#        ,####,    ,#,          
            ##       ##  ##   ,#'  ##            #'  '#       #'       ,# #          
            ##       ##  #######   ##           ,######,      #####,      #          
            '#,     ,#'  ##    ##  '#,     ,#' ,#      #,     #,   #      #          
             '#######'   ##     ##  '#######'  #'      '#     '####' #    #          



                #########################################################
                #                        -***-                          #
                #          Department of theory and spectroscopy        #
                #                                                       #
                #                      Frank Neese                      #
                #                                                       #
                #     Directorship, Architecture, Infrastructure        #
                #                    SHARK, DRIVERS                     #
                #        Core code/Algorithms in most modules           #
                #                                                       #
                #        Max Planck Institute fuer Kohlenforschung      #
                #                Kaiser Wilhelm Platz 1                 #
                #                 D-45470 Muelheim/Ruhr                 #
                #                      Germany                          #
                #                                                       #
                #                  All rights reserved                  #
                #                        -***-                          #
                #########################################################


                         Program Version 6.1.1  -  RELEASE   -
                                (GIT: $487d211c$)
                          ($2025-11-21 10:33:24 +0100$)


 With contributions from (in alphabetic order):
[Max-Planck-Institut fuer Kohlenforschung]                               
  Daniel Aravena         : Magnetic Suceptibility                        
  Michael Atanasov       : Ab Initio Ligand Field Theory (pilot matlab implementation)
  Alexander A. Auer      : GIAO ZORA, VPT2 properties, NMR spectrum      
  Ute Becker             : All parallelization in ORCA, NUMFREQ, NUMCALC 
  Giovanni Bistoni       : ED, misc. LED, open-shell LED, HFLD           
  Dmytro Bykov           : pre 5.0 version of the SCF Hessian            
  Marcos Casanova-Páez   : Triplet and SCS-CIS(D). UHF-(DLPNO)-IP/EA/STEOM-CCSD. UHF-CVS-IP/STEOM-CCSD   
  Vijay G. Chilkuri      : MRCI spin determinant printing, contributions to CSF-ICE 
  Pauline Colinet        : FMM embedding                                 
  Dipayan Datta          : RHF DLPNO-CCSD density                        
  Achintya Kumar Dutta   : EOM-CC, STEOM-CC                              
  Nicolas Foglia         : Exact transition moments, OPA infrastructure, MCD improvements    
  Dmitry Ganyushin       : Spin-Orbit,Spin-Spin,Magnetic field MRCI      
  Miquel Garcia-Rates    : C-PCM and meta-GGA Hessian, CCSD/C-PCM, Gaussian charge scheme 
  Tiago L. C. Gouveia    : GS-ROHF, GS-ROCIS                             
  Yang Guo               : DLPNO-NEVPT2, F12-NEVPT2, CIM, IAO-localization        
  Andreas Hansen         : Spin unrestricted coupled pair/coupled cluster methods 
  Ingolf Harden          : AUTO-CI MPn and infrastructure                
  Benjamin Helmich-Paris : MC-RPA, TRAH-(SCF,CASSCF), AVAS, COSX integrals, SCF dyn. polar., MC-PDFT, srDFT 
  Lee Huntington         : MR-EOM, pCC                                   
  Robert Izsak           : Overlap fitted RIJCOSX, COSX-SCS-MP3, EOM     
  Riya Kayal             : Wick's Theorem for AUTO-CI, AUTO-CI UHF-CCSDT 
  Emily Kempfer          : AUTO-CI RHF CISDT and CCSDT, approximate NEVPT4
  Christian Kollmar      : KDIIS, OOCD, Brueckner-CCSD(T), CCSD density, CASPT2, CASPT2-K, improved NEVPT2 
  Axel Koslowski         : Symmetry handling                             
  Simone Kossmann        : meta-GGA functionals, TD-DFT gradient, OOMP2, (MP2 Hessian; deprecated post 5.0) 
  Lucas Lang             : DCDCAS, Hyperfine gauge corrections, ICE-SOC+SSC
  Marvin Lechner         : AUTO-CI (C++ implementation), FIC-MRCC        
  Spencer Leger          : CASSCF response                               
  Dagmar Lenk            : GEPOL surface, SMD, ORCA-2-JSON               
  Dimitrios Liakos       : Extrapolation schemes; Compound Job, Property file
  Dimitrios Manganas     : Further ROCIS development; embedding schemes. LFT, Crystal Embedding 
  Dimitrios Pantazis     : SARC Basis sets                               
  Anastasios Papadopoulos: AUTO-CI, single reference methods and gradients 
  Taras Petrenko         : pre 6.0 DFT Hessian and TD-DFT gradient,  ECA, NRVS 
  Petra Pikulova         : Analytic Raman intensities                    
  Peter Pinski           : DLPNO-MP2, DLPNO-MP2 Gradient                 
  Shashank Vittal Rao    : ES-AILFT, MagRelax                            
  Christoph Reimann      : Effective Core Potentials                     
  Marius Retegan         : Local ZFS, SOC                                
  Christoph Riplinger    : Optimizer, TS searches, QM/MM, DLPNO-CCSD(T), (RO)-DLPNO pert. Triples 
  Michael Roemelt        : Original ROCIS implementation, recursive CI coupling coefficients
  Masaaki Saitow         : Open-shell DLPNO-CCSD energy and density      
  Barbara Sandhoefer     : DKH picture change effects                    
  Yorick L. A. Schmerwitz: GMF and freeze-and-release deltaSCF, NEB S-IDPP initial path                    
  Kantharuban Sivalingam : CASSCF convergence/infrastructure, NEVPT2, NEVPT3, NEVPT4(SD), FIC-MRCI and CEPA variants
  Bernardo de Souza      : ESD, SOC TD-DFT                               
  Georgi L. Stoychev     : AutoAux, RI-MP2 NMR, DLPNO-MP2 response, X2C  
  Van Anh Tran           : RI-MP2 g-tensors                              
  Willem Van den Heuvel  : Paramagnetic NMR                              
  Zikuan Wang            : NOTCH, Electric field optimization            
  Frank Wennmohs         : Technical directorship and infrastructure     
  Hang Xu                : AUTO-CI-Response properties                   
                                                                         
[FACCTs GmbH]                                                            
  Markus Bursch, Nicolas Foglia, Miquel Garcia-Rates, Ingolf Harden, Hagen Neugebauer, Anastasios Papadopoulos, 
  Christoph Riplinger, Bernardo de Souza, Georgi L. Stoychev                                                    
                                                                 
  APM, various basis sets, CI-OPT, improved COSX, DLPNO-Multilevel,           
  DOCKER, DRACO, updates on ESD, Fragmentator, GOAT, IRC, LR-CPCM, L-BFGS, MBIS, meta-GGA TD-DFT gradient, ML-optimized integration grids, 
  MM, NACMEs, nearIR, NEB, NEB-TS, NL-DFT gradient (VV10), 2- and 3-layer-ONIOM, interface openCOSMO-RS, QMMM,   
  Crystal-QMMM, RESP, rigid body optimization, SF, symmetry and pop. for TD-DFT, various functionals, SOLVATOR                                   
                                                                         
[Other institutions]                                                     
  V. Asgeirsson          : NEB                                           
  Christoph Bannwarth    : sTDA-DFT, sTD-DFT, PBEh-3c, B97-3c, D3        
  Giovanni Bistoni       : ETS/NOCV, ADLD/ADEX, COVALED                  
  Martin Brehm           : Molecular dynamics                            
  Ronald Cardenas        : ETS/NOCV                                      
  Martina Colucci        : COVALED                                       
  Sebastian Ehlert       : rSCAN, r2SCAN, r2SCAN-3c, D4, dhf basis sets  
  Marvin Friede          : D4 for Fr, Ra, Ac-Lr                          
  Lars Goerigk           : TD-DFT with DH, B97 family of functionals     
  Stefan Grimme          : VdW corrections, initial TS optimization, DFT functionals, gCP, sTDA/sTD-DF 
  Waldemar Hujo          : DFT-NL                                        
  H. Jonsson             : NEB                                           
  Holger Kruse           : gCP                                           
  Marcel Mueller         : wB97X-3c, vDZP basis set                      
  Hagen Neugebauer       : wr2SCAN, Native XTB                           
  Gianluca Regni         : ADLD/ADEX                                     
  Tobias Risthaus        : pre 6.0 range-separated hybrid DFT and stability analysis
  Lukas Wittmann         : regularized MP2, r2SCAN double-hybrids, wr2SCAN        
                                                                         
We gratefully acknowledge several colleagues who have allowed us to      
interface, adapt or use parts of their codes:                            
  Ed Valeev, F. Pavosevic, A. Kumar             : LibInt (2-el integral package), F12 methods 
  Garnet Chan, S. Sharma, J. Yang, R. Olivares  : DMRG                   
  Ulf Ekstrom                                   : XCFun DFT Library      
  Mihaly Kallay                                 : mrcc  (arbitrary order and MRCC methods)
  Frank Weinhold                                : gennbo (NPA and NBO analysis)           
  Simon Mueller                                 : openCOSMO-RS                            
  Christopher J. Cramer and Donald G. Truhlar   : smd solvation model                     
  S Lehtola, MJT Oliveira, MAL Marques          : LibXC Library                           
  Liviu Ungur et al                             : ANISO software                          


 Your calculation uses the libint2 library for the computation of 2-el integrals
 For citations please refer to: http://libint.valeyev.net

 Your ORCA version has been built with support for libXC version: 7.0.0
 For citations please refer to: https://libxc.gitlab.io

 This ORCA versions uses:
   CBLAS   interface :  Fast vector & matrix operations
   LAPACKE interface :  Fast linear algebra routines
   SCALAPACK package :  Parallel linear algebra routines
   Shared memory     :  Shared parallel matrices
   BLAS/LAPACK       :  OpenBLAS 0.3.29  USE64BITINT DYNAMIC_ARCH NO_AFFINITY Haswell SINGLE_THREADED
        Core in use  :  Haswell
   Copyright (c) 2011-2014, The OpenBLAS Project


  ***********************************
  * Starting time: Tue Jul  7 19:47:10 2026
  * Host name:     steezy
  * Process ID:    1593012
  * Working dir.:  /home/jannes/chlorophyll-ladder/008-mgbacteriochlorin-axial-ligation/mgbacteriochlorin_h2o/03_tddft_ch2cl2/m062x
  ***********************************

NOTE: MaxCore=3000 MB was set to SCF,MP2,MDCI,CIPSI,MRCI,RASCI and CIS
      => If you want to overwrite this, your respective input block should be placed after the MaxCore statement


***************************************
The coordinates will be read from file: /home/jannes/chlorophyll-ladder/008-mgbacteriochlorin-axial-ligation/mgbacteriochlorin_h2o/01_opt/mgbacteriochlorin_h2o_opt_b3lypd4_tzvp.xyz
***************************************


XCFun DFT library Copyright 2009-2010 Ulf Ekstrom and contributors.
See http://admol.org/xcfun for more information.
This is free software; see the source code for copying conditions.
There is ABSOLUTELY NO WARRANTY; not even for MERCHANTABILITY or FITNESS FOR A PARTICULAR PURPOSE.
For details see the documentation.
Scientific users of this library should cite U. Ekstrom, L. Visscher, R. Bast, A. J. Thorvaldsen and K. Ruud;
J.Chem.Theor.Comp. 2010, DOI: 10.1021/ct100117s
XCFun Version 0.99 

================================================================================

----- Orbital basis set information -----
Your calculation utilizes the basis: def2-TZVP
   F. Weigend and R. Ahlrichs, Phys. Chem. Chem. Phys. 7, 3297 (2005).

----- AuxJ basis set information -----
Your calculation utilizes the auxiliary basis: def2/J
   H-Rn: F. Weigend, Phys. Chem. Chem. Phys. 8, 1057 (2006).
   Fr-Lr: K. Eichkorn, F. Weigend, O. Treutler, R. Ahlrichs; Theor. Chem. Acc. 97, 119 (1997).

================================================================================
                                        WARNINGS
                       Please study these warnings very carefully!
================================================================================

WARNING: Functional chosen is sensitive to the integration grid.
         DEFGRID3 seems to be a minimum grid for robust results!

WARNING: CIS/ROCIS methods need fully converged wavefunctions
  ===> : Setting SCFConvForced true
         You can overwrite this default with %scf ConvForced false 


================================================================================
                                       INPUT FILE
================================================================================
NAME = tddft.inp
|  1> %pal nprocs 4 end
|  2> %maxcore 3000
|  3> ! M062X def2-TZVP def2/J RIJCOSX DefGrid3 TightSCF CPCM(CH2Cl2)
|  4> %tddft
|  5>   nroots 30
|  6>   tda false
|  7>   triplets false
|  8> end
|  9> * xyzfile 0 1 /home/jannes/chlorophyll-ladder/008-mgbacteriochlorin-axial-ligation/mgbacteriochlorin_h2o/01_opt/mgbacteriochlorin_h2o_opt_b3lypd4_tzvp.xyz
| 10> 
| 11>                          ****END OF INPUT****
================================================================================

                       ****************************
                       * Single Point Calculation *
                       ****************************

---------------------------------
CARTESIAN COORDINATES (ANGSTROEM)
---------------------------------
  N     -2.156179    0.006114    0.036878
  N      2.102580   -0.004526    0.102992
  N     -0.032041   -2.040000    0.093616
  N     -0.018741    2.039836    0.083219
  C     -4.393036   -0.746615   -0.166870
  C      4.344044   -0.771023    0.178652
  C     -4.396683    0.774170    0.045307
  C      4.343804    0.743748   -0.070389
  C     -2.923497   -1.105288   -0.039037
  C      2.866903   -1.121763    0.137973
  C     -2.919147    1.121999    0.041477
  C      2.872913    1.105503    0.034517
  C     -1.133006   -2.850018    0.024587
  C      1.065546   -2.857221    0.116587
  C     -1.117205    2.855485    0.060628
  C      1.082524    2.850275    0.041163
  C     -2.460552   -2.404500   -0.034933
  C      2.397316   -2.418293    0.158356
  C     -2.448219    2.419005    0.059809
  C      2.411636    2.405893    0.022346
  C     -0.719897   -4.221529    0.011968
  C      0.646521   -4.226206    0.072013
  C     -0.697606    4.225313    0.015128
  C      0.669055    4.222145    0.001449
  H     -4.759027   -1.019902   -1.160331
  H     -5.005958   -1.284365    0.557426
  H      4.761766   -1.022683    1.157974
  H      4.915452   -1.329919   -0.562975
  H     -4.942672    1.315486   -0.728128
  H     -4.842336    1.051574    1.004576
  H      4.954192    1.300480    0.641562
  H      4.714943    0.989813   -1.069247
  H     -3.213681   -3.181014   -0.098020
  H      3.148300   -3.199118    0.182678
  H     -3.198630    3.200610    0.053346
  H      3.166310    3.181733   -0.029250
  H     -1.384098   -5.070165   -0.043494
  H      1.307513   -5.079195    0.074080
  H     -1.359495    5.077053   -0.013993
  H      1.334322    5.070706   -0.041147
  Mg    -0.040363    0.003360    0.290590
  O      0.028812   -0.090701    2.428612
  H      0.570655    0.585984    2.851620
  H      0.372811   -0.949552    2.705244

----------------------------
CARTESIAN COORDINATES (A.U.)
----------------------------
  NO LB      ZA    FRAG     MASS         X           Y           Z
   0 N     7.0000    0    14.007   -4.074588    0.011554    0.069689
   1 N     7.0000    0    14.007    3.973300   -0.008554    0.194628
   2 N     7.0000    0    14.007   -0.060548   -3.855042    0.176908
   3 N     7.0000    0    14.007   -0.035416    3.854732    0.157261
   4 C     6.0000    0    12.011   -8.301635   -1.410897   -0.315338
   5 C     6.0000    0    12.011    8.209054   -1.457022    0.337604
   6 C     6.0000    0    12.011   -8.308527    1.462969    0.085618
   7 C     6.0000    0    12.011    8.208601    1.405479   -0.133016
   8 C     6.0000    0    12.011   -5.524610   -2.088692   -0.073769
   9 C     6.0000    0    12.011    5.417661   -2.119826    0.260732
  10 C     6.0000    0    12.011   -5.516389    2.120272    0.078381
  11 C     6.0000    0    12.011    5.429018    2.089098    0.065227
  12 C     6.0000    0    12.011   -2.141070   -5.385753    0.046463
  13 C     6.0000    0    12.011    2.013591   -5.399366    0.220317
  14 C     6.0000    0    12.011   -2.111211    5.396084    0.114570
  15 C     6.0000    0    12.011    2.045674    5.386240    0.077788
  16 C     6.0000    0    12.011   -4.649769   -4.543847   -0.066014
  17 C     6.0000    0    12.011    4.530270   -4.569911    0.299249
  18 C     6.0000    0    12.011   -4.626464    4.571257    0.113022
  19 C     6.0000    0    12.011    4.557331    4.546479    0.042228
  20 C     6.0000    0    12.011   -1.360407   -7.977534    0.022616
  21 C     6.0000    0    12.011    1.221748   -7.986372    0.136085
  22 C     6.0000    0    12.011   -1.318284    7.984684    0.028587
  23 C     6.0000    0    12.011    1.264331    7.978698    0.002737
  24 H     1.0000    0     1.008   -8.993258   -1.927336   -2.192707
  25 H     1.0000    0     1.008   -9.459889   -2.427098    1.053383
  26 H     1.0000    0     1.008    8.998434   -1.932590    2.188254
  27 H     1.0000    0     1.008    9.288858   -2.513182   -1.063869
  28 H     1.0000    0     1.008   -9.340296    2.485908   -1.375963
  29 H     1.0000    0     1.008   -9.150688    1.987186    1.898373
  30 H     1.0000    0     1.008    9.362067    2.457550    1.212376
  31 H     1.0000    0     1.008    8.909951    1.870475   -2.020583
  32 H     1.0000    0     1.008   -6.072977   -6.011245   -0.185232
  33 H     1.0000    0     1.008    5.949425   -6.045457    0.345212
  34 H     1.0000    0     1.008   -6.044536    6.048277    0.100809
  35 H     1.0000    0     1.008    5.983459    6.012604   -0.055274
  36 H     1.0000    0     1.008   -2.615566   -9.581222   -0.082191
  37 H     1.0000    0     1.008    2.470842   -9.598288    0.139991
  38 H     1.0000    0     1.008   -2.569074    9.594239   -0.026442
  39 H     1.0000    0     1.008    2.521504    9.582246   -0.077757
  40 Mg   12.0000    0    24.305   -0.076275    0.006349    0.549136
  41 O     8.0000    0    15.999    0.054446   -0.171401    4.589411
  42 H     1.0000    0     1.008    1.078383    1.107349    5.388782
  43 H     1.0000    0     1.008    0.704511   -1.794393    5.112171

--------------------------------
INTERNAL COORDINATES (ANGSTROEM)
--------------------------------
 N      0   0   0     0.000000000000     0.00000000     0.00000000
 N      1   0   0     4.259285829235     0.00000000     0.00000000
 N      2   1   0     2.949550369100    43.78457817     0.00000000
 N      2   1   3     2.946152376679    43.79838596   181.03669561
 C      1   2   3     2.368890537971   160.85438094   346.76925813
 C      2   1   3     2.370106324845   161.24635194   357.59335046
 C      5   1   2     1.535518542595    71.07386358   184.88469291
 C      6   2   1     1.535106411509    71.06808885   173.37883935
 C      1   2   3     1.352684496835   124.47205820   356.04317936
 C      2   1   3     1.354116544231   124.52989936   359.47985145
 C      1   2   3     1.351791916111   124.49621974   178.48738058
 C      2   1   3     1.352873575595   124.50645671   176.53011320
 C      3   2   1     1.368582006516   172.22153724    19.35498761
 C      3   2   1     1.368603548823    80.30628569   179.84920352
 C      4   2   1     1.368362098294   172.63267473   356.47709650
 C      4   2   1     1.367978468433    80.30841674   182.73698194
 C      9   1   2     1.379234208357   125.68919730     3.65507770
 C     10   2   1     1.379099740346   125.72217239   359.96022644
 C     11   1   2     1.379975901185   125.68221746     0.41613129
 C     12   2   1     1.379832763259   125.68670198     4.54099452
 C     13   3  14     1.432432135038   109.58081178     0.37123379
 C     21  13   3     1.367744202265   106.91809471   359.89479433
 C     15   4  16     1.433374681345   109.58339486   359.46208186
 C     23  15   4     1.366732810082   106.90721094     0.40366842
 H      5   1   2     1.093435256433   118.26984707   290.10139938
 H      5   1   2     1.090620064460   129.06674261    79.82521641
 H      6   2   1     1.094027077664   117.64966573   278.72183082
 H      6   2   1     1.090358882379   129.76699462    68.39427391
 H      7   5   1     1.090563856191   113.25301698   125.44994526
 H      7   5   1     1.093506087998   111.92751164   246.50090329
 H      8   6   2     1.090595237110   113.43627246   126.32484931
 H      8   6   2     1.093621602711   111.72423857   247.29927140
 H     17   9   1     1.083585621267   116.20429390   179.71961492
 H     18  10   2     1.083631421493   116.21724037   179.80230125
 H     19  11   1     1.083542978229   116.20300698   179.55103495
 H     20  12   2     1.083569967529   116.25523453   179.58467236
 H     21  13   3     1.079083581233   125.16490024   180.35946823
 H     22  21  13     1.079122759318   127.93158749   180.52927258
 H     23  15   4     1.079076840007   125.14351488   179.74624991
 H     24  23  15     1.079097217377   127.95509224   179.30511111
 Mg     4   2   1     2.047122040207    46.89198746     8.49657532
 O     41   4   2     2.141207087278    98.30876720    93.03965604
 H     42  41   4     0.964590073126   115.16428813   323.59763969
 H     42  41   4     0.965652962433   109.67138309   202.41045368

---------------------------
INTERNAL COORDINATES (A.U.)
---------------------------
 N      0   0   0     0.000000000000     0.00000000     0.00000000
 N      1   0   0     8.048883743346     0.00000000     0.00000000
 N      2   1   0     5.573842415805    43.78457817     0.00000000
 N      2   1   3     5.567421140724    43.79838596   181.03669561
 C      1   2   3     4.476554358002   160.85438094   346.76925813
 C      2   1   3     4.478851862231   161.24635194   357.59335046
 C      5   1   2     2.901709519062    71.07386358   184.88469291
 C      6   2   1     2.900930704179    71.06808885   173.37883935
 C      1   2   3     2.556203244620   124.47205820   356.04317936
 C      2   1   3     2.558909422008   124.52989936   359.47985145
 C      1   2   3     2.554516511499   124.49621974   178.48738058
 C      2   1   3     2.556560551694   124.50645671   176.53011320
 C      3   2   1     2.586245184128   172.22153724    19.35498761
 C      3   2   1     2.586285893188    80.30628569   179.84920352
 C      4   2   1     2.585829617813   172.63267473   356.47709650
 C      4   2   1     2.585104662439    80.30841674   182.73698194
 C      9   1   2     2.606374928330   125.68919730     3.65507770
 C     10   2   1     2.606120820617   125.72217239   359.96022644
 C     11   1   2     2.607776524652   125.68221746     0.41613129
 C     12   2   1     2.607506033171   125.68670198     4.54099452
 C     13   3  14     2.706904440650   109.58081178     0.37123379
 C     21  13   3     2.584661963539   106.91809471   359.89479433
 C     15   4  16     2.708685595039   109.58339486   359.46208186
 C     23  15   4     2.582750709299   106.90721094     0.40366842
 H      5   1   2     2.066293179833   118.26984707   290.10139938
 H      5   1   2     2.060973237989   129.06674261    79.82521641
 H      6   2   1     2.067411559879   117.64966573   278.72183082
 H      6   2   1     2.060479675386   129.76699462    68.39427391
 H      7   5   1     2.060867019754   113.25301698   125.44994526
 H      7   5   1     2.066427032092   111.92751164   246.50090329
 H      8   6   2     2.060926321097   113.43627246   126.32484931
 H      8   6   2     2.066645323265   111.72423857   247.29927140
 H     17   9   1     2.047680066850   116.20429390   179.71961492
 H     18  10   2     2.047766616733   116.21724037   179.80230125
 H     19  11   1     2.047599483185   116.20300698   179.55103495
 H     20  12   2     2.047650485571   116.25523453   179.58467236
 H     21  13   3     2.039172444141   125.16490024   180.35946823
 H     22  21  13     2.039246479993   127.93158749   180.52927258
 H     23  15   4     2.039159705070   125.14351488   179.74624991
 H     24  23  15     2.039198212719   127.95509224   179.30511111
 Mg     4   2   1     3.868500018706    46.89198746     8.49657532
 O     41   4   2     4.046294990966    98.30876720    93.03965604
 H     42  41   4     1.822811069707   115.16428813   323.59763969
 H     42  41   4     1.824819639409   109.67138309   202.41045368

---------------------
BASIS SET INFORMATION
---------------------
There are 5 groups of distinct atoms

 Group   1 Type N   : 11s6p2d1f contracted to 5s3p2d1f pattern {62111/411/11/1}
 Group   2 Type C   : 11s6p2d1f contracted to 5s3p2d1f pattern {62111/411/11/1}
 Group   3 Type H   : 5s1p contracted to 3s1p pattern {311/1}
 Group   4 Type Mg  : 14s8p3d contracted to 5s4p3d pattern {73211/5111/111}
 Group   5 Type O   : 11s6p2d1f contracted to 5s3p2d1f pattern {62111/411/11/1}

Atom   0N    basis set group =>   1
Atom   1N    basis set group =>   1
Atom   2N    basis set group =>   1
Atom   3N    basis set group =>   1
Atom   4C    basis set group =>   2
Atom   5C    basis set group =>   2
Atom   6C    basis set group =>   2
Atom   7C    basis set group =>   2
Atom   8C    basis set group =>   2
Atom   9C    basis set group =>   2
Atom  10C    basis set group =>   2
Atom  11C    basis set group =>   2
Atom  12C    basis set group =>   2
Atom  13C    basis set group =>   2
Atom  14C    basis set group =>   2
Atom  15C    basis set group =>   2
Atom  16C    basis set group =>   2
Atom  17C    basis set group =>   2
Atom  18C    basis set group =>   2
Atom  19C    basis set group =>   2
Atom  20C    basis set group =>   2
Atom  21C    basis set group =>   2
Atom  22C    basis set group =>   2
Atom  23C    basis set group =>   2
Atom  24H    basis set group =>   3
Atom  25H    basis set group =>   3
Atom  26H    basis set group =>   3
Atom  27H    basis set group =>   3
Atom  28H    basis set group =>   3
Atom  29H    basis set group =>   3
Atom  30H    basis set group =>   3
Atom  31H    basis set group =>   3
Atom  32H    basis set group =>   3
Atom  33H    basis set group =>   3
Atom  34H    basis set group =>   3
Atom  35H    basis set group =>   3
Atom  36H    basis set group =>   3
Atom  37H    basis set group =>   3
Atom  38H    basis set group =>   3
Atom  39H    basis set group =>   3
Atom  40Mg   basis set group =>   4
Atom  41O    basis set group =>   5
Atom  42H    basis set group =>   3
Atom  43H    basis set group =>   3
---------------------------------
AUXILIARY/J BASIS SET INFORMATION
---------------------------------
There are 5 groups of distinct atoms

 Group   1 Type N   : 12s5p4d2f1g contracted to 6s4p3d1f1g pattern {711111/2111/211/2/1}
 Group   2 Type C   : 12s5p4d2f1g contracted to 6s4p3d1f1g pattern {711111/2111/211/2/1}
 Group   3 Type H   : 5s2p1d contracted to 3s1p1d pattern {311/2/1}
 Group   4 Type Mg  : 14s5p5d2f1g contracted to 8s4p4d1f1g pattern {71111111/2111/2111/2/1}
 Group   5 Type O   : 12s5p4d2f1g contracted to 6s4p3d1f1g pattern {711111/2111/211/2/1}

Atom   0N    basis set group =>   1
Atom   1N    basis set group =>   1
Atom   2N    basis set group =>   1
Atom   3N    basis set group =>   1
Atom   4C    basis set group =>   2
Atom   5C    basis set group =>   2
Atom   6C    basis set group =>   2
Atom   7C    basis set group =>   2
Atom   8C    basis set group =>   2
Atom   9C    basis set group =>   2
Atom  10C    basis set group =>   2
Atom  11C    basis set group =>   2
Atom  12C    basis set group =>   2
Atom  13C    basis set group =>   2
Atom  14C    basis set group =>   2
Atom  15C    basis set group =>   2
Atom  16C    basis set group =>   2
Atom  17C    basis set group =>   2
Atom  18C    basis set group =>   2
Atom  19C    basis set group =>   2
Atom  20C    basis set group =>   2
Atom  21C    basis set group =>   2
Atom  22C    basis set group =>   2
Atom  23C    basis set group =>   2
Atom  24H    basis set group =>   3
Atom  25H    basis set group =>   3
Atom  26H    basis set group =>   3
Atom  27H    basis set group =>   3
Atom  28H    basis set group =>   3
Atom  29H    basis set group =>   3
Atom  30H    basis set group =>   3
Atom  31H    basis set group =>   3
Atom  32H    basis set group =>   3
Atom  33H    basis set group =>   3
Atom  34H    basis set group =>   3
Atom  35H    basis set group =>   3
Atom  36H    basis set group =>   3
Atom  37H    basis set group =>   3
Atom  38H    basis set group =>   3
Atom  39H    basis set group =>   3
Atom  40Mg   basis set group =>   4
Atom  41O    basis set group =>   5
Atom  42H    basis set group =>   3
Atom  43H    basis set group =>   3


           ************************************************************
           *        Program running with 4 parallel MPI-processes     *
           *              working on a common directory               *
           ************************************************************
------------------------------------------------------------------------------
                             ORCA STARTUP CALCULATIONS
                           -- RI-GTO INTEGRALS CHOSEN --
------------------------------------------------------------------------------
------------------------------------------------------------------------------
                   ___                                                        
                  /   \      - P O W E R E D   B Y -                         
                 /     \                                                     
                 |  |  |   _    _      __       _____    __    __             
                 |  |  |  | |  | |    /  \     |  _  \  |  |  /  |          
                  \  \/   | |  | |   /    \    | | | |  |  | /  /          
                 / \  \   | |__| |  /  /\  \   | |_| |  |  |/  /          
                |  |  |   |  __  | /  /__\  \  |    /   |      \           
                |  |  |   | |  | | |   __   |  |    \   |  |\   \          
                \     /   | |  | | |  |  |  |  | |\  \  |  | \   \       
                 \___/    |_|  |_| |__|  |__|  |_| \__\ |__|  \__/        
                                                                              
                      - O R C A' S   B I G   F R I E N D -                    
                                      &                                       
                       - I N T E G R A L  F E E D E R -                       
                                                                              
 v1 FN, 2020, v2 2021, v3 2022-2024                                           
------------------------------------------------------------------------------


----------------------
SHARK INTEGRAL PACKAGE
----------------------

Number of atoms                             ...     44
Number of basis functions                   ...    915
Number of shells                            ...    359
Maximum angular momentum                    ...      3
Integral batch strategy                     ... SHARK/LIBINT Hybrid
RI-J (if used) integral strategy            ... SPLIT-RIJ (Revised 2003 algorithm where possible)
Printlevel                                  ...      1
Contraction scheme used                     ... SEGMENTED contraction
Prescreening option                         ... SCHWARTZ
   Thresh                                   ... 2.500e-11
   Tcut                                     ... 2.500e-12
   Tpresel                                  ... 2.500e-12 
Coulomb Range Separation                    ... NOT USED
Exchange Range Separation                   ... NOT USED
Multipole approximations                    ... NOT USED
Finite Nucleus Model                        ... NOT USED
CABS basis                                  ... NOT available
Auxiliary Coulomb fitting basis             ... AVAILABLE
   # of basis functions in Aux-J            ...   1479
   # of shells in Aux-J                     ...    483
   Maximum angular momentum in Aux-J        ...      4
Auxiliary J/K fitting basis                 ... NOT available
Auxiliary Correlation fitting basis         ... NOT available
Auxiliary 'external' fitting basis          ... NOT available

Checking pre-screening integrals            ... done (  0.0 sec) Dimension = 359
   => SHARK Basis and OBASIS are compatible. Storing Pre-screening
Shell pair information
Shell pair cut-off parameter TPreSel        ...   2.5e-12
Total number of shell pairs                 ...     64620
Shell pairs after pre-screening             ...     45394
Total number of primitive shell pairs       ...    201300
Primitive shell pairs kept                  ...     92130
          la=0 lb=0:  11348 shell pairs
          la=1 lb=0:  13107 shell pairs
          la=1 lb=1:   3774 shell pairs
          la=2 lb=0:   6618 shell pairs
          la=2 lb=1:   3900 shell pairs
          la=2 lb=2:   1045 shell pairs
          la=3 lb=0:   2836 shell pairs
          la=3 lb=1:   1724 shell pairs
          la=3 lb=2:    855 shell pairs
          la=3 lb=3:    187 shell pairs

Checking whether 4 symmetric matrices of dimension 915 fit in memory
:Max Core in MB      =   3000.00
 MB in use           =     58.25
 MB left             =   2941.75
 MB needed           =     12.79
 Data fit in memory  = YES
Calculating RI/J V-Matrix + Cholesky decomp.... done (  0.2 sec)
Calculating Nuclear repulsion               ... done (  0.0 sec) ENN=   2431.746330796860 Eh

Diagonalization of the overlap matrix:
Smallest eigenvalue                        ... 1.028e-05
Time for diagonalization                   ...    0.241 sec
Threshold for overlap eigenvalues          ... 1.000e-07
Number of eigenvalues below threshold      ... 0
Time for construction of square roots      ...    0.136 sec
Total time needed                          ...    0.387 sec

-------------------
DFT GRID GENERATION
-------------------

General Integration Accuracy     IntAcc      ... 4.959
Radial Grid Type                 RadialGrid  ... OptM3 with GC (2021)
Angular Grid (max. ang.)         AngularGrid ... 6 (Lebedev-590)
Angular grid pruning method      GridPruning ... 4 (adaptive)
Weight generation scheme         WeightScheme... mBecke (2022)
Basis function cutoff            BFCut       ... 1.0000e-11
Integration weight cutoff        WCut        ... 1.0000e-14
Partially contracted basis set               ... off
Rotationally invariant grid construction     ... off
Angular grids for H and He will be reduced by one unit

Total number of grid points                  ...   520431
Total number of batches                      ...     8155
Average number of points per batch           ...       63
Average number of grid points per atom       ...    11828

--------------------
COSX GRID GENERATION
--------------------

GRIDX 1
-------
General Integration Accuracy     IntAcc      ... 4.020
Radial Grid Type                 RadialGrid  ... OptM3 with GC (2021)
Angular Grid (max. ang.)         AngularGrid ... 2 (Lebedev-110)
Angular grid pruning method      GridPruning ... 4 (adaptive)
Weight generation scheme         WeightScheme... mBecke (2022)
Basis function cutoff            BFCut       ... 1.0000e-11
Integration weight cutoff        WCut        ... 1.0000e-14
Partially contracted basis set               ... on
Rotationally invariant grid construction     ... off
Angular grids for H and He will be reduced by one unit

Total number of grid points                  ...    58501
Total number of batches                      ...      479
Average number of points per batch           ...      122
Average number of grid points per atom       ...     1330
UseSFitting                                  ... on

GRIDX 2
-------
General Integration Accuracy     IntAcc      ... 4.338
Radial Grid Type                 RadialGrid  ... OptM3 with GC (2021)
Angular Grid (max. ang.)         AngularGrid ... 3 (Lebedev-194)
Angular grid pruning method      GridPruning ... 4 (adaptive)
Weight generation scheme         WeightScheme... mBecke (2022)
Basis function cutoff            BFCut       ... 1.0000e-11
Integration weight cutoff        WCut        ... 1.0000e-14
Partially contracted basis set               ... on
Rotationally invariant grid construction     ... off
Angular grids for H and He will be reduced by one unit

Total number of grid points                  ...   128370
Total number of batches                      ...     1025
Average number of points per batch           ...      125
Average number of grid points per atom       ...     2918
UseSFitting                                  ... on

GRIDX 3
-------
General Integration Accuracy     IntAcc      ... 4.871
Radial Grid Type                 RadialGrid  ... OptM3 with GC (2021)
Angular Grid (max. ang.)         AngularGrid ... 4 (Lebedev-302)
Angular grid pruning method      GridPruning ... 4 (adaptive)
Weight generation scheme         WeightScheme... mBecke (2022)
Basis function cutoff            BFCut       ... 1.0000e-11
Integration weight cutoff        WCut        ... 1.0000e-14
Partially contracted basis set               ... on
Rotationally invariant grid construction     ... off
Angular grids for H and He will be reduced by one unit

Total number of grid points                  ...   238296
Total number of batches                      ...     1884
Average number of points per batch           ...      126
Average number of grid points per atom       ...     5416
UseSFitting                                  ... on
Grids setup in  16.9 sec
Initializing property integral containers    ... done (  0.0 sec)

SHARK setup successfully completed in  18.5 seconds

Maximum memory used throughout the entire STARTUP-calculation: 172.9 MB


           ************************************************************
           *        Program running with 4 parallel MPI-processes     *
           *              working on a common directory               *
           ************************************************************
-------------------------------------------------------------------------------
                                 ORCA GUESS
                   Start orbitals & Density for SCF / CASSCF
-------------------------------------------------------------------------------

------------
SCF SETTINGS
------------
Hamiltonian:
 Density Functional     Method          .... DFT(GTOs)
 Exchange Functional    Exchange        .... M062X
 Correlation Functional Correlation     .... M062X
 Gradients option       PostSCFGGA      .... off
 Hybrid DFT is turned on
   Fraction HF Exchange ScalHFX         ....  0.540000
   Scaling of DF-GGA-X  ScalDFX         ....  0.460000
   Scaling of DF-GGA-C  ScalDFC         ....  1.000000
   Scaling of DF-LDA-C  ScalLDAC        ....  1.000000
   Perturbative correction              ....  0.000000
 RI-approximation to the Coulomb term is turned on
   Number of AuxJ basis functions       .... 1479
   RIJ-COSX (HFX calculated with COS-X)).... on


General Settings:
 Integral files         IntName         .... tddft
 Hartree-Fock type      HFTyp           .... RHF
 Total Charge           Charge          ....    0
 Multiplicity           Mult            ....    1
 Number of Electrons    NEL             ....  186
 Basis Dimension        Dim             ....  915
 Nuclear Repulsion      ENuc            ....   2431.7463307969 Eh

Convergence Acceleration:
 AO-DIIS                CNVDIIS         .... on
   Start iteration      DIISMaxIt       ....    12
   Startup error        DIISStart       ....  0.200000
   # of expansion vecs  DIISMaxEq       ....     5
   Bias factor          DIISBfac        ....   1.050
   Max. coefficient     DIISMaxC        ....  10.000
 MO-DIIS                CNVKDIIS        .... off
 Trust-Rad. Augm. Hess. CNVTRAH         .... auto
   Auto Start mean grad. ratio tolernc. ....  1.125000
   Auto Start start iteration           ....    50
   Auto Start num. interpolation iter.  ....    10
   Max. Number of Micro iterations      ....    24
   Max. Number of Macro iterations      .... Maxiter - #DIIS iter
   Number of Davidson start vectors     ....     2
   Converg. threshold    (grad. norm)   ....   1.000e-05
   Grad. Scal. Fac. for Micro threshold ....   0.100
   Minimum threshold for Micro iter.    ....   1.000e-02
   NR start threshold (gradient norm)   ....   1.000e-04
   Initial trust radius                 ....   0.400
   Minimum AH scaling param. (alpha)    ....   1.000
   Maximum AH scaling param. (alpha)    .... 1000.000
   Quad. conv. algorithm                .... NR
   White noise on init. David. guess    .... on
   Maximum white noise                  ....   0.010
   Pseudo random numbers                .... off
   Inactive MOs                         .... canonical
   Orbital update algorithm             .... Taylor
   Preconditioner                       .... Diag
   Full preconditioner red. dimension   ....   250
 SOSCF                 CNVSOSCF           .... on
   Start iteration     SOSCFMaxIt         ....   150
   Startup grad/error  SOSCFStart         ....  0.003300
   Hessian update      SOSCFHessUp        .... L-BFGS
   Autom. constraints  SOSCFAutoConstrain .... off
 Level Shifting         CNVShift        .... on
   Level shift para.    LevelShift      ....    0.2500
   Turn off err/grad.   ShiftErr        ....    0.0010
 Zerner damping         CNVZerner       .... off
 Static damping         CNVDamp         .... on
   Fraction old density DampFac         ....    0.7000
   Max. Damping (<1)    DampMax         ....    0.9800
   Min. Damping (>=0)   DampMin         ....    0.0000
   Turn off err/grad.   DampErr         ....    0.1000

SCF Procedure:
 Maximum # iterations   MaxIter         ....   125
 SCF integral mode      SCFMode         .... Direct
   Integral package                     .... SHARK and LIBINT hybrid scheme
 Reset frequency        DirectResetFreq ....    20
 Integral Threshold     Thresh          ....  2.500e-11 Eh
 Primitive CutOff       TCut            ....  2.500e-12 Eh

Convergence Tolerance:
 Convergence Check Mode ConvCheckMode   .... Total+1el-Energy
 Convergence forced     ConvForced      .... 1
 Energy Change          TolE            ....  1.000e-08 Eh
 1-El. energy change                    ....  1.000e-05 Eh
 Orbital Gradient       TolG            ....  1.000e-05
 Orbital Rotation angle TolX            ....  1.000e-05
 DIIS Error             TolErr          ....  5.000e-07

------------------------------
INITIAL GUESS: MODEL POTENTIAL
------------------------------
Loading Hartree-Fock densities                     ... done
Calculating cut-offs                               ... done
Initializing the effective Hamiltonian             ... done
Setting up the integral package (SHARK)            ... done
Starting the Coulomb interaction                   ... done (   2.0 sec)
Making the grid                                    ... done (   0.7 sec)
Mapping shells                                     ... done
Starting the XC term evaluation                    ... done (   1.0 sec)
  promolecular density results
     # of electrons  =    186.019238533
     EX              =   -158.078320827
     EC              =     -6.314627460
     EX+EC           =   -164.392948287
Transforming the Hamiltonian                       ... done (   0.1 sec)
Diagonalizing the Hamiltonian                      ... done (   0.3 sec)
Back transforming the eigenvectors                 ... done (   0.1 sec)
Now organizing SCF variables                       ... done
                      ------------------
                      INITIAL GUESS DONE (   4.3 sec)
                      ------------------
             **** ENERGY FILE WAS UPDATED (tddft.en.tmp) ****
Finished Guess after   4.8 sec
Maximum memory used throughout the entire GUESS-calculation: 97.3 MB


           ************************************************************
           *        Program running with 4 parallel MPI-processes     *
           *              working on a common directory               *
           ************************************************************

-------------------------------------------------------------------------------------------
                                      ORCA LEAN-SCF
                              memory conserving SCF solver
-------------------------------------------------------------------------------------------

--------------------
CPCM SOLVATION MODEL
--------------------
CPCM parameters:
  Epsilon                                         ...       8.9990
  Refrac                                          ...       1.4242
  Rsolv                                           ...       1.3000
  Surface type                                    ... GAUSSIAN VDW
  Discretization scheme                           ... Constant charge density
    Threshold for H atoms                         ...       5.0000 (charges/Ang^2)
    Threshold for non-H atoms                     ...       5.0000 (charges/Ang^2)
  Epsilon function type                           ...         CPCM
Solvent:                                          ... DICHLOROMETHANE
Radii:
  Scheme                                          ... Element-dependent radii
  Radius for N  used is    3.5149 Bohr (=   1.8600 Ang.)
  Radius for C  used is    3.8550 Bohr (=   2.0400 Ang.)
  Radius for H  used is    2.4944 Bohr (=   1.3200 Ang.)
  Radius for Mg used is    3.9231 Bohr (=   2.0760 Ang.)
  Radius for O  used is    3.4469 Bohr (=   1.8240 Ang.)
Calculating surface                               ...        done! (  0.0s)
Cavity surface points                             ...         3858
Cavity Volume                                     ...    2687.3554
Cavity Surface-area                               ...    1293.8355
Calculating surface distance matrix               ...        done! (  0.4s)
Performing Cholesky decomposition & store         ...        done! (  1.0s)
Overall time for CPCM initialization              ...                 1.3s

----------------------------------------D-I-I-S--------------------------------------------
Iteration    Energy (Eh)           Delta-E    RMSDP     MaxDP     DIISErr   Damp  Time(sec)
-------------------------------------------------------------------------------------------
               ***  Starting incremental Fock matrix formation  ***
    1    -1266.7222062856358207     0.00e+00  2.26e-03  4.59e-02  2.86e-01  0.700 121.4
    2    -1267.0071344172934005    -2.85e-01  1.82e-03  3.81e-02  1.39e-01  0.700  63.4
                               ***Turning on AO-DIIS***
    3    -1267.1477166932677392    -1.41e-01  1.19e-03  2.81e-02  5.54e-02  0.700  61.8
    4    -1267.2305889947897413    -8.29e-02  2.73e-03  6.70e-02  3.78e-02  0.000  58.8
    5    -1267.4071193945942468    -1.77e-01  2.47e-04  4.90e-03  5.28e-03  0.000  88.7
                              *** Initializing SOSCF ***
---------------------------------------S-O-S-C-F--------------------------------------
Iteration    Energy (Eh)           Delta-E    RMSDP     MaxDP     MaxGrad    Time(sec)
--------------------------------------------------------------------------------------
    6    -1267.4075771238876769    -4.58e-04  9.86e-05  1.85e-03  2.60e-03    53.4
               *** Restarting incremental Fock matrix formation ***
    7    -1267.4076284105040031    -5.13e-05  7.13e-05  1.41e-03  4.70e-04   157.0
    8    -1267.4076424972772656    -1.41e-05  3.71e-05  8.98e-04  2.02e-04    87.7
    9    -1267.4076434678572696    -9.71e-07  1.73e-05  3.46e-04  1.16e-04   110.5
   10    -1267.4076448520659142    -1.38e-06  3.21e-06  5.50e-05  1.82e-05    76.4
   11    -1267.4076448838368378    -3.18e-08  1.27e-06  3.28e-05  1.44e-05    90.0
   12    -1267.4076448794071439     4.43e-09  1.33e-06  2.41e-05  6.13e-06    53.6
                 **** Energy Check signals convergence ****

               *****************************************************
               *                     SUCCESS                       *
               *           SCF CONVERGED AFTER  12 CYCLES          *
               *****************************************************

Recomputing exchange energy using gridx3       ... done (  202.663 sec)
Old exchange energy                            :    -86.998809408 Eh
New exchange energy                            :    -86.998773609 Eh
Exchange energy change after final integration :      0.000035800 Eh
Total energy after final integration           :  -1267.407609088 Eh
             **** ENERGY FILE WAS UPDATED (tddft.en.tmp) ****

----------------
TOTAL SCF ENERGY
----------------

Total Energy       :      -1267.40760908789457 Eh          -34487.91437 eV

Components:
Nuclear Repulsion  :       2431.74633079685964 Eh           66171.18174 eV
Electronic Energy  :      -3699.13056267016691 Eh         -100658.45999 eV
One Electron Energy:      -6567.09000316496804 Eh         -178699.60390 eV
Two Electron Energy:       2867.95944049480113 Eh           78041.14391 eV
CPCM Dielectric    :         -0.02341301420290 Eh              -0.63710 eV

Virial components:
Potential Energy   :      -2528.72926214934523 Eh          -68810.22147 eV
Kinetic Energy     :       1261.32165306145089 Eh           34322.30709 eV
Virial Ratio       :          2.00482506267269

DFT components:
N(Alpha)           :       93.000029524472 electrons
N(Beta)            :       93.000029524472 electrons
N(Total)           :      186.000059048945 electrons
E(XC)              :      -81.007583257473 Eh       

CPCM Solvation Model Properties:
Surface-charge          :         -0.03876598543615
Corrected charge        :         -0.00000000000000
Outlying charge corr.   :          0.00007012676979 Eh               0.00191 eV
Free-energy (cav+disp)  :  This term is not implemented in the current solvation scheme

---------------
SCF CONVERGENCE
---------------

  Last Energy change         ...   -4.4297e-09  Tolerance :   1.0000e-08
  Last MAX-Density change    ...    2.4092e-05  Tolerance :   1.0000e-07
  Last RMS-Density change    ...    1.3332e-06  Tolerance :   5.0000e-09
  Last DIIS Error            ...    2.5957e-03  Tolerance :   5.0000e-07
  Last Orbital Gradient      ...    6.1325e-06  Tolerance :   1.0000e-05
  Last Orbital Rotation      ...    6.0603e-05  Tolerance :   1.0000e-05


----------------
ORBITAL ENERGIES
----------------

  NO   OCC          E(Eh)            E(eV) 
   0   2.0000     -47.502132     -1292.5987 
   1   2.0000     -19.660304      -534.9841 
   2   2.0000     -14.754875      -401.5006 
   3   2.0000     -14.754593      -401.4929 
   4   2.0000     -14.727524      -400.7563 
   5   2.0000     -14.727010      -400.7423 
   6   2.0000     -10.575658      -287.7783 
   7   2.0000     -10.575558      -287.7756 
   8   2.0000     -10.575307      -287.7687 
   9   2.0000     -10.575112      -287.7634 
  10   2.0000     -10.564874      -287.4848 
  11   2.0000     -10.564612      -287.4777 
  12   2.0000     -10.564258      -287.4681 
  13   2.0000     -10.563868      -287.4575 
  14   2.0000     -10.536715      -286.7186 
  15   2.0000     -10.536352      -286.7087 
  16   2.0000     -10.536174      -286.7039 
  17   2.0000     -10.535807      -286.6939 
  18   2.0000     -10.532450      -286.6025 
  19   2.0000     -10.532385      -286.6008 
  20   2.0000     -10.532032      -286.5912 
  21   2.0000     -10.531882      -286.5871 
  22   2.0000     -10.529890      -286.5329 
  23   2.0000     -10.529332      -286.5177 
  24   2.0000     -10.528965      -286.5077 
  25   2.0000     -10.528410      -286.4926 
  26   2.0000      -3.255665       -88.5912 
  27   2.0000      -1.950002       -53.0623 
  28   2.0000      -1.948054       -53.0092 
  29   2.0000      -1.947656       -52.9984 
  30   2.0000      -1.166849       -31.7516 
  31   2.0000      -1.068467       -29.0745 
  32   2.0000      -1.062464       -28.9111 
  33   2.0000      -1.054539       -28.6955 
  34   2.0000      -1.047459       -28.5028 
  35   2.0000      -0.909450       -24.7474 
  36   2.0000      -0.884251       -24.0617 
  37   2.0000      -0.875751       -23.8304 
  38   2.0000      -0.863885       -23.5075 
  39   2.0000      -0.862151       -23.4603 
  40   2.0000      -0.851926       -23.1821 
  41   2.0000      -0.851059       -23.1585 
  42   2.0000      -0.822005       -22.3679 
  43   2.0000      -0.806596       -21.9486 
  44   2.0000      -0.742323       -20.1996 
  45   2.0000      -0.733576       -19.9616 
  46   2.0000      -0.696279       -18.9467 
  47   2.0000      -0.674153       -18.3446 
  48   2.0000      -0.644499       -17.5377 
  49   2.0000      -0.643106       -17.4998 
  50   2.0000      -0.642154       -17.4739 
  51   2.0000      -0.641069       -17.4444 
  52   2.0000      -0.631030       -17.1712 
  53   2.0000      -0.606122       -16.4934 
  54   2.0000      -0.591861       -16.1053 
  55   2.0000      -0.579155       -15.7596 
  56   2.0000      -0.570742       -15.5307 
  57   2.0000      -0.566327       -15.4106 
  58   2.0000      -0.552770       -15.0416 
  59   2.0000      -0.544394       -14.8137 
  60   2.0000      -0.541827       -14.7439 
  61   2.0000      -0.525639       -14.3034 
  62   2.0000      -0.500592       -13.6218 
  63   2.0000      -0.500485       -13.6189 
  64   2.0000      -0.483249       -13.1499 
  65   2.0000      -0.483050       -13.1445 
  66   2.0000      -0.478224       -13.0131 
  67   2.0000      -0.464268       -12.6334 
  68   2.0000      -0.463745       -12.6191 
  69   2.0000      -0.461156       -12.5487 
  70   2.0000      -0.453876       -12.3506 
  71   2.0000      -0.446514       -12.1503 
  72   2.0000      -0.439254       -11.9527 
  73   2.0000      -0.436786       -11.8855 
  74   2.0000      -0.434255       -11.8167 
  75   2.0000      -0.432790       -11.7768 
  76   2.0000      -0.424081       -11.5398 
  77   2.0000      -0.421686       -11.4747 
  78   2.0000      -0.416562       -11.3352 
  79   2.0000      -0.415731       -11.3126 
  80   2.0000      -0.413123       -11.2417 
  81   2.0000      -0.410392       -11.1673 
  82   2.0000      -0.406600       -11.0641 
  83   2.0000      -0.370710       -10.0875 
  84   2.0000      -0.365652        -9.9499 
  85   2.0000      -0.363049        -9.8791 
  86   2.0000      -0.340652        -9.2696 
  87   2.0000      -0.325075        -8.8457 
  88   2.0000      -0.312222        -8.4960 
  89   2.0000      -0.302960        -8.2440 
  90   2.0000      -0.293344        -7.9823 
  91   2.0000      -0.232214        -6.3189 
  92   2.0000      -0.197700        -5.3797 
  93   0.0000      -0.077321        -2.1040 
  94   0.0000      -0.012885        -0.3506 
  95   0.0000       0.017379         0.4729 
  96   0.0000       0.054051         1.4708 
  97   0.0000       0.054553         1.4845 
  98   0.0000       0.066101         1.7987 
  99   0.0000       0.069528         1.8919 
 100   0.0000       0.075963         2.0671 
 101   0.0000       0.083542         2.2733 
 102   0.0000       0.084685         2.3044 
 103   0.0000       0.096386         2.6228 
*Only the first 10 virtual orbitals were printed.

                    ********************************
                    * MULLIKEN POPULATION ANALYSIS *
                    ********************************

-----------------------
MULLIKEN ATOMIC CHARGES
-----------------------
   0 N :   -0.358323
   1 N :   -0.355587
   2 N :   -0.438760
   3 N :   -0.426871
   4 C :   -0.311245
   5 C :   -0.310130
   6 C :   -0.309300
   7 C :   -0.313100
   8 C :    0.169106
   9 C :    0.167220
  10 C :    0.166718
  11 C :    0.166490
  12 C :    0.211019
  13 C :    0.195581
  14 C :    0.212655
  15 C :    0.191998
  16 C :   -0.299656
  17 C :   -0.292566
  18 C :   -0.304007
  19 C :   -0.288304
  20 C :   -0.256569
  21 C :   -0.257526
  22 C :   -0.254019
  23 C :   -0.258151
  24 H :    0.162992
  25 H :    0.168176
  26 H :    0.161818
  27 H :    0.168706
  28 H :    0.168413
  29 H :    0.162780
  30 H :    0.168006
  31 H :    0.163262
  32 H :    0.175441
  33 H :    0.175167
  34 H :    0.175097
  35 H :    0.176087
  36 H :    0.171438
  37 H :    0.171465
  38 H :    0.171815
  39 H :    0.171757
  40 Mg:    0.696088
  41 O :   -0.661872
  42 H :    0.401700
  43 H :    0.404989
Sum of atomic charges:   -0.0000000

--------------------------------
MULLIKEN REDUCED ORBITAL CHARGES
--------------------------------
  0 N s       :     3.666387  s :     3.666387
      pz      :     1.260903  p :     3.634345
      px      :     1.345067
      py      :     1.028375
      dz2     :     0.003814  d :     0.054088
      dxz     :     0.006627
      dyz     :     0.015426
      dx2y2   :     0.013516
      dxy     :     0.014706
      f0      :     0.000655  f :     0.003502
      f+1     :     0.000279
      f-1     :     0.000443
      f+2     :     0.000114
      f-2     :     0.000497
      f+3     :     0.000624
      f-3     :     0.000891

  1 N s       :     3.660156  s :     3.660156
      pz      :     1.253591  p :     3.637768
      px      :     1.355773
      py      :     1.028403
      dz2     :     0.003861  d :     0.054167
      dxz     :     0.006865
      dyz     :     0.015241
      dx2y2   :     0.013251
      dxy     :     0.014948
      f0      :     0.000653  f :     0.003496
      f+1     :     0.000278
      f-1     :     0.000443
      f+2     :     0.000114
      f-2     :     0.000499
      f+3     :     0.000626
      f-3     :     0.000882

  2 N s       :     3.681795  s :     3.681795
      pz      :     1.382997  p :     3.702766
      px      :     1.024974
      py      :     1.294795
      dz2     :     0.004197  d :     0.050662
      dxz     :     0.013330
      dyz     :     0.005855
      dx2y2   :     0.013184
      dxy     :     0.014095
      f0      :     0.000700  f :     0.003537
      f+1     :     0.000489
      f-1     :     0.000350
      f+2     :     0.000083
      f-2     :     0.000553
      f+3     :     0.000768
      f-3     :     0.000595

  3 N s       :     3.680628  s :     3.680628
      pz      :     1.382424  p :     3.692090
      px      :     1.023082
      py      :     1.286584
      dz2     :     0.004143  d :     0.050615
      dxz     :     0.013325
      dyz     :     0.005813
      dx2y2   :     0.013282
      dxy     :     0.014051
      f0      :     0.000703  f :     0.003538
      f+1     :     0.000488
      f-1     :     0.000352
      f+2     :     0.000080
      f-2     :     0.000548
      f+3     :     0.000771
      f-3     :     0.000596

  4 C s       :     3.292339  s :     3.292339
      pz      :     1.090392  p :     2.939029
      px      :     0.919758
      py      :     0.928878
      dz2     :     0.006209  d :     0.074760
      dxz     :     0.014720
      dyz     :     0.015879
      dx2y2   :     0.016308
      dxy     :     0.021644
      f0      :     0.000622  f :     0.005117
      f+1     :     0.000610
      f-1     :     0.000533
      f+2     :     0.000708
      f-2     :     0.000511
      f+3     :     0.001311
      f-3     :     0.000823

  5 C s       :     3.293493  s :     3.293493
      pz      :     1.088350  p :     2.936538
      px      :     0.917943
      py      :     0.930245
      dz2     :     0.006166  d :     0.074978
      dxz     :     0.015380
      dyz     :     0.015494
      dx2y2   :     0.016279
      dxy     :     0.021659
      f0      :     0.000571  f :     0.005121
      f+1     :     0.000643
      f-1     :     0.000558
      f+2     :     0.000705
      f-2     :     0.000504
      f+3     :     0.001325
      f-3     :     0.000814

  6 C s       :     3.292278  s :     3.292278
      pz      :     1.089671  p :     2.937077
      px      :     0.917851
      py      :     0.929554
      dz2     :     0.005428  d :     0.074827
      dxz     :     0.015510
      dyz     :     0.016005
      dx2y2   :     0.016373
      dxy     :     0.021511
      f0      :     0.000535  f :     0.005118
      f+1     :     0.000670
      f-1     :     0.000577
      f+2     :     0.000710
      f-2     :     0.000486
      f+3     :     0.001329
      f-3     :     0.000811

  7 C s       :     3.294823  s :     3.294823
      pz      :     1.089725  p :     2.938188
      px      :     0.919364
      py      :     0.929099
      dz2     :     0.006749  d :     0.074969
      dxz     :     0.014710
      dyz     :     0.015442
      dx2y2   :     0.016254
      dxy     :     0.021813
      f0      :     0.000629  f :     0.005120
      f+1     :     0.000603
      f-1     :     0.000528
      f+2     :     0.000702
      f-2     :     0.000516
      f+3     :     0.001318
      f-3     :     0.000823

  8 C s       :     3.151269  s :     3.151269
      pz      :     0.903391  p :     2.540998
      px      :     0.816937
      py      :     0.820670
      dz2     :     0.002308  d :     0.126106
      dxz     :     0.020159
      dyz     :     0.040738
      dx2y2   :     0.028784
      dxy     :     0.034117
      f0      :     0.001790  f :     0.012521
      f+1     :     0.001010
      f-1     :     0.001145
      f+2     :     0.001072
      f-2     :     0.001354
      f+3     :     0.001900
      f-3     :     0.004251

  9 C s       :     3.149559  s :     3.149559
      pz      :     0.906958  p :     2.545739
      px      :     0.821092
      py      :     0.817690
      dz2     :     0.001787  d :     0.125012
      dxz     :     0.020038
      dyz     :     0.040841
      dx2y2   :     0.028464
      dxy     :     0.033882
      f0      :     0.001802  f :     0.012470
      f+1     :     0.000985
      f-1     :     0.001128
      f+2     :     0.001068
      f-2     :     0.001341
      f+3     :     0.001866
      f-3     :     0.004280

 10 C s       :     3.149166  s :     3.149166
      pz      :     0.903949  p :     2.544762
      px      :     0.819337
      py      :     0.821476
      dz2     :     0.001544  d :     0.126815
      dxz     :     0.020609
      dyz     :     0.040982
      dx2y2   :     0.029432
      dxy     :     0.034249
      f0      :     0.001815  f :     0.012539
      f+1     :     0.000983
      f-1     :     0.001130
      f+2     :     0.001076
      f-2     :     0.001355
      f+3     :     0.001867
      f-3     :     0.004314

 11 C s       :     3.154007  s :     3.154007
      pz      :     0.902465  p :     2.541595
      px      :     0.819548
      py      :     0.819582
      dz2     :     0.002268  d :     0.125432
      dxz     :     0.019990
      dyz     :     0.040786
      dx2y2   :     0.028460
      dxy     :     0.033928
      f0      :     0.001778  f :     0.012476
      f+1     :     0.001004
      f-1     :     0.001143
      f+2     :     0.001060
      f-2     :     0.001347
      f+3     :     0.001910
      f-3     :     0.004233

 12 C s       :     3.136857  s :     3.136857
      pz      :     0.924423  p :     2.518957
      px      :     0.786340
      py      :     0.808194
      dz2     :     0.002774  d :     0.120338
      dxz     :     0.037707
      dyz     :     0.028904
      dx2y2   :     0.023405
      dxy     :     0.027548
      f0      :     0.001944  f :     0.012830
      f+1     :     0.001265
      f-1     :     0.000981
      f+2     :     0.000716
      f-2     :     0.001850
      f+3     :     0.003949
      f-3     :     0.002124

 13 C s       :     3.138267  s :     3.138267
      pz      :     0.929185  p :     2.533567
      px      :     0.785393
      py      :     0.818989
      dz2     :     0.002503  d :     0.119775
      dxz     :     0.037720
      dyz     :     0.029005
      dx2y2   :     0.023288
      dxy     :     0.027259
      f0      :     0.001961  f :     0.012811
      f+1     :     0.001241
      f-1     :     0.000982
      f+2     :     0.000689
      f-2     :     0.001869
      f+3     :     0.003907
      f-3     :     0.002161

 14 C s       :     3.136393  s :     3.136393
      pz      :     0.924289  p :     2.516450
      px      :     0.788179
      py      :     0.803982
      dz2     :     0.002528  d :     0.121654
      dxz     :     0.038558
      dyz     :     0.029193
      dx2y2   :     0.023655
      dxy     :     0.027719
      f0      :     0.001965  f :     0.012849
      f+1     :     0.001240
      f-1     :     0.000979
      f+2     :     0.000690
      f-2     :     0.001877
      f+3     :     0.003933
      f-3     :     0.002165

 15 C s       :     3.139878  s :     3.139878
      pz      :     0.925992  p :     2.534412
      px      :     0.784455
      py      :     0.823964
      dz2     :     0.002529  d :     0.120861
      dxz     :     0.038397
      dyz     :     0.029040
      dx2y2   :     0.023591
      dxy     :     0.027304
      f0      :     0.001962  f :     0.012851
      f+1     :     0.001247
      f-1     :     0.000983
      f+2     :     0.000703
      f-2     :     0.001865
      f+3     :     0.003964
      f-3     :     0.002127

 16 C s       :     3.174731  s :     3.174731
      pz      :     1.069052  p :     3.062229
      px      :     0.990494
      py      :     1.002682
      dz2     :     0.003760  d :     0.056021
      dxz     :     0.014085
      dyz     :     0.015290
      dx2y2   :     0.009930
      dxy     :     0.012956
      f0      :     0.001266  f :     0.006676
      f+1     :     0.000817
      f-1     :     0.000772
      f+2     :     0.000654
      f-2     :     0.000430
      f+3     :     0.001299
      f-3     :     0.001437

 17 C s       :     3.177559  s :     3.177559
      pz      :     1.069950  p :     3.052364
      px      :     0.984534
      py      :     0.997881
      dz2     :     0.003727  d :     0.055973
      dxz     :     0.014182
      dyz     :     0.015110
      dx2y2   :     0.009834
      dxy     :     0.013119
      f0      :     0.001262  f :     0.006670
      f+1     :     0.000819
      f-1     :     0.000776
      f+2     :     0.000653
      f-2     :     0.000419
      f+3     :     0.001287
      f-3     :     0.001454

 18 C s       :     3.179529  s :     3.179529
      pz      :     1.070995  p :     3.062108
      px      :     0.986581
      py      :     1.004532
      dz2     :     0.003735  d :     0.055699
      dxz     :     0.014225
      dyz     :     0.015037
      dx2y2   :     0.009729
      dxy     :     0.012973
      f0      :     0.001269  f :     0.006672
      f+1     :     0.000817
      f-1     :     0.000781
      f+2     :     0.000649
      f-2     :     0.000415
      f+3     :     0.001288
      f-3     :     0.001453

 19 C s       :     3.169062  s :     3.169062
      pz      :     1.070680  p :     3.056553
      px      :     0.988317
      py      :     0.997556
      dz2     :     0.003709  d :     0.056018
      dxz     :     0.014026
      dyz     :     0.015168
      dx2y2   :     0.009966
      dxy     :     0.013150
      f0      :     0.001267  f :     0.006670
      f+1     :     0.000813
      f-1     :     0.000777
      f+2     :     0.000653
      f-2     :     0.000421
      f+3     :     0.001301
      f-3     :     0.001437

 20 C s       :     3.242533  s :     3.242533
      pz      :     1.022152  p :     2.940514
      px      :     0.963270
      py      :     0.955092
      dz2     :     0.005261  d :     0.066562
      dxz     :     0.019565
      dyz     :     0.010233
      dx2y2   :     0.012444
      dxy     :     0.019060
      f0      :     0.001279  f :     0.006960
      f+1     :     0.000701
      f-1     :     0.000875
      f+2     :     0.001000
      f-2     :     0.000202
      f+3     :     0.001018
      f-3     :     0.001884

 21 C s       :     3.243376  s :     3.243376
      pz      :     1.022918  p :     2.940653
      px      :     0.963144
      py      :     0.954591
      dz2     :     0.005373  d :     0.066538
      dxz     :     0.019546
      dyz     :     0.010019
      dx2y2   :     0.012331
      dxy     :     0.019268
      f0      :     0.001274  f :     0.006960
      f+1     :     0.000702
      f-1     :     0.000886
      f+2     :     0.000988
      f-2     :     0.000202
      f+3     :     0.001020
      f-3     :     0.001888

 22 C s       :     3.242109  s :     3.242109
      pz      :     1.020150  p :     2.938504
      px      :     0.962850
      py      :     0.955504
      dz2     :     0.005249  d :     0.066455
      dxz     :     0.019634
      dyz     :     0.010091
      dx2y2   :     0.012267
      dxy     :     0.019215
      f0      :     0.001283  f :     0.006951
      f+1     :     0.000684
      f-1     :     0.000887
      f+2     :     0.000991
      f-2     :     0.000197
      f+3     :     0.001014
      f-3     :     0.001895

 23 C s       :     3.244832  s :     3.244832
      pz      :     1.021301  p :     2.939846
      px      :     0.963505
      py      :     0.955040
      dz2     :     0.005224  d :     0.066522
      dxz     :     0.019588
      dyz     :     0.010094
      dx2y2   :     0.012423
      dxy     :     0.019193
      f0      :     0.001285  f :     0.006951
      f+1     :     0.000686
      f-1     :     0.000882
      f+2     :     0.000998
      f-2     :     0.000193
      f+3     :     0.001016
      f-3     :     0.001892

 24 H s       :     0.817489  s :     0.817489
      pz      :     0.010547  p :     0.019518
      px      :     0.004786
      py      :     0.004185

 25 H s       :     0.812384  s :     0.812384
      pz      :     0.007099  p :     0.019440
      px      :     0.006553
      py      :     0.005788

 26 H s       :     0.818697  s :     0.818697
      pz      :     0.010291  p :     0.019485
      px      :     0.005094
      py      :     0.004099

 27 H s       :     0.811845  s :     0.811845
      pz      :     0.007285  p :     0.019449
      px      :     0.006201
      py      :     0.005963

 28 H s       :     0.812144  s :     0.812144
      pz      :     0.007637  p :     0.019443
      px      :     0.005992
      py      :     0.005815

 29 H s       :     0.817707  s :     0.817707
      pz      :     0.010030  p :     0.019513
      px      :     0.005276
      py      :     0.004207

 30 H s       :     0.812564  s :     0.812564
      pz      :     0.006953  p :     0.019430
      px      :     0.006536
      py      :     0.005941

 31 H s       :     0.817209  s :     0.817209
      pz      :     0.010632  p :     0.019529
      px      :     0.004819
      py      :     0.004077

 32 H s       :     0.804068  s :     0.804068
      pz      :     0.004667  p :     0.020491
      px      :     0.007789
      py      :     0.008034

 33 H s       :     0.804338  s :     0.804338
      pz      :     0.004654  p :     0.020495
      px      :     0.007753
      py      :     0.008088

 34 H s       :     0.804397  s :     0.804397
      pz      :     0.004648  p :     0.020506
      px      :     0.007748
      py      :     0.008109

 35 H s       :     0.803413  s :     0.803413
      pz      :     0.004675  p :     0.020500
      px      :     0.007799
      py      :     0.008026

 36 H s       :     0.808376  s :     0.808376
      pz      :     0.004175  p :     0.020186
      px      :     0.006667
      py      :     0.009344

 37 H s       :     0.808351  s :     0.808351
      pz      :     0.004153  p :     0.020184
      px      :     0.006625
      py      :     0.009406

 38 H s       :     0.807998  s :     0.807998
      pz      :     0.004141  p :     0.020187
      px      :     0.006642
      py      :     0.009404

 39 H s       :     0.808057  s :     0.808057
      pz      :     0.004155  p :     0.020187
      px      :     0.006677
      py      :     0.009354

 40 Mgs       :     4.508484  s :     4.508484
      pz      :     2.140071  p :     6.508454
      px      :     2.173002
      py      :     2.195381
      dz2     :     0.040822  d :     0.286974
      dxz     :     0.031791
      dyz     :     0.042633
      dx2y2   :     0.145898
      dxy     :     0.025829

 41 O s       :     3.782505  s :     3.782505
      pz      :     1.762015  p :     4.861582
      px      :     1.748479
      py      :     1.351088
      dz2     :     0.001483  d :     0.016473
      dxz     :     0.003605
      dyz     :     0.003010
      dx2y2   :     0.001328
      dxy     :     0.007046
      f0      :     0.000254  f :     0.001312
      f+1     :     0.000046
      f-1     :     0.000113
      f+2     :     0.000095
      f-2     :     0.000328
      f+3     :     0.000369
      f-3     :     0.000106

 42 H s       :     0.553634  s :     0.553634
      pz      :     0.014736  p :     0.044666
      px      :     0.015517
      py      :     0.014413

 43 H s       :     0.550410  s :     0.550410
      pz      :     0.013203  p :     0.044602
      px      :     0.013463
      py      :     0.017936



                     *******************************
                     * LOEWDIN POPULATION ANALYSIS *
                     *******************************

----------------------
LOEWDIN ATOMIC CHARGES
----------------------
   0 N :    0.208462
   1 N :    0.204998
   2 N :    0.160985
   3 N :    0.163389
   4 C :   -0.196818
   5 C :   -0.197703
   6 C :   -0.196605
   7 C :   -0.197663
   8 C :   -0.206132
   9 C :   -0.208699
  10 C :   -0.205403
  11 C :   -0.207807
  12 C :   -0.221657
  13 C :   -0.223091
  14 C :   -0.219655
  15 C :   -0.220815
  16 C :   -0.131120
  17 C :   -0.132886
  18 C :   -0.130811
  19 C :   -0.132493
  20 C :   -0.138128
  21 C :   -0.138812
  22 C :   -0.136344
  23 C :   -0.136907
  24 H :    0.150933
  25 H :    0.147703
  26 H :    0.150413
  27 H :    0.147471
  28 H :    0.147819
  29 H :    0.150962
  30 H :    0.147148
  31 H :    0.151267
  32 H :    0.165083
  33 H :    0.164834
  34 H :    0.165186
  35 H :    0.164885
  36 H :    0.145075
  37 H :    0.145030
  38 H :    0.145362
  39 H :    0.145298
  40 Mg:    0.107964
  41 O :   -0.116607
  42 H :    0.207476
  43 H :    0.208411

-------------------------------
LOEWDIN REDUCED ORBITAL CHARGES
-------------------------------
  0 N s       :     2.975256  s :     2.975256
      pz      :     1.104416  p :     3.584405
      px      :     1.354725
      py      :     1.125263
      dz2     :     0.016081  d :     0.213176
      dxz     :     0.009808
      dyz     :     0.050227
      dx2y2   :     0.063944
      dxy     :     0.073116
      f0      :     0.001098  f :     0.018702
      f+1     :     0.000763
      f-1     :     0.001811
      f+2     :     0.000331
      f-2     :     0.003460
      f+3     :     0.003736
      f-3     :     0.007502

  1 N s       :     2.978537  s :     2.978537
      pz      :     1.103202  p :     3.585345
      px      :     1.357795
      py      :     1.124348
      dz2     :     0.016101  d :     0.212500
      dxz     :     0.010056
      dyz     :     0.049870
      dx2y2   :     0.063400
      dxy     :     0.073072
      f0      :     0.001090  f :     0.018621
      f+1     :     0.000766
      f-1     :     0.001796
      f+2     :     0.000330
      f-2     :     0.003430
      f+3     :     0.003752
      f-3     :     0.007458

  2 N s       :     2.974969  s :     2.974969
      pz      :     1.206913  p :     3.645799
      px      :     1.106890
      py      :     1.331997
      dz2     :     0.015879  d :     0.199848
      dxz     :     0.044767
      dyz     :     0.011213
      dx2y2   :     0.060082
      dxy     :     0.067907
      f0      :     0.001096  f :     0.018398
      f+1     :     0.001738
      f-1     :     0.000836
      f+2     :     0.000208
      f-2     :     0.003755
      f+3     :     0.006909
      f-3     :     0.003857

  3 N s       :     2.974173  s :     2.974173
      pz      :     1.206546  p :     3.644203
      px      :     1.106729
      py      :     1.330928
      dz2     :     0.015811  d :     0.199818
      dxz     :     0.044570
      dyz     :     0.011124
      dx2y2   :     0.060252
      dxy     :     0.068062
      f0      :     0.001100  f :     0.018417
      f+1     :     0.001753
      f-1     :     0.000829
      f+2     :     0.000198
      f-2     :     0.003748
      f+3     :     0.006934
      f-3     :     0.003855

  4 C s       :     2.766806  s :     2.766806
      pz      :     1.039545  p :     3.029982
      px      :     0.991426
      py      :     0.999010
      dz2     :     0.047843  d :     0.359840
      dxz     :     0.068309
      dyz     :     0.067887
      dx2y2   :     0.085225
      dxy     :     0.090577
      f0      :     0.004425  f :     0.040190
      f+1     :     0.003445
      f-1     :     0.003448
      f+2     :     0.005586
      f-2     :     0.004823
      f+3     :     0.011169
      f-3     :     0.007294

  5 C s       :     2.767080  s :     2.767080
      pz      :     1.039511  p :     3.030041
      px      :     0.990946
      py      :     0.999584
      dz2     :     0.046004  d :     0.360422
      dxz     :     0.071181
      dyz     :     0.068062
      dx2y2   :     0.085392
      dxy     :     0.089782
      f0      :     0.004190  f :     0.040159
      f+1     :     0.003696
      f-1     :     0.003663
      f+2     :     0.005392
      f-2     :     0.004647
      f+3     :     0.011281
      f-3     :     0.007290

  6 C s       :     2.766833  s :     2.766833
      pz      :     1.039762  p :     3.029802
      px      :     0.990769
      py      :     0.999270
      dz2     :     0.042841  d :     0.359787
[...]
  0-1A  ->  1-1A    1.745193   14075.9   710.4   0.477262902   0.04591   0.00075   0.21427  -0.00094
  0-1A  ->  2-1A    2.456841   19815.8   504.6   0.138230391   0.01872  -0.13680   0.00032  -0.00248
  0-1A  ->  3-1A    3.587822   28937.7   345.6   1.276897328   0.25254   0.50246  -0.00216   0.00795
  0-1A  ->  4-1A    3.793309   30595.1   326.8   0.000095877   0.00002  -0.00241   0.00020   0.00377
  0-1A  ->  5-1A    4.033468   32532.1   307.4   0.000149626   0.00003   0.00486  -0.00303  -0.00070
  0-1A  ->  6-1A    4.061883   32761.3   305.2   0.109925365   0.02461   0.15664   0.00845   0.00240
  0-1A  ->  7-1A    4.111523   33161.7   301.6   1.107568100   0.25102   0.00050  -0.50102   0.00219
  0-1A  ->  8-1A    4.555159   36739.8   272.2   0.000443833   0.00011  -0.00106   0.00007   0.01050
  0-1A  ->  9-1A    4.660314   37588.0   266.0   0.003713651   0.00095   0.01225   0.02835   0.00059
  0-1A  -> 10-1A    4.857990   39182.3   255.2   0.000659097   0.00018  -0.00594   0.00758   0.00915
  0-1A  -> 11-1A    4.920308   39685.0   252.0   0.000030214   0.00001  -0.00128  -0.00188   0.00173
  0-1A  -> 12-1A    4.939981   39843.6   251.0   0.000814174   0.00022  -0.00345   0.00110   0.01444
  0-1A  -> 13-1A    5.102929   41157.9   243.0   0.000048058   0.00001   0.00067  -0.00337   0.00130
  0-1A  -> 14-1A    5.275987   42553.7   235.0   0.000263923   0.00008   0.00369  -0.00214   0.00765
  0-1A  -> 15-1A    5.319068   42901.2   233.1   0.001267456   0.00037   0.00381  -0.00163  -0.01883
  0-1A  -> 16-1A    5.437544   43856.8   228.0   0.000255907   0.00008  -0.00143  -0.00858   0.00103
  0-1A  -> 17-1A    5.510224   44443.0   225.0   0.000032748   0.00001  -0.00216  -0.00223  -0.00053
  0-1A  -> 18-1A    5.563399   44871.8   222.9   0.114326744   0.03506  -0.00070   0.18725  -0.00000
  0-1A  -> 19-1A    5.653555   45599.0   219.3   0.001103175   0.00034  -0.00304   0.01026   0.01514
  0-1A  -> 20-1A    5.740500   46300.3   216.0   0.000361069   0.00011   0.00701  -0.00142  -0.00794
  0-1A  -> 21-1A    5.793920   46731.1   214.0   0.000357800   0.00011  -0.00576   0.00896  -0.00088
  0-1A  -> 22-1A    5.905329   47629.7   210.0   0.000744503   0.00024   0.00033   0.00101   0.01553
  0-1A  -> 23-1A    5.930416   47832.0   209.1   0.039832021   0.01302   0.00097   0.11411  -0.00001
  0-1A  -> 24-1A    5.970608   48156.2   207.7   0.343047885   0.11291  -0.00219  -0.33600   0.00170
  0-1A  -> 25-1A    6.006457   48445.3   206.4   0.000066660   0.00002   0.00292   0.00337  -0.00149
  0-1A  -> 26-1A    6.137215   49500.0   202.0   0.000274327   0.00009   0.00768   0.00452  -0.00367
  0-1A  -> 27-1A    6.241039   50337.4   198.7   0.009411371   0.00324  -0.00949   0.05610   0.00035
  0-1A  -> 28-1A    6.267992   50554.8   197.8   0.001979972   0.00068  -0.01530   0.01766  -0.01176
  0-1A  -> 29-1A    6.339018   51127.6   195.6   0.002662412   0.00093  -0.01295   0.02756  -0.00175
  0-1A  -> 30-1A    6.356771   51270.8   195.0   0.001928551   0.00068   0.02035  -0.01227   0.01055

------------------------------------------------------------------------------------------
                     CD SPECTRUM VIA TRANSITION ELECTRIC DIPOLE MOMENTS    
------------------------------------------------------------------------------------------
     Transition      Energy     Energy  Wavelength    R        MX        MY        MZ   
                      (eV)      (cm-1)    (nm)   (1e40*cgs)   (au)      (au)      (au)  
------------------------------------------------------------------------------------------
  0-1A  ->  1-1A    1.745193   14075.9   710.4  -12.50095   0.02685  -0.00834   0.00133
  0-1A  ->  2-1A    2.456841   19815.8   504.6   -8.15994   0.01139   0.02501   0.02461
  0-1A  ->  3-1A    3.587822   28937.7   345.6  -63.64850  -0.03709  -0.07212   0.00546
  0-1A  ->  4-1A    3.793309   30595.1   326.8   -1.37980   0.00274   0.00024  -0.11770
  0-1A  ->  5-1A    4.033468   32532.1   307.4   -0.09924   0.00249   0.00518   0.07180
  0-1A  ->  6-1A    4.061883   32761.3   305.2  -12.61762  -0.02319  -0.06109  -0.00326
  0-1A  ->  7-1A    4.111523   33161.7   301.6    8.36097  -0.08851  -0.00565  -0.00048
  0-1A  ->  8-1A    4.555159   36739.8   272.2   31.76872  -0.02000   0.01504   1.17746
  0-1A  ->  9-1A    4.660314   37588.0   266.0   26.74225   0.00335   0.35947  -0.02911
  0-1A  -> 10-1A    4.857990   39182.3   255.2   -2.09024   0.00072  -0.02274  -0.07740
  0-1A  -> 11-1A    4.920308   39685.0   252.0    0.03927  -0.00079   0.00239   0.00929
  0-1A  -> 12-1A    4.939981   39843.6   251.0   34.32714  -0.01426  -0.00948   0.90901
  0-1A  -> 13-1A    5.102929   41157.9   243.0    0.01859  -0.00125  -0.00247   0.00009
  0-1A  -> 14-1A    5.275987   42553.7   235.0    8.52027  -0.02824   0.01256   0.62426
  0-1A  -> 15-1A    5.319068   42901.2   233.1   -6.66246  -0.00703   0.00583   0.17761
  0-1A  -> 16-1A    5.437544   43856.8   228.0   -0.17179  -0.08582  -0.00259  -0.09697
  0-1A  -> 17-1A    5.510224   44443.0   225.0   -0.02130  -0.00036   0.00198   0.01349
  0-1A  -> 18-1A    5.563399   44871.8   222.9    2.31228   0.02416   0.00558  -0.00106
  0-1A  -> 19-1A    5.653555   45599.0   219.3   -0.79467  -0.00732  -0.03149  -0.00387
  0-1A  -> 20-1A    5.740500   46300.3   216.0    0.01631   0.00774   0.05302  -0.00263
  0-1A  -> 21-1A    5.793920   46731.1   214.0    3.27401   0.00749   0.13714   0.01046
  0-1A  -> 22-1A    5.905329   47629.7   210.0   -7.41681  -0.00438   0.00004  -0.22679
  0-1A  -> 23-1A    5.930416   47832.0   209.1   -3.36211  -0.02418  -0.01388  -0.01461
  0-1A  -> 24-1A    5.970608   48156.2   207.7   -0.77888   0.01447   0.00102   0.00005
  0-1A  -> 25-1A    6.006457   48445.3   206.4   -0.04127   0.02236  -0.00398   0.05232
  0-1A  -> 26-1A    6.137215   49500.0   202.0    1.14024   0.01403   0.10151   0.00320
  0-1A  -> 27-1A    6.241039   50337.4   198.7   -5.46540   0.32826   0.00446   0.00606
  0-1A  -> 28-1A    6.267992   50554.8   197.8  -13.89780   0.04135  -0.36475  -0.00624
  0-1A  -> 29-1A    6.339018   51127.6   195.6   13.26559  -0.48308   0.03166  -0.01764
  0-1A  -> 30-1A    6.356771   51270.8   195.0    4.77541   0.19817   0.08785  -0.01928

------------------------------------------------------------------------------------------
                     CD SPECTRUM VIA TRANSITION VELOCITY DIPOLE MOMENTS    
------------------------------------------------------------------------------------------
     Transition      Energy     Energy  Wavelength    R        MX        MY        MZ   
                      (eV)      (cm-1)    (nm)   (1e40*cgs)   (au)      (au)      (au)  
------------------------------------------------------------------------------------------
  0-1A  ->  1-1A    1.745193   14075.9   710.4  -12.99962   0.02685  -0.00834   0.00133
  0-1A  ->  2-1A    2.456841   19815.8   504.6   -8.41667   0.01139   0.02501   0.02461
  0-1A  ->  3-1A    3.587822   28937.7   345.6  -65.91724  -0.03709  -0.07212   0.00546
  0-1A  ->  4-1A    3.793309   30595.1   326.8   -1.52162   0.00274   0.00024  -0.11770
  0-1A  ->  5-1A    4.033468   32532.1   307.4   -0.17116   0.00249   0.00518   0.07180
  0-1A  ->  6-1A    4.061883   32761.3   305.2  -13.12663  -0.02319  -0.06109  -0.00326
  0-1A  ->  7-1A    4.111523   33161.7   301.6    8.69854  -0.08851  -0.00565  -0.00048
  0-1A  ->  8-1A    4.555159   36739.8   272.2   34.89283  -0.02000   0.01504   1.17746
  0-1A  ->  9-1A    4.660314   37588.0   266.0   28.11891   0.00335   0.35947  -0.02911
  0-1A  -> 10-1A    4.857990   39182.3   255.2   -2.33710   0.00072  -0.02274  -0.07740
  0-1A  -> 11-1A    4.920308   39685.0   252.0    0.03290  -0.00079   0.00239   0.00929
  0-1A  -> 12-1A    4.939981   39843.6   251.0   34.19450  -0.01426  -0.00948   0.90901
  0-1A  -> 13-1A    5.102929   41157.9   243.0    0.01912  -0.00125  -0.00247   0.00009
  0-1A  -> 14-1A    5.275987   42553.7   235.0   11.29940  -0.02824   0.01256   0.62426
  0-1A  -> 15-1A    5.319068   42901.2   233.1   -8.15226  -0.00703   0.00583   0.17761
  0-1A  -> 16-1A    5.437544   43856.8   228.0    0.10703  -0.08582  -0.00259  -0.09697
  0-1A  -> 17-1A    5.510224   44443.0   225.0   -0.02519  -0.00036   0.00198   0.01349
  0-1A  -> 18-1A    5.563399   44871.8   222.9    2.37253   0.02416   0.00558  -0.00106
  0-1A  -> 19-1A    5.653555   45599.0   219.3   -0.81559  -0.00732  -0.03149  -0.00387
  0-1A  -> 20-1A    5.740500   46300.3   216.0    0.00004   0.00774   0.05302  -0.00263
  0-1A  -> 21-1A    5.793920   46731.1   214.0    2.60503   0.00749   0.13714   0.01046
  0-1A  -> 22-1A    5.905329   47629.7   210.0   -7.65491  -0.00438   0.00004  -0.22679
  0-1A  -> 23-1A    5.930416   47832.0   209.1   -3.47538  -0.02418  -0.01388  -0.01461
  0-1A  -> 24-1A    5.970608   48156.2   207.7   -0.80382   0.01447   0.00102   0.00005
  0-1A  -> 25-1A    6.006457   48445.3   206.4   -0.05614   0.02236  -0.00398   0.05232
  0-1A  -> 26-1A    6.137215   49500.0   202.0    1.15975   0.01403   0.10151   0.00320
  0-1A  -> 27-1A    6.241039   50337.4   198.7   -5.88466   0.32826   0.00446   0.00606
  0-1A  -> 28-1A    6.267992   50554.8   197.8  -14.32806   0.04135  -0.36475  -0.00624
  0-1A  -> 29-1A    6.339018   51127.6   195.6   14.48603  -0.48308   0.03166  -0.01764
  0-1A  -> 30-1A    6.356771   51270.8   195.0    5.55139   0.19817   0.08785  -0.01928

Total run time:    14783.331 sec

           *** ORCA-CIS/TD-DFT FINISHED WITHOUT ERROR ***
-----------------------
CIS/TD-DFT TOTAL ENERGY
-----------------------

    E(SCF)  =  -1267.407609088 Eh
    DE(CIS) =      0.064134685 Eh (Root  1)
    ----------------------------- ---------
    E(tot)  =  -1267.343474403 Eh


Maximum memory used throughout the entire CIS-calculation: 2693.1 MB
=> NOW LEAVING ORCA_CIS

-------------------------   --------------------
FINAL SINGLE POINT ENERGY     -1267.343474403344
-------------------------   --------------------



           ************************************************************
           *        Program running with 4 parallel MPI-processes     *
           *              working on a common directory               *
           ************************************************************

------------------------------------------------------------------------------
                              ORCA PROPERTY CALCULATIONS
------------------------------------------------------------------------------

GBWName                                 ... tddft.gbw
Number of atoms                         ...     44
Number of basis functions               ...    915
Max core memory                         ...   3000 MB

Electric properties:
Dipole moment                           ... YES
Quadrupole moment                       ...  NO
Static polarizability (Dipole/Dipole)   ...  NO
Static polarizability (Dipole/Quad.)    ...  NO
Static polarizability (Quad./Quad.)     ...  NO
Static polarizability (Velocity)        ...  NO
Static hyperpolarizability              ...  NO

Atomic electric properties:
Dipole moment                           ...  NO
Quadrupole moment                       ...  NO
Static polarizability                   ...  NO

Choice of electric origin               ... Center of mass
Position of electric origin             ...    -0.040203    -0.009067     0.343195

General magnetic properties:
Magnetizability                         ...  NO

EPR properties:
g-Tensor (aka g-matrix)                 ...  NO
Zero-Field splitting spin-orbit         ...  NO
Zero-field splitting spin-spin          ...  NO
Hyperfine couplings                     ...  NO (   0 nuclei)
Quadrupole couplings                    ...  NO (   0 nuclei)
Contact density                         ...  NO (   0 nuclei)

NMR properties:
Chemical shifts                         ...  NO (   0 nuclei)
Spin-rotation constants                 ...  NO (   0 nuclei)
Spin-spin couplings                     ...  NO (   0 nuclei,    0 pairs)

Choice of magnetic origin               ... GIAO
Position of magnetic origin             ...     0.000000     0.000000     0.000000

Properties with geometric perturbations:
SCF Hessian                             ...  NO
IR spectrum                             ...  NO
VCD spectrum                            ...  NO
X-ray spectroscopy properties:
SCF XES/XAS/RIXS spectra                ...  NO

SCF SOC stabilization energy            ...  NO
Diagonal Born-Oppenheimer correction    ...  NO

-------------
DIPOLE MOMENT
-------------

Method             : SCF
Type of density    : Electron Density
Multiplicity       :   1
Irrep              :   0
Energy             : -1267.4076090878945706 Eh
Basis              : AO
                                X                 Y                 Z
Electronic contribution:     -0.236402866       0.178622753      -0.784042114
Nuclear contribution   :      0.871965853      -0.262371262       2.077979131
                        -----------------------------------------
Total Dipole Moment    :      0.635562987      -0.083748509       1.293937017
                        -----------------------------------------
Magnitude (a.u.)       :      1.444031553
Magnitude (Debye)      :      3.670436514



--------------------
Rotational spectrum 
--------------------
 
Rotational constants in cm-1:             0.008440             0.007806             0.004278 
Rotational constants in MHz :           253.032612           234.030468           128.263522 

Dipole components along the rotational axes: 
x,y,z [a.u.] :    -0.658518    -0.086587     1.282218 
x,y,z [Debye]:    -1.673819    -0.220086     3.259140 

 

Dipole moment calculation done in   0.2 sec 

Maximum memory used throughout the entire PROP-calculation: 100.1 MB

--------------------------------
SUGGESTED CITATIONS FOR THIS RUN
--------------------------------

Below you find a list of papers that are relevant to this ORCA run
We neither can nor want to force you to cite these papers, but we appreciate if you do
You receive ORCA, which is the product of decades of hard work by many enthusiastic individuals, for free
The only thing we kindly ask in return is that you cite our papers,
We deeply appreciate it, if you show your appreciation for ORCA by not just citing the generic ORCA reference.

Please note that relegating all ORCA citations to the supporting information does *not* help us.
SI sections are not indexed - citations you put there will not count into any citation statistics
But we need these citations in order to attract the funding resources that allow us to do what we are doing

Therefore, if you are a happy ORCA user, please consider citing a few of the papers listed below in the main body of your paper

In addition to the list printed below, the program has created the file tddft.bibtex that contains the list in bibtex format
You can import this file easily into all common literature databanks and citation aid programs

It goes without saying that in many instances, there are alternative algorithms to achieve similar
results as the ones you have gotten from ORCA. It is, of course, also the case that in some instances
ORCA just re-implements algorithms worked out by others. We are fully aware of that and we are also
fully appreciative of our colleagues work. Hence this citation list should not be read as indicating
that the listed papers, which are focused on our own work, are the only ones worth citing. It simply
meant to make it easier for users to cite ORCA specific papers. It is not a substitute for doing your
own literature research and citing the relevant literature in a scientifically appropriate manner.

List of essential papers. We consider these as the minimum necessary citations

  1. Neese, F.
     Software update: the ORCA program system, version 6.0
     WIRES Comput. Molec. Sci. 2025 15(1), e70019
     doi.org/10.1002/wcms.70019

List of papers to cite with high priority. The work reported in these papers was absolutely
necessary for this run to complete.
Our perspective: the developers of density functionals and basis sets usually get cited in chemistry papers
Good! But without the algorithms to do something with them, the functionals or basis sets would not do anything.
Hence, in our opinion, the algorithm design and method developments papers are equally worthy of getting cited

  1. Neese, F.; Olbrich, G.
     Efficient use of the resolution of the identity approximation in time-dependent density functional calculations with hybrid density functionals
     Chem. Phys. Lett. 2002 362 , 170-178
     doi.org/10.1016/s0009-2614(02)01053-9
  2. Neese, F.
     An improvement of the resolution of the identity approximation for the formation of the Coulomb matrix
     J. Comp. Chem. 2003 24(14), 1740-1747
     doi.org/10.1002/jcc.10318
  3. Neese, F.; Wennmohs, F.; Hansen, A.; Becker, U.
     Efficient, approximate and parallel Hartree-Fock and hybrid DFT calculations. A 'chain-of-spheres' algorithm for the Hartree-Fock exchange
     Chem. Phys. 2009 356(1-3), 98-109
     doi.org/10.1016/j.chemphys.2008.10.036
  4. Garcia-Rates, M.; Neese, F.
     Effect of the Solute Cavity on the Solvation Energy and its Derivatives within the Framework of the Gaussian Charge Scheme
     J. Comput. Chem. 2020 41 , 922-939
     doi.org/10.1002/jcc.26139
  5. Helmich-Paris, B.; de Souza, B.; Neese, F.; Izsák, R.
     An improved chain of spheres for exchange algorithm
     J. Chem. Phys. 2021 155(10), 104109
     doi.org/10.1063/5.0058766
  6. Neese, F.
     The SHARK Integral Generation and Digestion System
     J. Comp. Chem. 2022 44(3), 381
     doi.org/10.1002/jcc.26942

List of suggested additional citations. These are papers that are important in the 'surrounding' of 
of this run, or papers that preceded the highly important papers. If you like your results we are grateful for a citation.

  1. Izsak, R.; Neese, F.
     An overlap fitted chain of spheres exchange method
     J. Chem. Phys. 2011 135 , 144105
     doi.org/10.1063/1.3646921
  2. Izsak, R.; Hansen, A.; Neese, F.
     The resolution of identity and chain of spheres approximations for the LPNO-CCSD singles Fock term
     Molec. Phys. 2012 110 , 2413-2417
     doi.org/10.1080/00268976.2012.687466
  3. Neese, F.
     The ORCA program system
     WIRES Comput. Molec. Sci. 2012 2(1), 73-78
     doi.org/10.1002/wcms.81
  4. Izsak, R.; Neese, F.; Klopper, W.
     Robust fitting techniques in the chain of spheres approximation to the Fock exchange: The role of the complementary space
     J. Chem. Phys. 2013 139 , 
     doi.org/10.1063/1.4819264
  5. Neese, F.
     Software update: the ORCA program system, version 4.0
     WIRES Comput. Molec. Sci. 2018 8(1), 1-6
     doi.org/10.1002/wcms.1327
  6. Neese, F.; Wennmohs, F.; Becker, U.; Riplinger, C.
     The ORCA quantum chemistry program package
     J. Chem. Phys. 2020 152(22), 224108
     doi.org/10.1063/5.0004608
  7. Neese, F.
     Software update: The ORCA program system—Version 5.0
     WIRES Comput. Molec. Sci. 2022 12(1), e1606
     doi.org/10.1002/wcms.1606

List of optional additional citations

  1. Neese, F.
     Approximate second-order SCF convergence for spin unrestricted wavefunctions
     Chem. Phys. Lett. 2000 325(1-3), 93-98
     doi.org/10.1016/s0009-2614(00)00662-x

Timings for individual modules:

Sum of individual times          ...    16091.864 sec (= 268.198 min)
Startup calculation              ...       18.804 sec (=   0.313 min)   0.1 %
SCF iterations                   ...     1285.353 sec (=  21.423 min)   8.0 %
Property integrals               ...        1.566 sec (=   0.026 min)   0.0 %
Property calculations            ...        1.748 sec (=   0.029 min)   0.0 %
CIS module                       ...    14784.393 sec (= 246.407 min)  91.9 %
                             ****ORCA TERMINATED NORMALLY****
TOTAL RUN TIME: 0 days 4 hours 28 minutes 12 seconds 263 msec
