
                                 *****************
                                 * O   R   C   A *
                                 *****************

                                            #,                                       
                                            ###                                      
                                            ####                                     
                                            #####                                    
                                            ######                                   
                                           ########,                                 
                                     ,,################,,,,,                         
                               ,,#################################,,                 
                          ,,##########################################,,             
                       ,#########################################, ''#####,          
                    ,#############################################,,   '####,        
                  ,##################################################,,,,####,       
                ,###########''''           ''''###############################       
              ,#####''   ,,,,##########,,,,          '''####'''          '####       
            ,##' ,,,,###########################,,,                        '##       
           ' ,,###''''                  '''############,,,                           
         ,,##''                                '''############,,,,        ,,,,,,###''
      ,#''                                            '''#######################'''  
     '                                                          ''''####''''         
             ,#######,   #######,   ,#######,      ##                                
            ,#'     '#,  ##    ##  ,#'     '#,    #''#        ,####,    ,#,          
            ##       ##  ##   ,#'  ##            #'  '#       #'       ,# #          
            ##       ##  #######   ##           ,######,      #####,      #          
            '#,     ,#'  ##    ##  '#,     ,#' ,#      #,     #,   #      #          
             '#######'   ##     ##  '#######'  #'      '#     '####' #    #          



                #########################################################
                #                        -***-                          #
                #          Department of theory and spectroscopy        #
                #                                                       #
                #                      Frank Neese                      #
                #                                                       #
                #     Directorship, Architecture, Infrastructure        #
                #                    SHARK, DRIVERS                     #
                #        Core code/Algorithms in most modules           #
                #                                                       #
                #        Max Planck Institute fuer Kohlenforschung      #
                #                Kaiser Wilhelm Platz 1                 #
                #                 D-45470 Muelheim/Ruhr                 #
                #                      Germany                          #
                #                                                       #
                #                  All rights reserved                  #
                #                        -***-                          #
                #########################################################


                         Program Version 6.1.1  -  RELEASE   -
                                (GIT: $487d211c$)
                          ($2025-11-21 10:33:24 +0100$)


 With contributions from (in alphabetic order):
[Max-Planck-Institut fuer Kohlenforschung]                               
  Daniel Aravena         : Magnetic Suceptibility                        
  Michael Atanasov       : Ab Initio Ligand Field Theory (pilot matlab implementation)
  Alexander A. Auer      : GIAO ZORA, VPT2 properties, NMR spectrum      
  Ute Becker             : All parallelization in ORCA, NUMFREQ, NUMCALC 
  Giovanni Bistoni       : ED, misc. LED, open-shell LED, HFLD           
  Dmytro Bykov           : pre 5.0 version of the SCF Hessian            
  Marcos Casanova-Páez   : Triplet and SCS-CIS(D). UHF-(DLPNO)-IP/EA/STEOM-CCSD. UHF-CVS-IP/STEOM-CCSD   
  Vijay G. Chilkuri      : MRCI spin determinant printing, contributions to CSF-ICE 
  Pauline Colinet        : FMM embedding                                 
  Dipayan Datta          : RHF DLPNO-CCSD density                        
  Achintya Kumar Dutta   : EOM-CC, STEOM-CC                              
  Nicolas Foglia         : Exact transition moments, OPA infrastructure, MCD improvements    
  Dmitry Ganyushin       : Spin-Orbit,Spin-Spin,Magnetic field MRCI      
  Miquel Garcia-Rates    : C-PCM and meta-GGA Hessian, CCSD/C-PCM, Gaussian charge scheme 
  Tiago L. C. Gouveia    : GS-ROHF, GS-ROCIS                             
  Yang Guo               : DLPNO-NEVPT2, F12-NEVPT2, CIM, IAO-localization        
  Andreas Hansen         : Spin unrestricted coupled pair/coupled cluster methods 
  Ingolf Harden          : AUTO-CI MPn and infrastructure                
  Benjamin Helmich-Paris : MC-RPA, TRAH-(SCF,CASSCF), AVAS, COSX integrals, SCF dyn. polar., MC-PDFT, srDFT 
  Lee Huntington         : MR-EOM, pCC                                   
  Robert Izsak           : Overlap fitted RIJCOSX, COSX-SCS-MP3, EOM     
  Riya Kayal             : Wick's Theorem for AUTO-CI, AUTO-CI UHF-CCSDT 
  Emily Kempfer          : AUTO-CI RHF CISDT and CCSDT, approximate NEVPT4
  Christian Kollmar      : KDIIS, OOCD, Brueckner-CCSD(T), CCSD density, CASPT2, CASPT2-K, improved NEVPT2 
  Axel Koslowski         : Symmetry handling                             
  Simone Kossmann        : meta-GGA functionals, TD-DFT gradient, OOMP2, (MP2 Hessian; deprecated post 5.0) 
  Lucas Lang             : DCDCAS, Hyperfine gauge corrections, ICE-SOC+SSC
  Marvin Lechner         : AUTO-CI (C++ implementation), FIC-MRCC        
  Spencer Leger          : CASSCF response                               
  Dagmar Lenk            : GEPOL surface, SMD, ORCA-2-JSON               
  Dimitrios Liakos       : Extrapolation schemes; Compound Job, Property file
  Dimitrios Manganas     : Further ROCIS development; embedding schemes. LFT, Crystal Embedding 
  Dimitrios Pantazis     : SARC Basis sets                               
  Anastasios Papadopoulos: AUTO-CI, single reference methods and gradients 
  Taras Petrenko         : pre 6.0 DFT Hessian and TD-DFT gradient,  ECA, NRVS 
  Petra Pikulova         : Analytic Raman intensities                    
  Peter Pinski           : DLPNO-MP2, DLPNO-MP2 Gradient                 
  Shashank Vittal Rao    : ES-AILFT, MagRelax                            
  Christoph Reimann      : Effective Core Potentials                     
  Marius Retegan         : Local ZFS, SOC                                
  Christoph Riplinger    : Optimizer, TS searches, QM/MM, DLPNO-CCSD(T), (RO)-DLPNO pert. Triples 
  Michael Roemelt        : Original ROCIS implementation, recursive CI coupling coefficients
  Masaaki Saitow         : Open-shell DLPNO-CCSD energy and density      
  Barbara Sandhoefer     : DKH picture change effects                    
  Yorick L. A. Schmerwitz: GMF and freeze-and-release deltaSCF, NEB S-IDPP initial path                    
  Kantharuban Sivalingam : CASSCF convergence/infrastructure, NEVPT2, NEVPT3, NEVPT4(SD), FIC-MRCI and CEPA variants
  Bernardo de Souza      : ESD, SOC TD-DFT                               
  Georgi L. Stoychev     : AutoAux, RI-MP2 NMR, DLPNO-MP2 response, X2C  
  Van Anh Tran           : RI-MP2 g-tensors                              
  Willem Van den Heuvel  : Paramagnetic NMR                              
  Zikuan Wang            : NOTCH, Electric field optimization            
  Frank Wennmohs         : Technical directorship and infrastructure     
  Hang Xu                : AUTO-CI-Response properties                   
                                                                         
[FACCTs GmbH]                                                            
  Markus Bursch, Nicolas Foglia, Miquel Garcia-Rates, Ingolf Harden, Hagen Neugebauer, Anastasios Papadopoulos, 
  Christoph Riplinger, Bernardo de Souza, Georgi L. Stoychev                                                    
                                                                 
  APM, various basis sets, CI-OPT, improved COSX, DLPNO-Multilevel,           
  DOCKER, DRACO, updates on ESD, Fragmentator, GOAT, IRC, LR-CPCM, L-BFGS, MBIS, meta-GGA TD-DFT gradient, ML-optimized integration grids, 
  MM, NACMEs, nearIR, NEB, NEB-TS, NL-DFT gradient (VV10), 2- and 3-layer-ONIOM, interface openCOSMO-RS, QMMM,   
  Crystal-QMMM, RESP, rigid body optimization, SF, symmetry and pop. for TD-DFT, various functionals, SOLVATOR                                   
                                                                         
[Other institutions]                                                     
  V. Asgeirsson          : NEB                                           
  Christoph Bannwarth    : sTDA-DFT, sTD-DFT, PBEh-3c, B97-3c, D3        
  Giovanni Bistoni       : ETS/NOCV, ADLD/ADEX, COVALED                  
  Martin Brehm           : Molecular dynamics                            
  Ronald Cardenas        : ETS/NOCV                                      
  Martina Colucci        : COVALED                                       
  Sebastian Ehlert       : rSCAN, r2SCAN, r2SCAN-3c, D4, dhf basis sets  
  Marvin Friede          : D4 for Fr, Ra, Ac-Lr                          
  Lars Goerigk           : TD-DFT with DH, B97 family of functionals     
  Stefan Grimme          : VdW corrections, initial TS optimization, DFT functionals, gCP, sTDA/sTD-DF 
  Waldemar Hujo          : DFT-NL                                        
  H. Jonsson             : NEB                                           
  Holger Kruse           : gCP                                           
  Marcel Mueller         : wB97X-3c, vDZP basis set                      
  Hagen Neugebauer       : wr2SCAN, Native XTB                           
  Gianluca Regni         : ADLD/ADEX                                     
  Tobias Risthaus        : pre 6.0 range-separated hybrid DFT and stability analysis
  Lukas Wittmann         : regularized MP2, r2SCAN double-hybrids, wr2SCAN        
                                                                         
We gratefully acknowledge several colleagues who have allowed us to      
interface, adapt or use parts of their codes:                            
  Ed Valeev, F. Pavosevic, A. Kumar             : LibInt (2-el integral package), F12 methods 
  Garnet Chan, S. Sharma, J. Yang, R. Olivares  : DMRG                   
  Ulf Ekstrom                                   : XCFun DFT Library      
  Mihaly Kallay                                 : mrcc  (arbitrary order and MRCC methods)
  Frank Weinhold                                : gennbo (NPA and NBO analysis)           
  Simon Mueller                                 : openCOSMO-RS                            
  Christopher J. Cramer and Donald G. Truhlar   : smd solvation model                     
  S Lehtola, MJT Oliveira, MAL Marques          : LibXC Library                           
  Liviu Ungur et al                             : ANISO software                          


 Your calculation uses the libint2 library for the computation of 2-el integrals
 For citations please refer to: http://libint.valeyev.net

 Your ORCA version has been built with support for libXC version: 7.0.0
 For citations please refer to: https://libxc.gitlab.io

 This ORCA versions uses:
   CBLAS   interface :  Fast vector & matrix operations
   LAPACKE interface :  Fast linear algebra routines
   SCALAPACK package :  Parallel linear algebra routines
   Shared memory     :  Shared parallel matrices
   BLAS/LAPACK       :  OpenBLAS 0.3.29  USE64BITINT DYNAMIC_ARCH NO_AFFINITY Haswell SINGLE_THREADED
        Core in use  :  Haswell
   Copyright (c) 2011-2014, The OpenBLAS Project


  ***********************************
  * Starting time: Tue Jul  7 19:47:10 2026
  * Host name:     steezy
  * Process ID:    1593016
  * Working dir.:  /home/jannes/chlorophyll-ladder/008-mgbacteriochlorin-axial-ligation/mgbacteriochlorin_h2o/03_tddft_ch2cl2/tpss
  ***********************************

NOTE: MaxCore=3000 MB was set to SCF,MP2,MDCI,CIPSI,MRCI,RASCI and CIS
      => If you want to overwrite this, your respective input block should be placed after the MaxCore statement


***************************************
The coordinates will be read from file: /home/jannes/chlorophyll-ladder/008-mgbacteriochlorin-axial-ligation/mgbacteriochlorin_h2o/01_opt/mgbacteriochlorin_h2o_opt_b3lypd4_tzvp.xyz
***************************************


================================================================================

----- Orbital basis set information -----
Your calculation utilizes the basis: def2-TZVP
   F. Weigend and R. Ahlrichs, Phys. Chem. Chem. Phys. 7, 3297 (2005).

----- AuxJ basis set information -----
Your calculation utilizes the auxiliary basis: def2/J
   H-Rn: F. Weigend, Phys. Chem. Chem. Phys. 8, 1057 (2006).
   Fr-Lr: K. Eichkorn, F. Weigend, O. Treutler, R. Ahlrichs; Theor. Chem. Acc. 97, 119 (1997).

================================================================================
                                        WARNINGS
                       Please study these warnings very carefully!
================================================================================



WARNING: Found flag for RIJCOSX approximation but no HF exchange needed!
  ===> : RIJCOSX  will be disabled and Split-RI-J is turned on

WARNING: CIS/ROCIS methods need fully converged wavefunctions
  ===> : Setting SCFConvForced true
         You can overwrite this default with %scf ConvForced false 


================================================================================
                                       INPUT FILE
================================================================================
NAME = tddft.inp
|  1> %pal nprocs 4 end
|  2> %maxcore 3000
|  3> ! TPSS def2-TZVP def2/J RIJCOSX DefGrid3 TightSCF CPCM(CH2Cl2)
|  4> %tddft
|  5>   nroots 30
|  6>   tda false
|  7>   triplets false
|  8> end
|  9> * xyzfile 0 1 /home/jannes/chlorophyll-ladder/008-mgbacteriochlorin-axial-ligation/mgbacteriochlorin_h2o/01_opt/mgbacteriochlorin_h2o_opt_b3lypd4_tzvp.xyz
| 10> 
| 11>                          ****END OF INPUT****
================================================================================

                       ****************************
                       * Single Point Calculation *
                       ****************************

---------------------------------
CARTESIAN COORDINATES (ANGSTROEM)
---------------------------------
  N     -2.156179    0.006114    0.036878
  N      2.102580   -0.004526    0.102992
  N     -0.032041   -2.040000    0.093616
  N     -0.018741    2.039836    0.083219
  C     -4.393036   -0.746615   -0.166870
  C      4.344044   -0.771023    0.178652
  C     -4.396683    0.774170    0.045307
  C      4.343804    0.743748   -0.070389
  C     -2.923497   -1.105288   -0.039037
  C      2.866903   -1.121763    0.137973
  C     -2.919147    1.121999    0.041477
  C      2.872913    1.105503    0.034517
  C     -1.133006   -2.850018    0.024587
  C      1.065546   -2.857221    0.116587
  C     -1.117205    2.855485    0.060628
  C      1.082524    2.850275    0.041163
  C     -2.460552   -2.404500   -0.034933
  C      2.397316   -2.418293    0.158356
  C     -2.448219    2.419005    0.059809
  C      2.411636    2.405893    0.022346
  C     -0.719897   -4.221529    0.011968
  C      0.646521   -4.226206    0.072013
  C     -0.697606    4.225313    0.015128
  C      0.669055    4.222145    0.001449
  H     -4.759027   -1.019902   -1.160331
  H     -5.005958   -1.284365    0.557426
  H      4.761766   -1.022683    1.157974
  H      4.915452   -1.329919   -0.562975
  H     -4.942672    1.315486   -0.728128
  H     -4.842336    1.051574    1.004576
  H      4.954192    1.300480    0.641562
  H      4.714943    0.989813   -1.069247
  H     -3.213681   -3.181014   -0.098020
  H      3.148300   -3.199118    0.182678
  H     -3.198630    3.200610    0.053346
  H      3.166310    3.181733   -0.029250
  H     -1.384098   -5.070165   -0.043494
  H      1.307513   -5.079195    0.074080
  H     -1.359495    5.077053   -0.013993
  H      1.334322    5.070706   -0.041147
  Mg    -0.040363    0.003360    0.290590
  O      0.028812   -0.090701    2.428612
  H      0.570655    0.585984    2.851620
  H      0.372811   -0.949552    2.705244

----------------------------
CARTESIAN COORDINATES (A.U.)
----------------------------
  NO LB      ZA    FRAG     MASS         X           Y           Z
   0 N     7.0000    0    14.007   -4.074588    0.011554    0.069689
   1 N     7.0000    0    14.007    3.973300   -0.008554    0.194628
   2 N     7.0000    0    14.007   -0.060548   -3.855042    0.176908
   3 N     7.0000    0    14.007   -0.035416    3.854732    0.157261
   4 C     6.0000    0    12.011   -8.301635   -1.410897   -0.315338
   5 C     6.0000    0    12.011    8.209054   -1.457022    0.337604
   6 C     6.0000    0    12.011   -8.308527    1.462969    0.085618
   7 C     6.0000    0    12.011    8.208601    1.405479   -0.133016
   8 C     6.0000    0    12.011   -5.524610   -2.088692   -0.073769
   9 C     6.0000    0    12.011    5.417661   -2.119826    0.260732
  10 C     6.0000    0    12.011   -5.516389    2.120272    0.078381
  11 C     6.0000    0    12.011    5.429018    2.089098    0.065227
  12 C     6.0000    0    12.011   -2.141070   -5.385753    0.046463
  13 C     6.0000    0    12.011    2.013591   -5.399366    0.220317
  14 C     6.0000    0    12.011   -2.111211    5.396084    0.114570
  15 C     6.0000    0    12.011    2.045674    5.386240    0.077788
  16 C     6.0000    0    12.011   -4.649769   -4.543847   -0.066014
  17 C     6.0000    0    12.011    4.530270   -4.569911    0.299249
  18 C     6.0000    0    12.011   -4.626464    4.571257    0.113022
  19 C     6.0000    0    12.011    4.557331    4.546479    0.042228
  20 C     6.0000    0    12.011   -1.360407   -7.977534    0.022616
  21 C     6.0000    0    12.011    1.221748   -7.986372    0.136085
  22 C     6.0000    0    12.011   -1.318284    7.984684    0.028587
  23 C     6.0000    0    12.011    1.264331    7.978698    0.002737
  24 H     1.0000    0     1.008   -8.993258   -1.927336   -2.192707
  25 H     1.0000    0     1.008   -9.459889   -2.427098    1.053383
  26 H     1.0000    0     1.008    8.998434   -1.932590    2.188254
  27 H     1.0000    0     1.008    9.288858   -2.513182   -1.063869
  28 H     1.0000    0     1.008   -9.340296    2.485908   -1.375963
  29 H     1.0000    0     1.008   -9.150688    1.987186    1.898373
  30 H     1.0000    0     1.008    9.362067    2.457550    1.212376
  31 H     1.0000    0     1.008    8.909951    1.870475   -2.020583
  32 H     1.0000    0     1.008   -6.072977   -6.011245   -0.185232
  33 H     1.0000    0     1.008    5.949425   -6.045457    0.345212
  34 H     1.0000    0     1.008   -6.044536    6.048277    0.100809
  35 H     1.0000    0     1.008    5.983459    6.012604   -0.055274
  36 H     1.0000    0     1.008   -2.615566   -9.581222   -0.082191
  37 H     1.0000    0     1.008    2.470842   -9.598288    0.139991
  38 H     1.0000    0     1.008   -2.569074    9.594239   -0.026442
  39 H     1.0000    0     1.008    2.521504    9.582246   -0.077757
  40 Mg   12.0000    0    24.305   -0.076275    0.006349    0.549136
  41 O     8.0000    0    15.999    0.054446   -0.171401    4.589411
  42 H     1.0000    0     1.008    1.078383    1.107349    5.388782
  43 H     1.0000    0     1.008    0.704511   -1.794393    5.112171

--------------------------------
INTERNAL COORDINATES (ANGSTROEM)
--------------------------------
 N      0   0   0     0.000000000000     0.00000000     0.00000000
 N      1   0   0     4.259285829235     0.00000000     0.00000000
 N      2   1   0     2.949550369100    43.78457817     0.00000000
 N      2   1   3     2.946152376679    43.79838596   181.03669561
 C      1   2   3     2.368890537971   160.85438094   346.76925813
 C      2   1   3     2.370106324845   161.24635194   357.59335046
 C      5   1   2     1.535518542595    71.07386358   184.88469291
 C      6   2   1     1.535106411509    71.06808885   173.37883935
 C      1   2   3     1.352684496835   124.47205820   356.04317936
 C      2   1   3     1.354116544231   124.52989936   359.47985145
 C      1   2   3     1.351791916111   124.49621974   178.48738058
 C      2   1   3     1.352873575595   124.50645671   176.53011320
 C      3   2   1     1.368582006516   172.22153724    19.35498761
 C      3   2   1     1.368603548823    80.30628569   179.84920352
 C      4   2   1     1.368362098294   172.63267473   356.47709650
 C      4   2   1     1.367978468433    80.30841674   182.73698194
 C      9   1   2     1.379234208357   125.68919730     3.65507770
 C     10   2   1     1.379099740346   125.72217239   359.96022644
 C     11   1   2     1.379975901185   125.68221746     0.41613129
 C     12   2   1     1.379832763259   125.68670198     4.54099452
 C     13   3  14     1.432432135038   109.58081178     0.37123379
 C     21  13   3     1.367744202265   106.91809471   359.89479433
 C     15   4  16     1.433374681345   109.58339486   359.46208186
 C     23  15   4     1.366732810082   106.90721094     0.40366842
 H      5   1   2     1.093435256433   118.26984707   290.10139938
 H      5   1   2     1.090620064460   129.06674261    79.82521641
 H      6   2   1     1.094027077664   117.64966573   278.72183082
 H      6   2   1     1.090358882379   129.76699462    68.39427391
 H      7   5   1     1.090563856191   113.25301698   125.44994526
 H      7   5   1     1.093506087998   111.92751164   246.50090329
 H      8   6   2     1.090595237110   113.43627246   126.32484931
 H      8   6   2     1.093621602711   111.72423857   247.29927140
 H     17   9   1     1.083585621267   116.20429390   179.71961492
 H     18  10   2     1.083631421493   116.21724037   179.80230125
 H     19  11   1     1.083542978229   116.20300698   179.55103495
 H     20  12   2     1.083569967529   116.25523453   179.58467236
 H     21  13   3     1.079083581233   125.16490024   180.35946823
 H     22  21  13     1.079122759318   127.93158749   180.52927258
 H     23  15   4     1.079076840007   125.14351488   179.74624991
 H     24  23  15     1.079097217377   127.95509224   179.30511111
 Mg     4   2   1     2.047122040207    46.89198746     8.49657532
 O     41   4   2     2.141207087278    98.30876720    93.03965604
 H     42  41   4     0.964590073126   115.16428813   323.59763969
 H     42  41   4     0.965652962433   109.67138309   202.41045368

---------------------------
INTERNAL COORDINATES (A.U.)
---------------------------
 N      0   0   0     0.000000000000     0.00000000     0.00000000
 N      1   0   0     8.048883743346     0.00000000     0.00000000
 N      2   1   0     5.573842415805    43.78457817     0.00000000
 N      2   1   3     5.567421140724    43.79838596   181.03669561
 C      1   2   3     4.476554358002   160.85438094   346.76925813
 C      2   1   3     4.478851862231   161.24635194   357.59335046
 C      5   1   2     2.901709519062    71.07386358   184.88469291
 C      6   2   1     2.900930704179    71.06808885   173.37883935
 C      1   2   3     2.556203244620   124.47205820   356.04317936
 C      2   1   3     2.558909422008   124.52989936   359.47985145
 C      1   2   3     2.554516511499   124.49621974   178.48738058
 C      2   1   3     2.556560551694   124.50645671   176.53011320
 C      3   2   1     2.586245184128   172.22153724    19.35498761
 C      3   2   1     2.586285893188    80.30628569   179.84920352
 C      4   2   1     2.585829617813   172.63267473   356.47709650
 C      4   2   1     2.585104662439    80.30841674   182.73698194
 C      9   1   2     2.606374928330   125.68919730     3.65507770
 C     10   2   1     2.606120820617   125.72217239   359.96022644
 C     11   1   2     2.607776524652   125.68221746     0.41613129
 C     12   2   1     2.607506033171   125.68670198     4.54099452
 C     13   3  14     2.706904440650   109.58081178     0.37123379
 C     21  13   3     2.584661963539   106.91809471   359.89479433
 C     15   4  16     2.708685595039   109.58339486   359.46208186
 C     23  15   4     2.582750709299   106.90721094     0.40366842
 H      5   1   2     2.066293179833   118.26984707   290.10139938
 H      5   1   2     2.060973237989   129.06674261    79.82521641
 H      6   2   1     2.067411559879   117.64966573   278.72183082
 H      6   2   1     2.060479675386   129.76699462    68.39427391
 H      7   5   1     2.060867019754   113.25301698   125.44994526
 H      7   5   1     2.066427032092   111.92751164   246.50090329
 H      8   6   2     2.060926321097   113.43627246   126.32484931
 H      8   6   2     2.066645323265   111.72423857   247.29927140
 H     17   9   1     2.047680066850   116.20429390   179.71961492
 H     18  10   2     2.047766616733   116.21724037   179.80230125
 H     19  11   1     2.047599483185   116.20300698   179.55103495
 H     20  12   2     2.047650485571   116.25523453   179.58467236
 H     21  13   3     2.039172444141   125.16490024   180.35946823
 H     22  21  13     2.039246479993   127.93158749   180.52927258
 H     23  15   4     2.039159705070   125.14351488   179.74624991
 H     24  23  15     2.039198212719   127.95509224   179.30511111
 Mg     4   2   1     3.868500018706    46.89198746     8.49657532
 O     41   4   2     4.046294990966    98.30876720    93.03965604
 H     42  41   4     1.822811069707   115.16428813   323.59763969
 H     42  41   4     1.824819639409   109.67138309   202.41045368

---------------------
BASIS SET INFORMATION
---------------------
There are 5 groups of distinct atoms

 Group   1 Type N   : 11s6p2d1f contracted to 5s3p2d1f pattern {62111/411/11/1}
 Group   2 Type C   : 11s6p2d1f contracted to 5s3p2d1f pattern {62111/411/11/1}
 Group   3 Type H   : 5s1p contracted to 3s1p pattern {311/1}
 Group   4 Type Mg  : 14s8p3d contracted to 5s4p3d pattern {73211/5111/111}
 Group   5 Type O   : 11s6p2d1f contracted to 5s3p2d1f pattern {62111/411/11/1}

Atom   0N    basis set group =>   1
Atom   1N    basis set group =>   1
Atom   2N    basis set group =>   1
Atom   3N    basis set group =>   1
Atom   4C    basis set group =>   2
Atom   5C    basis set group =>   2
Atom   6C    basis set group =>   2
Atom   7C    basis set group =>   2
Atom   8C    basis set group =>   2
Atom   9C    basis set group =>   2
Atom  10C    basis set group =>   2
Atom  11C    basis set group =>   2
Atom  12C    basis set group =>   2
Atom  13C    basis set group =>   2
Atom  14C    basis set group =>   2
Atom  15C    basis set group =>   2
Atom  16C    basis set group =>   2
Atom  17C    basis set group =>   2
Atom  18C    basis set group =>   2
Atom  19C    basis set group =>   2
Atom  20C    basis set group =>   2
Atom  21C    basis set group =>   2
Atom  22C    basis set group =>   2
Atom  23C    basis set group =>   2
Atom  24H    basis set group =>   3
Atom  25H    basis set group =>   3
Atom  26H    basis set group =>   3
Atom  27H    basis set group =>   3
Atom  28H    basis set group =>   3
Atom  29H    basis set group =>   3
Atom  30H    basis set group =>   3
Atom  31H    basis set group =>   3
Atom  32H    basis set group =>   3
Atom  33H    basis set group =>   3
Atom  34H    basis set group =>   3
Atom  35H    basis set group =>   3
Atom  36H    basis set group =>   3
Atom  37H    basis set group =>   3
Atom  38H    basis set group =>   3
Atom  39H    basis set group =>   3
Atom  40Mg   basis set group =>   4
Atom  41O    basis set group =>   5
Atom  42H    basis set group =>   3
Atom  43H    basis set group =>   3
---------------------------------
AUXILIARY/J BASIS SET INFORMATION
---------------------------------
There are 5 groups of distinct atoms

 Group   1 Type N   : 12s5p4d2f1g contracted to 6s4p3d1f1g pattern {711111/2111/211/2/1}
 Group   2 Type C   : 12s5p4d2f1g contracted to 6s4p3d1f1g pattern {711111/2111/211/2/1}
 Group   3 Type H   : 5s2p1d contracted to 3s1p1d pattern {311/2/1}
 Group   4 Type Mg  : 14s5p5d2f1g contracted to 8s4p4d1f1g pattern {71111111/2111/2111/2/1}
 Group   5 Type O   : 12s5p4d2f1g contracted to 6s4p3d1f1g pattern {711111/2111/211/2/1}

Atom   0N    basis set group =>   1
Atom   1N    basis set group =>   1
Atom   2N    basis set group =>   1
Atom   3N    basis set group =>   1
Atom   4C    basis set group =>   2
Atom   5C    basis set group =>   2
Atom   6C    basis set group =>   2
Atom   7C    basis set group =>   2
Atom   8C    basis set group =>   2
Atom   9C    basis set group =>   2
Atom  10C    basis set group =>   2
Atom  11C    basis set group =>   2
Atom  12C    basis set group =>   2
Atom  13C    basis set group =>   2
Atom  14C    basis set group =>   2
Atom  15C    basis set group =>   2
Atom  16C    basis set group =>   2
Atom  17C    basis set group =>   2
Atom  18C    basis set group =>   2
Atom  19C    basis set group =>   2
Atom  20C    basis set group =>   2
Atom  21C    basis set group =>   2
Atom  22C    basis set group =>   2
Atom  23C    basis set group =>   2
Atom  24H    basis set group =>   3
Atom  25H    basis set group =>   3
Atom  26H    basis set group =>   3
Atom  27H    basis set group =>   3
Atom  28H    basis set group =>   3
Atom  29H    basis set group =>   3
Atom  30H    basis set group =>   3
Atom  31H    basis set group =>   3
Atom  32H    basis set group =>   3
Atom  33H    basis set group =>   3
Atom  34H    basis set group =>   3
Atom  35H    basis set group =>   3
Atom  36H    basis set group =>   3
Atom  37H    basis set group =>   3
Atom  38H    basis set group =>   3
Atom  39H    basis set group =>   3
Atom  40Mg   basis set group =>   4
Atom  41O    basis set group =>   5
Atom  42H    basis set group =>   3
Atom  43H    basis set group =>   3


           ************************************************************
           *        Program running with 4 parallel MPI-processes     *
           *              working on a common directory               *
           ************************************************************
------------------------------------------------------------------------------
                             ORCA STARTUP CALCULATIONS
                           -- RI-GTO INTEGRALS CHOSEN --
------------------------------------------------------------------------------
------------------------------------------------------------------------------
                   ___                                                        
                  /   \      - P O W E R E D   B Y -                         
                 /     \                                                     
                 |  |  |   _    _      __       _____    __    __             
                 |  |  |  | |  | |    /  \     |  _  \  |  |  /  |          
                  \  \/   | |  | |   /    \    | | | |  |  | /  /          
                 / \  \   | |__| |  /  /\  \   | |_| |  |  |/  /          
                |  |  |   |  __  | /  /__\  \  |    /   |      \           
                |  |  |   | |  | | |   __   |  |    \   |  |\   \          
                \     /   | |  | | |  |  |  |  | |\  \  |  | \   \       
                 \___/    |_|  |_| |__|  |__|  |_| \__\ |__|  \__/        
                                                                              
                      - O R C A' S   B I G   F R I E N D -                    
                                      &                                       
                       - I N T E G R A L  F E E D E R -                       
                                                                              
 v1 FN, 2020, v2 2021, v3 2022-2024                                           
------------------------------------------------------------------------------


----------------------
SHARK INTEGRAL PACKAGE
----------------------

Number of atoms                             ...     44
Number of basis functions                   ...    915
Number of shells                            ...    359
Maximum angular momentum                    ...      3
Integral batch strategy                     ... SHARK/LIBINT Hybrid
RI-J (if used) integral strategy            ... SPLIT-RIJ (Revised 2003 algorithm where possible)
Printlevel                                  ...      1
Contraction scheme used                     ... SEGMENTED contraction
Prescreening option                         ... SCHWARTZ
   Thresh                                   ... 2.500e-11
   Tcut                                     ... 2.500e-12
   Tpresel                                  ... 2.500e-12 
Coulomb Range Separation                    ... NOT USED
Exchange Range Separation                   ... NOT USED
Multipole approximations                    ... NOT USED
Finite Nucleus Model                        ... NOT USED
CABS basis                                  ... NOT available
Auxiliary Coulomb fitting basis             ... AVAILABLE
   # of basis functions in Aux-J            ...   1479
   # of shells in Aux-J                     ...    483
   Maximum angular momentum in Aux-J        ...      4
Auxiliary J/K fitting basis                 ... NOT available
Auxiliary Correlation fitting basis         ... NOT available
Auxiliary 'external' fitting basis          ... NOT available

Checking pre-screening integrals            ... done (  0.0 sec) Dimension = 359
   => SHARK Basis and OBASIS are compatible. Storing Pre-screening
Shell pair information
Shell pair cut-off parameter TPreSel        ...   2.5e-12
Total number of shell pairs                 ...     64620
Shell pairs after pre-screening             ...     45394
Total number of primitive shell pairs       ...    201300
Primitive shell pairs kept                  ...     92130
          la=0 lb=0:  11348 shell pairs
          la=1 lb=0:  13107 shell pairs
          la=1 lb=1:   3774 shell pairs
          la=2 lb=0:   6618 shell pairs
          la=2 lb=1:   3900 shell pairs
          la=2 lb=2:   1045 shell pairs
          la=3 lb=0:   2836 shell pairs
          la=3 lb=1:   1724 shell pairs
          la=3 lb=2:    855 shell pairs
          la=3 lb=3:    187 shell pairs

Checking whether 4 symmetric matrices of dimension 915 fit in memory
:Max Core in MB      =   3000.00
 MB in use           =     58.25
 MB left             =   2941.75
 MB needed           =     12.79
 Data fit in memory  = YES
Calculating RI/J V-Matrix + Cholesky decomp.... done (  0.2 sec)
Calculating Nuclear repulsion               ... done (  0.0 sec) ENN=   2431.746330796860 Eh

Diagonalization of the overlap matrix:
Smallest eigenvalue                        ... 1.028e-05
Time for diagonalization                   ...    0.234 sec
Threshold for overlap eigenvalues          ... 1.000e-07
Number of eigenvalues below threshold      ... 0
Time for construction of square roots      ...    0.134 sec
Total time needed                          ...    0.379 sec

-------------------
DFT GRID GENERATION
-------------------

General Integration Accuracy     IntAcc      ... 4.959
Radial Grid Type                 RadialGrid  ... OptM3 with GC (2021)
Angular Grid (max. ang.)         AngularGrid ... 6 (Lebedev-590)
Angular grid pruning method      GridPruning ... 4 (adaptive)
Weight generation scheme         WeightScheme... mBecke (2022)
Basis function cutoff            BFCut       ... 1.0000e-11
Integration weight cutoff        WCut        ... 1.0000e-14
Partially contracted basis set               ... off
Rotationally invariant grid construction     ... off
Angular grids for H and He will be reduced by one unit

Total number of grid points                  ...   520431
Total number of batches                      ...     8155
Average number of points per batch           ...       63
Average number of grid points per atom       ...    11828
Grids setup in   9.6 sec
Initializing property integral containers    ... done (  0.0 sec)

SHARK setup successfully completed in  11.2 seconds

Maximum memory used throughout the entire STARTUP-calculation: 172.9 MB


           ************************************************************
           *        Program running with 4 parallel MPI-processes     *
           *              working on a common directory               *
           ************************************************************
-------------------------------------------------------------------------------
                                 ORCA GUESS
                   Start orbitals & Density for SCF / CASSCF
-------------------------------------------------------------------------------

------------
SCF SETTINGS
------------
Hamiltonian:
 Density Functional     Method          .... DFT(GTOs)
 Exchange Functional    Exchange        .... TPSS
 Correlation Functional Correlation     .... TPSS
 LDA part of GGA corr.  LDAOpt          .... PW91-LDA
 Gradients option       PostSCFGGA      .... off
   NL short-range parameter             ....  5.000000
 RI-approximation to the Coulomb term is turned on
   Number of AuxJ basis functions       .... 1479


General Settings:
 Integral files         IntName         .... tddft
 Hartree-Fock type      HFTyp           .... RHF
 Total Charge           Charge          ....    0
 Multiplicity           Mult            ....    1
 Number of Electrons    NEL             ....  186
 Basis Dimension        Dim             ....  915
 Nuclear Repulsion      ENuc            ....   2431.7463307969 Eh

Convergence Acceleration:
 AO-DIIS                CNVDIIS         .... on
   Start iteration      DIISMaxIt       ....    12
   Startup error        DIISStart       ....  0.200000
   # of expansion vecs  DIISMaxEq       ....     5
   Bias factor          DIISBfac        ....   1.050
   Max. coefficient     DIISMaxC        ....  10.000
 MO-DIIS                CNVKDIIS        .... off
 Trust-Rad. Augm. Hess. CNVTRAH         .... auto
   Auto Start mean grad. ratio tolernc. ....  1.125000
   Auto Start start iteration           ....    50
   Auto Start num. interpolation iter.  ....    10
   Max. Number of Micro iterations      ....    24
   Max. Number of Macro iterations      .... Maxiter - #DIIS iter
   Number of Davidson start vectors     ....     2
   Converg. threshold    (grad. norm)   ....   1.000e-05
   Grad. Scal. Fac. for Micro threshold ....   0.100
   Minimum threshold for Micro iter.    ....   1.000e-02
   NR start threshold (gradient norm)   ....   1.000e-04
   Initial trust radius                 ....   0.400
   Minimum AH scaling param. (alpha)    ....   1.000
   Maximum AH scaling param. (alpha)    .... 1000.000
   Quad. conv. algorithm                .... NR
   White noise on init. David. guess    .... on
   Maximum white noise                  ....   0.010
   Pseudo random numbers                .... off
   Inactive MOs                         .... canonical
   Orbital update algorithm             .... Taylor
   Preconditioner                       .... Diag
   Full preconditioner red. dimension   ....   250
 SOSCF                 CNVSOSCF           .... on
   Start iteration     SOSCFMaxIt         ....   150
   Startup grad/error  SOSCFStart         ....  0.003300
   Hessian update      SOSCFHessUp        .... L-BFGS
   Autom. constraints  SOSCFAutoConstrain .... off
 Level Shifting         CNVShift        .... on
   Level shift para.    LevelShift      ....    0.2500
   Turn off err/grad.   ShiftErr        ....    0.0010
 Zerner damping         CNVZerner       .... off
 Static damping         CNVDamp         .... on
   Fraction old density DampFac         ....    0.7000
   Max. Damping (<1)    DampMax         ....    0.9800
   Min. Damping (>=0)   DampMin         ....    0.0000
   Turn off err/grad.   DampErr         ....    0.1000

SCF Procedure:
 Maximum # iterations   MaxIter         ....   125
 SCF integral mode      SCFMode         .... Direct
   Integral package                     .... SHARK and LIBINT hybrid scheme
 Reset frequency        DirectResetFreq ....    20
 Integral Threshold     Thresh          ....  2.500e-11 Eh
 Primitive CutOff       TCut            ....  2.500e-12 Eh

Convergence Tolerance:
 Convergence Check Mode ConvCheckMode   .... Total+1el-Energy
 Convergence forced     ConvForced      .... 1
 Energy Change          TolE            ....  1.000e-08 Eh
 1-El. energy change                    ....  1.000e-05 Eh
 Orbital Gradient       TolG            ....  1.000e-05
 Orbital Rotation angle TolX            ....  1.000e-05
 DIIS Error             TolErr          ....  5.000e-07

------------------------------
INITIAL GUESS: MODEL POTENTIAL
------------------------------
Loading Hartree-Fock densities                     ... done
Calculating cut-offs                               ... done
Initializing the effective Hamiltonian             ... done
Setting up the integral package (SHARK)            ... done
Starting the Coulomb interaction                   ... done (   2.2 sec)
Making the grid                                    ... done (   0.8 sec)
Mapping shells                                     ... done
Starting the XC term evaluation                    ... done (   1.0 sec)
  promolecular density results
     # of electrons  =    186.019238533
     EX              =   -158.078320827
     EC              =     -6.314627460
     EX+EC           =   -164.392948287
Transforming the Hamiltonian                       ... done (   0.1 sec)
Diagonalizing the Hamiltonian                      ... done (   0.2 sec)
Back transforming the eigenvectors                 ... done (   0.1 sec)
Now organizing SCF variables                       ... done
                      ------------------
                      INITIAL GUESS DONE (   4.5 sec)
                      ------------------
             **** ENERGY FILE WAS UPDATED (tddft.en.tmp) ****
Finished Guess after   5.0 sec
Maximum memory used throughout the entire GUESS-calculation: 97.3 MB


           ************************************************************
           *        Program running with 4 parallel MPI-processes     *
           *              working on a common directory               *
           ************************************************************

-------------------------------------------------------------------------------------------
                                      ORCA LEAN-SCF
                              memory conserving SCF solver
-------------------------------------------------------------------------------------------

--------------------
CPCM SOLVATION MODEL
--------------------
CPCM parameters:
  Epsilon                                         ...       8.9990
  Refrac                                          ...       1.4242
  Rsolv                                           ...       1.3000
  Surface type                                    ... GAUSSIAN VDW
  Discretization scheme                           ... Constant charge density
    Threshold for H atoms                         ...       5.0000 (charges/Ang^2)
    Threshold for non-H atoms                     ...       5.0000 (charges/Ang^2)
  Epsilon function type                           ...         CPCM
Solvent:                                          ... DICHLOROMETHANE
Radii:
  Scheme                                          ... Element-dependent radii
  Radius for N  used is    3.5149 Bohr (=   1.8600 Ang.)
  Radius for C  used is    3.8550 Bohr (=   2.0400 Ang.)
  Radius for H  used is    2.4944 Bohr (=   1.3200 Ang.)
  Radius for Mg used is    3.9231 Bohr (=   2.0760 Ang.)
  Radius for O  used is    3.4469 Bohr (=   1.8240 Ang.)
Calculating surface                               ...        done! (  0.0s)
Cavity surface points                             ...         3858
Cavity Volume                                     ...    2687.3554
Cavity Surface-area                               ...    1293.8355
Calculating surface distance matrix               ...        done! (  0.3s)
Performing Cholesky decomposition & store         ...        done! (  0.8s)
Overall time for CPCM initialization              ...                 1.1s

----------------------------------------D-I-I-S--------------------------------------------
Iteration    Energy (Eh)           Delta-E    RMSDP     MaxDP     DIISErr   Damp  Time(sec)
-------------------------------------------------------------------------------------------
               ***  Starting incremental Fock matrix formation  ***
    1    -1267.4690568584146604     0.00e+00  2.09e-03  4.64e-02  2.76e-01  0.700  25.0
Warning: op=0 Small HOMO/LUMO gap (   0.057) - skipping pre-diagonalization
         Will do a full diagonalization
    2    -1267.7490570589138770    -2.80e-01  1.82e-03  4.41e-02  9.89e-02  0.700  24.3
                               ***Turning on AO-DIIS***
    3    -1267.8561912170989672    -1.07e-01  9.12e-04  1.80e-02  2.98e-02  0.700  25.2
    4    -1267.9185330361874549    -6.23e-02  1.69e-03  3.88e-02  1.43e-02  0.000  23.7
    5    -1268.0561052480011313    -1.38e-01  4.64e-04  1.79e-02  5.67e-03  0.000  24.9
                              *** Initializing SOSCF ***
---------------------------------------S-O-S-C-F--------------------------------------
Iteration    Energy (Eh)           Delta-E    RMSDP     MaxDP     MaxGrad    Time(sec)
--------------------------------------------------------------------------------------
    6    -1268.0572010393084383    -1.10e-03  2.28e-04  8.55e-03  1.83e-03    22.6
               *** Restarting incremental Fock matrix formation ***
    7    -1268.0572788105614563    -7.78e-05  1.48e-04  5.70e-03  5.94e-04    30.4
    8    -1268.0572762768997563     2.53e-06  4.42e-05  1.40e-03  7.39e-04    20.6
    9    -1268.0573022579192184    -2.60e-05  2.68e-05  9.37e-04  1.26e-04    19.6
   10    -1268.0573018839181714     3.74e-07  5.53e-06  2.11e-04  1.04e-04    18.5
   11    -1268.0573028697067457    -9.86e-07  6.50e-06  2.47e-04  1.34e-05    18.0
   12    -1268.0573028611861446     8.52e-09  3.73e-06  1.43e-04  1.72e-05    16.8
                 **** Energy Check signals convergence ****

               *****************************************************
               *                     SUCCESS                       *
               *           SCF CONVERGED AFTER  12 CYCLES          *
               *****************************************************

             **** ENERGY FILE WAS UPDATED (tddft.en.tmp) ****

----------------
TOTAL SCF ENERGY
----------------

Total Energy       :      -1268.05730287331926 Eh          -34505.59344 eV

Components:
Nuclear Repulsion  :       2431.74633079685964 Eh           66171.18174 eV
Electronic Energy  :      -3699.78291992712002 Eh         -100676.21153 eV
One Electron Energy:      -6568.22780663751928 Eh         -178730.56510 eV
Two Electron Energy:       2868.44488671039926 Eh           78054.35357 eV
CPCM Dielectric    :         -0.02071374305886 Eh              -0.56365 eV

Virial components:
Potential Energy   :      -2531.05678375432126 Eh          -68873.55655 eV
Kinetic Energy     :       1262.99948088100200 Eh           34367.96311 eV
Virial Ratio       :          2.00400461129944

DFT components:
N(Alpha)           :       93.000029461166 electrons
N(Beta)            :       93.000029461166 electrons
N(Total)           :      186.000058922332 electrons
E(X)               :     -162.512629468441 Eh       
E(C)               :       -6.335740752063 Eh       
E(XC)              :     -168.848370220503 Eh       

CPCM Solvation Model Properties:
Surface-charge          :         -0.03847909198633
Corrected charge        :         -0.00000000000000
Outlying charge corr.   :          0.00006909264340 Eh               0.00188 eV
Free-energy (cav+disp)  :  This term is not implemented in the current solvation scheme

---------------
SCF CONVERGENCE
---------------

  Last Energy change         ...   -8.5206e-09  Tolerance :   1.0000e-08
  Last MAX-Density change    ...    1.4317e-04  Tolerance :   1.0000e-07
  Last RMS-Density change    ...    3.7301e-06  Tolerance :   5.0000e-09
  Last DIIS Error            ...    1.8337e-03  Tolerance :   5.0000e-07
  Last Orbital Gradient      ...    1.7241e-05  Tolerance :   1.0000e-05
  Last Orbital Rotation      ...    2.0799e-05  Tolerance :   1.0000e-05


----------------
ORBITAL ENERGIES
----------------

  NO   OCC          E(Eh)            E(eV) 
   0   2.0000     -46.367605     -1261.7267 
   1   2.0000     -18.916893      -514.7548 
   2   2.0000     -14.098637      -383.6434 
   3   2.0000     -14.098304      -383.6344 
   4   2.0000     -14.073970      -382.9722 
   5   2.0000     -14.073739      -382.9659 
   6   2.0000     -10.013738      -272.4877 
   7   2.0000     -10.013688      -272.4863 
   8   2.0000     -10.013680      -272.4861 
   9   2.0000     -10.013554      -272.4826 
  10   2.0000     -10.004009      -272.2229 
  11   2.0000     -10.003892      -272.2197 
  12   2.0000     -10.003769      -272.2164 
  13   2.0000     -10.003536      -272.2101 
  14   2.0000      -9.985019      -271.7062 
  15   2.0000      -9.984873      -271.7022 
  16   2.0000      -9.984506      -271.6922 
  17   2.0000      -9.984396      -271.6892 
  18   2.0000      -9.976017      -271.4612 
  19   2.0000      -9.975864      -271.4571 
  20   2.0000      -9.975594      -271.4497 
  21   2.0000      -9.975570      -271.4491 
  22   2.0000      -9.972016      -271.3523 
  23   2.0000      -9.971887      -271.3488 
  24   2.0000      -9.971517      -271.3388 
  25   2.0000      -9.971390      -271.3353 
  26   2.0000      -2.900740       -78.9331 
  27   2.0000      -1.664146       -45.2837 
  28   2.0000      -1.660392       -45.1816 
  29   2.0000      -1.659304       -45.1520 
  30   2.0000      -0.977788       -26.6070 
  31   2.0000      -0.888387       -24.1742 
  32   2.0000      -0.883352       -24.0372 
  33   2.0000      -0.875707       -23.8292 
  34   2.0000      -0.869798       -23.6684 
  35   2.0000      -0.746002       -20.2997 
  36   2.0000      -0.724198       -19.7064 
  37   2.0000      -0.716399       -19.4942 
  38   2.0000      -0.707688       -19.2572 
  39   2.0000      -0.706542       -19.2260 
  40   2.0000      -0.694129       -18.8882 
  41   2.0000      -0.693739       -18.8776 
  42   2.0000      -0.670693       -18.2505 
  43   2.0000      -0.654964       -17.8225 
  44   2.0000      -0.600496       -16.3403 
  45   2.0000      -0.591902       -16.1065 
  46   2.0000      -0.560251       -15.2452 
  47   2.0000      -0.540646       -14.7117 
  48   2.0000      -0.516183       -14.0461 
  49   2.0000      -0.514599       -14.0030 
  50   2.0000      -0.512859       -13.9556 
  51   2.0000      -0.511336       -13.9141 
  52   2.0000      -0.502742       -13.6803 
  53   2.0000      -0.476967       -12.9789 
  54   2.0000      -0.465917       -12.6782 
  55   2.0000      -0.455130       -12.3847 
  56   2.0000      -0.450512       -12.2590 
  57   2.0000      -0.444391       -12.0925 
  58   2.0000      -0.434555       -11.8248 
  59   2.0000      -0.427946       -11.6450 
  60   2.0000      -0.426075       -11.5941 
  61   2.0000      -0.394008       -10.7215 
  62   2.0000      -0.388811       -10.5801 
  63   2.0000      -0.388528       -10.5724 
  64   2.0000      -0.368874       -10.0376 
  65   2.0000      -0.366607        -9.9759 
  66   2.0000      -0.366373        -9.9695 
  67   2.0000      -0.356694        -9.7061 
  68   2.0000      -0.356430        -9.6989 
  69   2.0000      -0.352854        -9.6016 
  70   2.0000      -0.340806        -9.2738 
  71   2.0000      -0.337174        -9.1750 
  72   2.0000      -0.334221        -9.0946 
  73   2.0000      -0.332155        -9.0384 
  74   2.0000      -0.331420        -9.0184 
  75   2.0000      -0.320933        -8.7330 
  76   2.0000      -0.319433        -8.6922 
  77   2.0000      -0.315338        -8.5808 
  78   2.0000      -0.314123        -8.5477 
  79   2.0000      -0.312341        -8.4992 
  80   2.0000      -0.309730        -8.4282 
  81   2.0000      -0.305469        -8.3122 
  82   2.0000      -0.294126        -8.0036 
  83   2.0000      -0.268613        -7.3093 
  84   2.0000      -0.262717        -7.1489 
  85   2.0000      -0.260041        -7.0761 
  86   2.0000      -0.240066        -6.5325 
  87   2.0000      -0.236169        -6.4265 
  88   2.0000      -0.227216        -6.1829 
  89   2.0000      -0.214554        -5.8383 
  90   2.0000      -0.207055        -5.6343 
  91   2.0000      -0.171253        -4.6600 
  92   2.0000      -0.150605        -4.0982 
  93   0.0000      -0.101467        -2.7611 
  94   0.0000      -0.053300        -1.4504 
  95   0.0000      -0.007307        -0.1988 
  96   0.0000      -0.004270        -0.1162 
  97   0.0000      -0.000068        -0.0019 
  98   0.0000       0.014134         0.3846 
  99   0.0000       0.025548         0.6952 
 100   0.0000       0.032246         0.8775 
 101   0.0000       0.046268         1.2590 
 102   0.0000       0.049922         1.3584 
 103   0.0000       0.060201         1.6382 
*Only the first 10 virtual orbitals were printed.

                    ********************************
                    * MULLIKEN POPULATION ANALYSIS *
                    ********************************

-----------------------
MULLIKEN ATOMIC CHARGES
-----------------------
   0 N :   -0.316236
   1 N :   -0.314133
   2 N :   -0.385220
   3 N :   -0.374258
   4 C :   -0.119014
   5 C :   -0.122911
   6 C :   -0.119043
   7 C :   -0.121843
   8 C :    0.206068
   9 C :    0.206259
  10 C :    0.201136
  11 C :    0.206858
  12 C :    0.352157
  13 C :    0.339801
  14 C :    0.350303
  15 C :    0.333429
  16 C :   -0.476834
  17 C :   -0.471171
  18 C :   -0.478870
  19 C :   -0.467545
  20 C :   -0.246532
  21 C :   -0.246581
  22 C :   -0.243754
  23 C :   -0.248126
  24 H :    0.098351
  25 H :    0.113504
  26 H :    0.096095
  27 H :    0.114797
  28 H :    0.113942
  29 H :    0.097505
  30 H :    0.114174
  31 H :    0.098065
  32 H :    0.117743
  33 H :    0.116814
  34 H :    0.118587
  35 H :    0.116580
  36 H :    0.117687
  37 H :    0.118034
  38 H :    0.118314
  39 H :    0.118087
  40 Mg:    0.625972
  41 O :   -0.616565
  42 H :    0.377886
  43 H :    0.380486
Sum of atomic charges:   -0.0000000

--------------------------------
MULLIKEN REDUCED ORBITAL CHARGES
--------------------------------
  0 N s       :     3.675255  s :     3.675255
      pz      :     1.246373  p :     3.576458
      px      :     1.303327
      py      :     1.026759
      dz2     :     0.004011  d :     0.060779
      dxz     :     0.005646
      dyz     :     0.016080
      dx2y2   :     0.017517
      dxy     :     0.017525
      f0      :     0.000640  f :     0.003744
      f+1     :     0.000237
      f-1     :     0.000371
      f+2     :     0.000111
      f-2     :     0.000607
      f+3     :     0.000689
      f-3     :     0.001089

  1 N s       :     3.665862  s :     3.665862
      pz      :     1.239908  p :     3.583702
      px      :     1.315555
      py      :     1.028240
      dz2     :     0.004090  d :     0.060834
      dxz     :     0.005917
      dyz     :     0.015893
      dx2y2   :     0.017172
      dxy     :     0.017763
      f0      :     0.000637  f :     0.003735
      f+1     :     0.000236
      f-1     :     0.000373
      f+2     :     0.000111
      f-2     :     0.000606
      f+3     :     0.000691
      f-3     :     0.001080

  2 N s       :     3.671131  s :     3.671131
      pz      :     1.354918  p :     3.652798
      px      :     1.029387
      py      :     1.268493
      dz2     :     0.004216  d :     0.057556
      dxz     :     0.013943
      dyz     :     0.005794
      dx2y2   :     0.016666
      dxy     :     0.016936
      f0      :     0.000646  f :     0.003735
      f+1     :     0.000408
      f-1     :     0.000303
      f+2     :     0.000085
      f-2     :     0.000652
      f+3     :     0.000975
      f-3     :     0.000667

  3 N s       :     3.670715  s :     3.670715
      pz      :     1.353373  p :     3.642317
      px      :     1.026823
      py      :     1.262121
      dz2     :     0.004132  d :     0.057489
      dxz     :     0.013964
      dyz     :     0.005718
      dx2y2   :     0.016798
      dxy     :     0.016877
      f0      :     0.000650  f :     0.003737
      f+1     :     0.000406
      f-1     :     0.000304
      f+2     :     0.000082
      f-2     :     0.000650
      f+3     :     0.000979
      f-3     :     0.000667

  4 C s       :     3.074050  s :     3.074050
      pz      :     1.035083  p :     2.949299
      px      :     0.951041
      py      :     0.963175
      dz2     :     0.007693  d :     0.088827
      dxz     :     0.018170
      dyz     :     0.019209
      dx2y2   :     0.017449
      dxy     :     0.026307
      f0      :     0.000861  f :     0.006838
      f+1     :     0.000807
      f-1     :     0.000700
      f+2     :     0.000907
      f-2     :     0.000726
      f+3     :     0.001629
      f-3     :     0.001208

  5 C s       :     3.078875  s :     3.078875
      pz      :     1.033364  p :     2.948235
      px      :     0.950941
      py      :     0.963930
      dz2     :     0.007487  d :     0.088964
      dxz     :     0.018929
      dyz     :     0.018910
      dx2y2   :     0.017409
      dxy     :     0.026229
      f0      :     0.000783  f :     0.006837
      f+1     :     0.000860
      f-1     :     0.000731
      f+2     :     0.000912
      f-2     :     0.000715
      f+3     :     0.001640
      f-3     :     0.001197

  6 C s       :     3.074272  s :     3.074272
      pz      :     1.033473  p :     2.949024
      px      :     0.951275
      py      :     0.964276
      dz2     :     0.006616  d :     0.088907
      dxz     :     0.019266
      dyz     :     0.019546
      dx2y2   :     0.017446
      dxy     :     0.026034
      f0      :     0.000723  f :     0.006839
      f+1     :     0.000905
      f-1     :     0.000761
      f+2     :     0.000924
      f-2     :     0.000692
      f+3     :     0.001641
      f-3     :     0.001194

  7 C s       :     3.079891  s :     3.079891
      pz      :     1.034062  p :     2.946051
      px      :     0.949931
      py      :     0.962058
      dz2     :     0.008230  d :     0.089063
      dxz     :     0.018222
      dyz     :     0.018711
      dx2y2   :     0.017447
      dxy     :     0.026452
      f0      :     0.000878  f :     0.006838
      f+1     :     0.000797
      f-1     :     0.000688
      f+2     :     0.000900
      f-2     :     0.000732
      f+3     :     0.001636
      f-3     :     0.001207

  8 C s       :     3.131752  s :     3.131752
      pz      :     0.915014  p :     2.483040
      px      :     0.848845
      py      :     0.719181
      dz2     :     0.004339  d :     0.164834
      dxz     :     0.021885
      dyz     :     0.040341
      dx2y2   :     0.053978
      dxy     :     0.044292
      f0      :     0.001852  f :     0.014306
      f+1     :     0.000922
      f-1     :     0.000918
      f+2     :     0.001270
      f-2     :     0.001593
      f+3     :     0.002765
      f-3     :     0.004986

  9 C s       :     3.125394  s :     3.125394
      pz      :     0.917538  p :     2.490453
      px      :     0.851038
      py      :     0.721877
      dz2     :     0.003830  d :     0.163663
      dxz     :     0.021792
      dyz     :     0.040505
      dx2y2   :     0.053354
      dxy     :     0.044182
      f0      :     0.001862  f :     0.014231
      f+1     :     0.000887
      f-1     :     0.000905
      f+2     :     0.001265
      f-2     :     0.001575
      f+3     :     0.002731
      f-3     :     0.005007

 10 C s       :     3.129112  s :     3.129112
      pz      :     0.917151  p :     2.490154
      px      :     0.849392
      py      :     0.723610
      dz2     :     0.003678  d :     0.165274
      dxz     :     0.022258
      dyz     :     0.040444
      dx2y2   :     0.054446
      dxy     :     0.044448
      f0      :     0.001882  f :     0.014323
      f+1     :     0.000882
      f-1     :     0.000906
      f+2     :     0.001275
      f-2     :     0.001586
      f+3     :     0.002739
      f-3     :     0.005054

 11 C s       :     3.131603  s :     3.131603
      pz      :     0.915229  p :     2.483488
      px      :     0.848348
      py      :     0.719911
      dz2     :     0.004256  d :     0.163810
      dxz     :     0.021716
      dyz     :     0.040364
      dx2y2   :     0.053307
      dxy     :     0.044167
      f0      :     0.001844  f :     0.014241
      f+1     :     0.000913
      f-1     :     0.000913
      f+2     :     0.001258
      f-2     :     0.001586
      f+3     :     0.002768
      f-3     :     0.004960

 12 C s       :     3.083124  s :     3.083124
      pz      :     0.927963  p :     2.382478
      px      :     0.701904
      py      :     0.752612
      dz2     :     0.004748  d :     0.167592
      dxz     :     0.038169
      dyz     :     0.029447
      dx2y2   :     0.052851
      dxy     :     0.042377
      f0      :     0.001995  f :     0.014648
      f+1     :     0.001071
      f-1     :     0.000838
      f+2     :     0.000919
      f-2     :     0.002171
      f+3     :     0.004661
      f-3     :     0.002992

 13 C s       :     3.082418  s :     3.082418
      pz      :     0.930955  p :     2.395951
      px      :     0.700604
      py      :     0.764392
      dz2     :     0.004499  d :     0.167202
      dxz     :     0.038337
      dyz     :     0.029548
      dx2y2   :     0.052835
      dxy     :     0.041982
      f0      :     0.002004  f :     0.014629
      f+1     :     0.001049
      f-1     :     0.000841
      f+2     :     0.000890
      f-2     :     0.002189
      f+3     :     0.004622
      f-3     :     0.003034

 14 C s       :     3.085680  s :     3.085680
      pz      :     0.929282  p :     2.380696
      px      :     0.702688
      py      :     0.748726
      dz2     :     0.004611  d :     0.168643
      dxz     :     0.038724
      dyz     :     0.029662
      dx2y2   :     0.053197
      dxy     :     0.042449
      f0      :     0.002019  f :     0.014678
      f+1     :     0.001045
      f-1     :     0.000839
      f+2     :     0.000892
      f-2     :     0.002195
      f+3     :     0.004651
      f-3     :     0.003037

 15 C s       :     3.084157  s :     3.084157
      pz      :     0.930148  p :     2.399745
      px      :     0.700812
      py      :     0.768785
      dz2     :     0.004520  d :     0.167990
      dxz     :     0.038626
      dyz     :     0.029565
      dx2y2   :     0.053143
      dxy     :     0.042137
      f0      :     0.002014  f :     0.014679
      f+1     :     0.001053
      f-1     :     0.000841
      f+2     :     0.000906
      f-2     :     0.002184
      f+3     :     0.004683
      f-3     :     0.002997

 16 C s       :     3.431528  s :     3.431528
      pz      :     1.067682  p :     2.956124
      px      :     0.933523
      py      :     0.954920
      dz2     :     0.002184  d :     0.081395
      dxz     :     0.015184
      dyz     :     0.015671
      dx2y2   :     0.008866
      dxy     :     0.039490
      f0      :     0.001358  f :     0.007786
      f+1     :     0.000714
      f-1     :     0.000692
      f+2     :     0.000897
      f-2     :     0.000528
      f+3     :     0.001721
      f-3     :     0.001876

 17 C s       :     3.434115  s :     3.434115
      pz      :     1.068028  p :     2.947767
      px      :     0.928643
      py      :     0.951096
      dz2     :     0.002171  d :     0.081512
      dxz     :     0.015300
      dyz     :     0.015504
      dx2y2   :     0.008840
      dxy     :     0.039697
      f0      :     0.001352  f :     0.007777
      f+1     :     0.000714
      f-1     :     0.000701
      f+2     :     0.000896
      f-2     :     0.000514
      f+3     :     0.001704
      f-3     :     0.001895

 18 C s       :     3.430825  s :     3.430825
      pz      :     1.067523  p :     2.958979
      px      :     0.932768
      py      :     0.958689
      dz2     :     0.002125  d :     0.081282
      dxz     :     0.015386
      dyz     :     0.015408
      dx2y2   :     0.008661
      dxy     :     0.039702
      f0      :     0.001361  f :     0.007784
      f+1     :     0.000710
      f-1     :     0.000703
      f+2     :     0.000896
      f-2     :     0.000511
      f+3     :     0.001705
      f-3     :     0.001899

 19 C s       :     3.430252  s :     3.430252
      pz      :     1.068675  p :     2.948008
      px      :     0.929971
      py      :     0.949363
      dz2     :     0.002159  d :     0.081505
      dxz     :     0.015193
      dyz     :     0.015597
      dx2y2   :     0.008891
      dxy     :     0.039665
      f0      :     0.001359  f :     0.007780
      f+1     :     0.000706
      f-1     :     0.000696
      f+2     :     0.000899
      f-2     :     0.000517
      f+3     :     0.001724
      f-3     :     0.001878

 20 C s       :     3.311646  s :     3.311646
      pz      :     1.027522  p :     2.837647
      px      :     0.919386
      py      :     0.890739
      dz2     :     0.005009  d :     0.089120
      dxz     :     0.018756
      dyz     :     0.011333
      dx2y2   :     0.018125
      dxy     :     0.035898
      f0      :     0.001361  f :     0.008119
      f+1     :     0.000606
      f-1     :     0.000806
      f+2     :     0.001284
      f-2     :     0.000256
      f+3     :     0.001436
      f-3     :     0.002370

 21 C s       :     3.309711  s :     3.309711
      pz      :     1.028753  p :     2.839636
      px      :     0.920219
      py      :     0.890665
      dz2     :     0.005065  d :     0.089115
      dxz     :     0.018782
      dyz     :     0.011123
      dx2y2   :     0.018204
      dxy     :     0.035942
      f0      :     0.001353  f :     0.008119
      f+1     :     0.000605
      f-1     :     0.000819
      f+2     :     0.001273
      f-2     :     0.000258
      f+3     :     0.001436
      f-3     :     0.002374

 22 C s       :     3.309557  s :     3.309557
      pz      :     1.026488  p :     2.837036
      px      :     0.920079
      py      :     0.890469
      dz2     :     0.004995  d :     0.089046
      dxz     :     0.018856
      dyz     :     0.011128
      dx2y2   :     0.018105
      dxy     :     0.035962
      f0      :     0.001366  f :     0.008115
      f+1     :     0.000585
      f-1     :     0.000820
      f+2     :     0.001278
      f-2     :     0.000252
      f+3     :     0.001430
      f-3     :     0.002383

 23 C s       :     3.312134  s :     3.312134
      pz      :     1.027652  p :     2.838768
      px      :     0.919687
      py      :     0.891428
      dz2     :     0.004960  d :     0.089110
      dxz     :     0.018802
      dyz     :     0.011166
      dx2y2   :     0.018170
      dxy     :     0.036012
      f0      :     0.001368  f :     0.008113
      f+1     :     0.000587
      f-1     :     0.000815
      f+2     :     0.001286
      f-2     :     0.000246
      f+3     :     0.001433
      f-3     :     0.002378

 24 H s       :     0.881278  s :     0.881278
      pz      :     0.009801  p :     0.020371
      px      :     0.005590
      py      :     0.004980

 25 H s       :     0.866332  s :     0.866332
      pz      :     0.007006  p :     0.020164
      px      :     0.006928
      py      :     0.006230

 26 H s       :     0.883544  s :     0.883544
      pz      :     0.009601  p :     0.020361
      px      :     0.005851
      py      :     0.004909

 27 H s       :     0.865048  s :     0.865048
      pz      :     0.007145  p :     0.020155
      px      :     0.006649
      py      :     0.006362

 28 H s       :     0.865900  s :     0.865900
      pz      :     0.007414  p :     0.020158
      px      :     0.006492
      py      :     0.006252

 29 H s       :     0.882118  s :     0.882118
      pz      :     0.009381  p :     0.020377
      px      :     0.005999
      py      :     0.004997

 30 H s       :     0.865683  s :     0.865683
      pz      :     0.006894  p :     0.020143
      px      :     0.006907
      py      :     0.006342

 31 H s       :     0.881552  s :     0.881552
      pz      :     0.009870  p :     0.020383
      px      :     0.005621
      py      :     0.004892

 32 H s       :     0.861822  s :     0.861822
      pz      :     0.005499  p :     0.020436
      px      :     0.007370
      py      :     0.007567

 33 H s       :     0.862740  s :     0.862740
      pz      :     0.005494  p :     0.020446
      px      :     0.007342
      py      :     0.007610

 34 H s       :     0.860977  s :     0.860977
      pz      :     0.005481  p :     0.020436
      px      :     0.007335
      py      :     0.007620

 35 H s       :     0.862975  s :     0.862975
      pz      :     0.005507  p :     0.020445
      px      :     0.007378
      py      :     0.007560

 36 H s       :     0.862293  s :     0.862293
      pz      :     0.005033  p :     0.020020
      px      :     0.006509
      py      :     0.008477

 37 H s       :     0.861947  s :     0.861947
      pz      :     0.005021  p :     0.020019
      px      :     0.006477
      py      :     0.008520

 38 H s       :     0.861674  s :     0.861674
      pz      :     0.005013  p :     0.020012
      px      :     0.006486
      py      :     0.008513

 39 H s       :     0.861899  s :     0.861899
      pz      :     0.005024  p :     0.020014
      px      :     0.006513
      py      :     0.008478

 40 Mgs       :     4.527732  s :     4.527732
      pz      :     2.146816  p :     6.550524
      px      :     2.197869
      py      :     2.205839
      dz2     :     0.042134  d :     0.295772
      dxz     :     0.032521
      dyz     :     0.037140
      dx2y2   :     0.156142
      dxy     :     0.027834

 41 O s       :     3.779876  s :     3.779876
      pz      :     1.752454  p :     4.817777
      px      :     1.730515
      py      :     1.334808
      dz2     :     0.001631  d :     0.017573
      dxz     :     0.003434
      dyz     :     0.003479
      dx2y2   :     0.001500
      dxy     :     0.007529
      f0      :     0.000248  f :     0.001339
      f+1     :     0.000036
      f-1     :     0.000103
      f+2     :     0.000097
      f-2     :     0.000366
      f+3     :     0.000388
      f-3     :     0.000102

 42 H s       :     0.578326  s :     0.578326
      pz      :     0.014828  p :     0.043789
      px      :     0.015017
      py      :     0.013944

 43 H s       :     0.575794  s :     0.575794
      pz      :     0.013508  p :     0.043720
      px      :     0.013507
      py      :     0.016704



                     *******************************
                     * LOEWDIN POPULATION ANALYSIS *
                     *******************************

----------------------
LOEWDIN ATOMIC CHARGES
----------------------
   0 N :    0.211358
   1 N :    0.208049
   2 N :    0.168685
   3 N :    0.170856
   4 C :   -0.191148
   5 C :   -0.192101
   6 C :   -0.191041
   7 C :   -0.192075
   8 C :   -0.205602
   9 C :   -0.207755
  10 C :   -0.205477
  11 C :   -0.207648
  12 C :   -0.220075
  13 C :   -0.221256
  14 C :   -0.218938
  15 C :   -0.219910
  16 C :   -0.126302
  17 C :   -0.128097
  18 C :   -0.126000
  19 C :   -0.127702
  20 C :   -0.138739
  21 C :   -0.139467
  22 C :   -0.137856
  23 C :   -0.138428
  24 H :    0.145661
  25 H :    0.142670
  26 H :    0.145008
  27 H :    0.142444
  28 H :    0.142767
  29 H :    0.145610
  30 H :    0.142018
  31 H :    0.145898
  32 H :    0.160098
  33 H :    0.159797
  34 H :    0.160171
  35 H :    0.159819
  36 H :    0.138919
  37 H :    0.138857
  38 H :    0.139067
  39 H :    0.138998
  40 Mg:    0.131168
  41 O :   -0.106968
  42 H :    0.201741
  43 H :    0.202924

-------------------------------
LOEWDIN REDUCED ORBITAL CHARGES
-------------------------------
  0 N s       :     2.981606  s :     2.981606
      pz      :     1.106818  p :     3.572751
      px      :     1.345254
      py      :     1.120679
      dz2     :     0.016406  d :     0.215250
      dxz     :     0.009802
      dyz     :     0.049792
      dx2y2   :     0.064845
      dxy     :     0.074404
      f0      :     0.001168  f :     0.019035
      f+1     :     0.000771
      f-1     :     0.001819
      f+2     :     0.000325
      f-2     :     0.003644
      f+3     :     0.003944
      f-3     :     0.007364

  1 N s       :     2.984927  s :     2.984927
      pz      :     1.105679  p :     3.573464
      px      :     1.347943
      py      :     1.119841
      dz2     :     0.016444  d :     0.214603
      dxz     :     0.010123
      dyz     :     0.049410
      dx2y2   :     0.064264
      dxy     :     0.074361
      f0      :     0.001160  f :     0.018957
      f+1     :     0.000775
      f-1     :     0.001803
      f+2     :     0.000324
      f-2     :     0.003615
      f+3     :     0.003957
      f-3     :     0.007323

  2 N s       :     2.982521  s :     2.982521
      pz      :     1.200638  p :     3.627765
      px      :     1.103466
      py      :     1.323661
      dz2     :     0.016178  d :     0.202366
      dxz     :     0.043988
      dyz     :     0.011951
      dx2y2   :     0.061211
      dxy     :     0.069038
      f0      :     0.001158  f :     0.018662
      f+1     :     0.001737
      f-1     :     0.000844
      f+2     :     0.000205
      f-2     :     0.003834
      f+3     :     0.006821
      f-3     :     0.004062

  3 N s       :     2.981801  s :     2.981801
      pz      :     1.199958  p :     3.626234
      px      :     1.103374
      py      :     1.322903
      dz2     :     0.016104  d :     0.202423
      dxz     :     0.043941
      dyz     :     0.011826
      dx2y2   :     0.061389
      dxy     :     0.069163
      f0      :     0.001162  f :     0.018687
      f+1     :     0.001750
      f-1     :     0.000835
      f+2     :     0.000196
      f-2     :     0.003839
      f+3     :     0.006844
      f-3     :     0.004061

  4 C s       :     2.769641  s :     2.769641
      pz      :     1.029285  p :     3.011905
      px      :     0.988779
      py      :     0.993841
      dz2     :     0.049395  d :     0.368464
      dxz     :     0.071332
      dyz     :     0.068799
      dx2y2   :     0.087085
      dxy     :     0.091853
      f0      :     0.004541  f :     0.041138
      f+1     :     0.003666
      f-1     :     0.003605
      f+2     :     0.005649
      f-2     :     0.004992
      f+3     :     0.011165
      f-3     :     0.007520

  5 C s       :     2.769932  s :     2.769932
      pz      :     1.029207  p :     3.011996
      px      :     0.988405
      py      :     0.994384
      dz2     :     0.047393  d :     0.369068
      dxz     :     0.074337
      dyz     :     0.069061
      dx2y2   :     0.087258
      dxy     :     0.091019
      f0      :     0.004296  f :     0.041105
      f+1     :     0.003940
      f-1     :     0.003796
      f+2     :     0.005471
      f-2     :     0.004818
      f+3     :     0.011281
      f-3     :     0.007503

  6 C s       :     2.769664  s :     2.769664
      pz      :     1.029458  p :     3.011784
      px      :     0.988337
      py      :     0.993989
      dz2     :     0.044158  d :     0.368457
      dxz     :     0.075761
      dyz     :     0.070843
      dx2y2   :     0.087693
      dxy     :     0.090002
      f0      :     0.004116  f :     0.041136
      f+1     :     0.004109
      f-1     :     0.003901
      f+2     :     0.005389
      f-2     :     0.004677
      f+3     :     0.011371
      f-3     :     0.007571

  7 C s       :     2.769785  s :     2.769785
      pz      :     1.029167  p :     3.012042
      px      :     0.988828
      py      :     0.994047
      dz2     :     0.050877  d :     0.369122
      dxz     :     0.071333
      dyz     :     0.067643
      dx2y2   :     0.086839
      dxy     :     0.092431
      f0      :     0.004589  f :     0.041126
      f+1     :     0.003658
      f-1     :     0.003602
      f+2     :     0.005628
      f-2     :     0.005000
      f+3     :     0.011173
      f-3     :     0.007476

  8 C s       :     2.715397  s :     2.715397
      pz      :     0.841247  p :     2.783706
      px      :     0.956527
      py      :     0.985931
      dz2     :     0.043655  d :     0.629310
      dxz     :     0.068192
      dyz     :     0.120500
      dx2y2   :     0.203859
      dxy     :     0.193104
      f0      :     0.005115  f :     0.077189
      f+1     :     0.004586
      f-1     :     0.006157
      f+2     :     0.006755
      f-2     :     0.010638
      f+3     :     0.015590
      f-3     :     0.028349

  9 C s       :     2.716013  s :     2.716013
      pz      :     0.842299  p :     2.785901
      px      :     0.957693
      py      :     0.985908
      dz2     :     0.042745  d :     0.628890
      dxz     :     0.067960
      dyz     :     0.120243
      dx2y2   :     0.204543
      dxy     :     0.193399
      f0      :     0.005098  f :     0.076951
      f+1     :     0.004478
      f-1     :     0.006091
      f+2     :     0.006766
      f-2     :     0.010513
      f+3     :     0.015418
      f-3     :     0.028589

 10 C s       :     2.715238  s :     2.715238
      pz      :     0.839535  p :     2.783211
      px      :     0.958140
      py      :     0.985537
      dz2     :     0.042361  d :     0.629755
      dxz     :     0.068590
      dyz     :     0.120318
      dx2y2   :     0.205018
      dxy     :     0.193467
      f0      :     0.005142  f :     0.077273
      f+1     :     0.004452
      f-1     :     0.006090
      f+2     :     0.006793
      f-2     :     0.010600
      f+3     :     0.015440
      f-3     :     0.028755

 11 C s       :     2.716035  s :     2.716035
      pz      :     0.841484  p :     2.784917
      px      :     0.956899
      py      :     0.986534
      dz2     :     0.043489  d :     0.629610
      dxz     :     0.068097
      dyz     :     0.120450
      dx2y2   :     0.204374
      dxy     :     0.193200
      f0      :     0.005090  f :     0.077087
      f+1     :     0.004566
      f-1     :     0.006118
      f+2     :     0.006734
      f-2     :     0.010617
      f+3     :     0.015633
      f-3     :     0.028329

 12 C s       :     2.700281  s :     2.700281
      pz      :     0.854483  p :     2.792729
      px      :     0.965454
      py      :     0.972792
      dz2     :     0.043999  d :     0.647134
      dxz     :     0.112564
      dyz     :     0.093278
      dx2y2   :     0.201056
      dxy     :     0.196237
      f0      :     0.004766  f :     0.079931
      f+1     :     0.006075
      f-1     :     0.004727
      f+2     :     0.006504
      f-2     :     0.013482
      f+3     :     0.026597
      f-3     :     0.017779

 13 C s       :     2.700556  s :     2.700556
[...]
  0-1A  -> 26-1A    5.261155   42434.1   235.7   0.003020019   0.02343  -0.13420  -0.00938   0.07302
  0-1A  -> 27-1A    5.267710   42487.0   235.4   0.000935765   0.00725   0.08229  -0.01770   0.01291
  0-1A  -> 28-1A    5.333191   43015.1   232.5   0.000194153   0.00149   0.00050  -0.01409  -0.03588
  0-1A  -> 29-1A    5.438331   43863.1   228.0   0.007466591   0.05604   0.19046   0.14036   0.00796
  0-1A  -> 30-1A    5.440966   43884.4   227.9   0.000439031   0.00329  -0.00048  -0.05227   0.02369

----------------------------------------------------------------------------------------------------
                     ABSORPTION SPECTRUM VIA TRANSITION VELOCITY DIPOLE MOMENTS    
----------------------------------------------------------------------------------------------------
     Transition      Energy     Energy  Wavelength fosc(P2)      P2        PX        PY        PZ   
                      (eV)      (cm-1)    (nm)                 (au**2)    (au)      (au)      (au)  
----------------------------------------------------------------------------------------------------
  0-1A  ->  1-1A    1.937826   15629.6   639.8   0.345605527   0.03692   0.00064   0.19214  -0.00088
  0-1A  ->  2-1A    2.328623   18781.6   532.4   0.086999064   0.01117  -0.10566   0.00028  -0.00201
  0-1A  ->  3-1A    3.004047   24229.3   412.7   0.000031542   0.00001   0.00123  -0.00041   0.00188
  0-1A  ->  4-1A    3.175506   25612.2   390.4   0.046457229   0.00813  -0.09016   0.00032  -0.00164
  0-1A  ->  5-1A    3.434160   27698.4   361.0   1.065265982   0.20166   0.44900  -0.00171   0.00718
  0-1A  ->  6-1A    3.635560   29322.8   341.0   0.000207790   0.00004   0.00399  -0.00298  -0.00410
  0-1A  ->  7-1A    3.695646   29807.4   335.5   0.145097713   0.02956   0.02113  -0.17062   0.00131
  0-1A  ->  8-1A    3.723778   30034.3   333.0   0.710565980   0.14586  -0.01147  -0.38174   0.00164
  0-1A  ->  9-1A    3.902296   31474.1   317.7   0.000252600   0.00005   0.00709  -0.00094  -0.00178
  0-1A  -> 10-1A    3.994216   32215.5   310.4   0.000092762   0.00002  -0.00160  -0.00394   0.00152
  0-1A  -> 11-1A    4.301401   34693.1   288.2   0.000156410   0.00004   0.00233  -0.00018   0.00562
  0-1A  -> 12-1A    4.307127   34739.3   287.9   0.000433354   0.00010   0.00045   0.00146  -0.01003
  0-1A  -> 13-1A    4.355464   35129.2   284.7   0.000741612   0.00018   0.00691   0.00059  -0.01140
  0-1A  -> 14-1A    4.382632   35348.3   282.9   0.000093101   0.00002  -0.00071   0.00158   0.00442
  0-1A  -> 15-1A    4.401728   35502.3   281.7   0.000037904   0.00001   0.00119   0.00208   0.00186
  0-1A  -> 16-1A    4.462775   35994.7   277.8   0.000541676   0.00013   0.01014  -0.00394  -0.00387
  0-1A  -> 17-1A    4.506311   36345.9   275.1   0.027829720   0.00691  -0.00157  -0.08313   0.00060
  0-1A  -> 18-1A    4.637073   37400.5   267.4   0.105336049   0.02693   0.00101   0.16409  -0.00028
  0-1A  -> 19-1A    4.690050   37827.8   264.4   0.000235012   0.00006   0.00014   0.00346  -0.00698
  0-1A  -> 20-1A    4.801506   38726.8   258.2   0.000003085   0.00000   0.00042   0.00079  -0.00014
  0-1A  -> 21-1A    4.814368   38830.5   257.5   0.000201366   0.00005  -0.00103   0.00569   0.00447
  0-1A  -> 22-1A    4.878312   39346.2   254.2   0.241059746   0.06482  -0.00221  -0.25459   0.00118
  0-1A  -> 23-1A    4.967993   40069.6   249.6   0.000194277   0.00005  -0.00360   0.00532   0.00346
  0-1A  -> 24-1A    5.001465   40339.5   247.9   0.005116796   0.00141  -0.01436   0.03471   0.00003
  0-1A  -> 25-1A    5.136174   41426.0   241.4   0.043177093   0.01222   0.11052  -0.00104   0.00303
  0-1A  -> 26-1A    5.261155   42434.1   235.7   0.002948221   0.00086   0.02509   0.00186  -0.01491
  0-1A  -> 27-1A    5.267710   42487.0   235.4   0.001015577   0.00029  -0.01630   0.00358  -0.00406
  0-1A  -> 28-1A    5.333191   43015.1   232.5   0.000149363   0.00004  -0.00020   0.00271   0.00604
  0-1A  -> 29-1A    5.438331   43863.1   228.0   0.007491170   0.00225  -0.03786  -0.02843  -0.00190
  0-1A  -> 30-1A    5.440966   43884.4   227.9   0.000291261   0.00009  -0.00052   0.00793  -0.00493

------------------------------------------------------------------------------------------
                     CD SPECTRUM VIA TRANSITION ELECTRIC DIPOLE MOMENTS    
------------------------------------------------------------------------------------------
     Transition      Energy     Energy  Wavelength    R        MX        MY        MZ   
                      (eV)      (cm-1)    (nm)   (1e40*cgs)   (au)      (au)      (au)  
------------------------------------------------------------------------------------------
  0-1A  ->  1-1A    1.937826   15629.6   639.8  -12.00061   0.02408  -0.00933   0.00049
  0-1A  ->  2-1A    2.328623   18781.6   532.4   -4.55476   0.00742   0.01856   0.01389
  0-1A  ->  3-1A    3.004047   24229.3   412.7   -1.65947   0.00434  -0.00058  -0.20658
  0-1A  ->  4-1A    3.175506   25612.2   390.4    0.96087  -0.00247  -0.00909  -0.00672
  0-1A  ->  5-1A    3.434160   27698.4   361.0  -68.47715  -0.04024  -0.08429   0.00442
  0-1A  ->  6-1A    3.635560   29322.8   341.0    9.86432   0.01055  -0.01136  -0.66921
  0-1A  ->  7-1A    3.695646   29807.4   335.5  -118.33169  -0.03218   0.19226  -0.01823
  0-1A  ->  8-1A    3.723778   30034.3   333.0  135.20074  -0.06538  -0.09910   0.01208
  0-1A  ->  9-1A    3.902296   31474.1   317.7    0.43539   0.00625   0.00536  -0.04908
  0-1A  -> 10-1A    3.994216   32215.5   310.4    0.14324  -0.00303  -0.00186   0.01959
  0-1A  -> 11-1A    4.301401   34693.1   288.2   10.98322  -0.01015   0.00167   0.62457
  0-1A  -> 12-1A    4.307127   34739.3   287.9   30.30765   0.01529  -0.00474  -0.96319
  0-1A  -> 13-1A    4.355464   35129.2   284.7   -4.26800  -0.00268  -0.00036   0.11560
  0-1A  -> 14-1A    4.382632   35348.3   282.9   -0.22603   0.00021   0.00193  -0.01686
  0-1A  -> 15-1A    4.401728   35502.3   281.7   -0.23188  -0.00022  -0.00298  -0.03549
  0-1A  -> 16-1A    4.462775   35994.7   277.8    0.04796   0.00418   0.03074  -0.04066
  0-1A  -> 17-1A    4.506311   36345.9   275.1   -0.08398   0.00832   0.00009  -0.01344
  0-1A  -> 18-1A    4.637073   37400.5   267.4   -0.84335   0.00693  -0.00187  -0.01072
  0-1A  -> 19-1A    4.690050   37827.8   264.4   -3.70216   0.00045  -0.00405   0.17752
  0-1A  -> 20-1A    4.801506   38726.8   258.2   -0.00756   0.00020  -0.00249  -0.00342
  0-1A  -> 21-1A    4.814368   38830.5   257.5    0.02099  -0.00777  -0.01314   0.01261
  0-1A  -> 22-1A    4.878312   39346.2   254.2    8.65385  -0.02242  -0.01239   0.00793
  0-1A  -> 23-1A    4.967993   40069.6   249.6    0.22062  -0.00876  -0.00535   0.02287
  0-1A  -> 24-1A    5.001465   40339.5   247.9   -5.62786   0.15519   0.00105   0.00473
  0-1A  -> 25-1A    5.136174   41426.0   241.4    1.90051   0.00672  -0.01473   0.00044
  0-1A  -> 26-1A    5.261155   42434.1   235.7   -0.72352  -0.00608  -0.12145  -0.00575
  0-1A  -> 27-1A    5.267710   42487.0   235.4    0.45498  -0.00541   0.02297  -0.00878
  0-1A  -> 28-1A    5.333191   43015.1   232.5    0.36225  -0.00323   0.00151   0.02078
  0-1A  -> 29-1A    5.438331   43863.1   228.0   13.96738  -0.16871   0.01913  -0.02266
  0-1A  -> 30-1A    5.440966   43884.4   227.9    1.58583   0.01214   0.06703   0.00615

------------------------------------------------------------------------------------------
                     CD SPECTRUM VIA TRANSITION VELOCITY DIPOLE MOMENTS    
------------------------------------------------------------------------------------------
     Transition      Energy     Energy  Wavelength    R        MX        MY        MZ   
                      (eV)      (cm-1)    (nm)   (1e40*cgs)   (au)      (au)      (au)  
------------------------------------------------------------------------------------------
  0-1A  ->  1-1A    1.937826   15629.6   639.8  -11.77116   0.02408  -0.00933   0.00049
  0-1A  ->  2-1A    2.328623   18781.6   532.4   -4.44549   0.00742   0.01856   0.01389
  0-1A  ->  3-1A    3.004047   24229.3   412.7   -1.63607   0.00434  -0.00058  -0.20658
  0-1A  ->  4-1A    3.175506   25612.2   390.4    0.93183  -0.00247  -0.00909  -0.00672
  0-1A  ->  5-1A    3.434160   27698.4   361.0  -66.84535  -0.04024  -0.08429   0.00442
  0-1A  ->  6-1A    3.635560   29322.8   341.0    9.94678   0.01055  -0.01136  -0.66921
  0-1A  ->  7-1A    3.695646   29807.4   335.5  -116.31727  -0.03218   0.19226  -0.01823
  0-1A  ->  8-1A    3.723778   30034.3   333.0  132.97923  -0.06538  -0.09910   0.01208
  0-1A  ->  9-1A    3.902296   31474.1   317.7    0.41701   0.00625   0.00536  -0.04908
  0-1A  -> 10-1A    3.994216   32215.5   310.4    0.13464  -0.00303  -0.00186   0.01959
  0-1A  -> 11-1A    4.301401   34693.1   288.2   10.40249  -0.01015   0.00167   0.62457
  0-1A  -> 12-1A    4.307127   34739.3   287.9   28.76936   0.01529  -0.00474  -0.96319
  0-1A  -> 13-1A    4.355464   35129.2   284.7   -3.93772  -0.00268  -0.00036   0.11560
  0-1A  -> 14-1A    4.382632   35348.3   282.9   -0.20939   0.00021   0.00193  -0.01686
  0-1A  -> 15-1A    4.401728   35502.3   281.7   -0.21130  -0.00022  -0.00298  -0.03549
  0-1A  -> 16-1A    4.462775   35994.7   277.8    0.22589   0.00418   0.03074  -0.04066
  0-1A  -> 17-1A    4.506311   36345.9   275.1   -0.08098   0.00832   0.00009  -0.01344
  0-1A  -> 18-1A    4.637073   37400.5   267.4   -0.82243   0.00693  -0.00187  -0.01072
  0-1A  -> 19-1A    4.690050   37827.8   264.4   -3.42807   0.00045  -0.00405   0.17752
  0-1A  -> 20-1A    4.801506   38726.8   258.2   -0.00379   0.00020  -0.00249  -0.00342
  0-1A  -> 21-1A    4.814368   38830.5   257.5   -0.02745  -0.00777  -0.01314   0.01261
  0-1A  -> 22-1A    4.878312   39346.2   254.2    8.45214  -0.02242  -0.01239   0.00793
  0-1A  -> 23-1A    4.967993   40069.6   249.6    0.21199  -0.00876  -0.00535   0.02287
  0-1A  -> 24-1A    5.001465   40339.5   247.9   -5.62025   0.15519   0.00105   0.00473
  0-1A  -> 25-1A    5.136174   41426.0   241.4    1.89721   0.00672  -0.01473   0.00044
  0-1A  -> 26-1A    5.261155   42434.1   235.7   -0.71482  -0.00608  -0.12145  -0.00575
  0-1A  -> 27-1A    5.267710   42487.0   235.4    0.50213  -0.00541   0.02297  -0.00878
  0-1A  -> 28-1A    5.333191   43015.1   232.5    0.31356  -0.00323   0.00151   0.02078
  0-1A  -> 29-1A    5.438331   43863.1   228.0   13.88722  -0.16871   0.01913  -0.02266
  0-1A  -> 30-1A    5.440966   43884.4   227.9    1.16627   0.01214   0.06703   0.00615

Total run time:     3630.063 sec

           *** ORCA-CIS/TD-DFT FINISHED WITHOUT ERROR ***
-----------------------
CIS/TD-DFT TOTAL ENERGY
-----------------------

    E(SCF)  =  -1268.057302873 Eh
    DE(CIS) =      0.071213804 Eh (Root  1)
    ----------------------------- ---------
    E(tot)  =  -1267.986089069 Eh


Maximum memory used throughout the entire CIS-calculation: 1867.8 MB
=> NOW LEAVING ORCA_CIS

-------------------------   --------------------
FINAL SINGLE POINT ENERGY     -1267.986089069232
-------------------------   --------------------



           ************************************************************
           *        Program running with 4 parallel MPI-processes     *
           *              working on a common directory               *
           ************************************************************

------------------------------------------------------------------------------
                              ORCA PROPERTY CALCULATIONS
------------------------------------------------------------------------------

GBWName                                 ... tddft.gbw
Number of atoms                         ...     44
Number of basis functions               ...    915
Max core memory                         ...   3000 MB

Electric properties:
Dipole moment                           ... YES
Quadrupole moment                       ...  NO
Static polarizability (Dipole/Dipole)   ...  NO
Static polarizability (Dipole/Quad.)    ...  NO
Static polarizability (Quad./Quad.)     ...  NO
Static polarizability (Velocity)        ...  NO
Static hyperpolarizability              ...  NO

Atomic electric properties:
Dipole moment                           ...  NO
Quadrupole moment                       ...  NO
Static polarizability                   ...  NO

Choice of electric origin               ... Center of mass
Position of electric origin             ...    -0.040203    -0.009067     0.343195

General magnetic properties:
Magnetizability                         ...  NO

EPR properties:
g-Tensor (aka g-matrix)                 ...  NO
Zero-Field splitting spin-orbit         ...  NO
Zero-field splitting spin-spin          ...  NO
Hyperfine couplings                     ...  NO (   0 nuclei)
Quadrupole couplings                    ...  NO (   0 nuclei)
Contact density                         ...  NO (   0 nuclei)

NMR properties:
Chemical shifts                         ...  NO (   0 nuclei)
Spin-rotation constants                 ...  NO (   0 nuclei)
Spin-spin couplings                     ...  NO (   0 nuclei,    0 pairs)

Choice of magnetic origin               ... GIAO
Position of magnetic origin             ...     0.000000     0.000000     0.000000

Properties with geometric perturbations:
SCF Hessian                             ...  NO
IR spectrum                             ...  NO
VCD spectrum                            ...  NO
X-ray spectroscopy properties:
SCF XES/XAS/RIXS spectra                ...  NO

SCF SOC stabilization energy            ...  NO
Diagonal Born-Oppenheimer correction    ...  NO

-------------
DIPOLE MOMENT
-------------

Method             : SCF
Type of density    : Electron Density
Multiplicity       :   1
Irrep              :   0
Energy             : -1268.0573028733192587 Eh
Basis              : AO
                                X                 Y                 Z
Electronic contribution:     -0.258991712       0.152626820      -0.781117466
Nuclear contribution   :      0.871965853      -0.262371262       2.077979131
                        -----------------------------------------
Total Dipole Moment    :      0.612974141      -0.109744442       1.296861665
                        -----------------------------------------
Magnitude (a.u.)       :      1.438621325
Magnitude (Debye)      :      3.656684807



--------------------
Rotational spectrum 
--------------------
 
Rotational constants in cm-1:             0.008440             0.007806             0.004278 
Rotational constants in MHz :           253.032612           234.030468           128.263522 

Dipole components along the rotational axes: 
x,y,z [a.u.] :    -0.636207    -0.112796     1.285360 
x,y,z [Debye]:    -1.617109    -0.286705     3.267125 

 

Dipole moment calculation done in   0.1 sec 

Maximum memory used throughout the entire PROP-calculation: 100.1 MB

--------------------------------
SUGGESTED CITATIONS FOR THIS RUN
--------------------------------

Below you find a list of papers that are relevant to this ORCA run
We neither can nor want to force you to cite these papers, but we appreciate if you do
You receive ORCA, which is the product of decades of hard work by many enthusiastic individuals, for free
The only thing we kindly ask in return is that you cite our papers,
We deeply appreciate it, if you show your appreciation for ORCA by not just citing the generic ORCA reference.

Please note that relegating all ORCA citations to the supporting information does *not* help us.
SI sections are not indexed - citations you put there will not count into any citation statistics
But we need these citations in order to attract the funding resources that allow us to do what we are doing

Therefore, if you are a happy ORCA user, please consider citing a few of the papers listed below in the main body of your paper

In addition to the list printed below, the program has created the file tddft.bibtex that contains the list in bibtex format
You can import this file easily into all common literature databanks and citation aid programs

It goes without saying that in many instances, there are alternative algorithms to achieve similar
results as the ones you have gotten from ORCA. It is, of course, also the case that in some instances
ORCA just re-implements algorithms worked out by others. We are fully aware of that and we are also
fully appreciative of our colleagues work. Hence this citation list should not be read as indicating
that the listed papers, which are focused on our own work, are the only ones worth citing. It simply
meant to make it easier for users to cite ORCA specific papers. It is not a substitute for doing your
own literature research and citing the relevant literature in a scientifically appropriate manner.

List of essential papers. We consider these as the minimum necessary citations

  1. Neese, F.
     Software update: the ORCA program system, version 6.0
     WIRES Comput. Molec. Sci. 2025 15(1), e70019
     doi.org/10.1002/wcms.70019

List of papers to cite with high priority. The work reported in these papers was absolutely
necessary for this run to complete.
Our perspective: the developers of density functionals and basis sets usually get cited in chemistry papers
Good! But without the algorithms to do something with them, the functionals or basis sets would not do anything.
Hence, in our opinion, the algorithm design and method developments papers are equally worthy of getting cited

  1. Neese, F.; Olbrich, G.
     Efficient use of the resolution of the identity approximation in time-dependent density functional calculations with hybrid density functionals
     Chem. Phys. Lett. 2002 362 , 170-178
     doi.org/10.1016/s0009-2614(02)01053-9
  2. Neese, F.
     An improvement of the resolution of the identity approximation for the formation of the Coulomb matrix
     J. Comp. Chem. 2003 24(14), 1740-1747
     doi.org/10.1002/jcc.10318
  3. Garcia-Rates, M.; Neese, F.
     Effect of the Solute Cavity on the Solvation Energy and its Derivatives within the Framework of the Gaussian Charge Scheme
     J. Comput. Chem. 2020 41 , 922-939
     doi.org/10.1002/jcc.26139
  4. Neese, F.
     The SHARK Integral Generation and Digestion System
     J. Comp. Chem. 2022 44(3), 381
     doi.org/10.1002/jcc.26942

List of suggested additional citations. These are papers that are important in the 'surrounding' of 
of this run, or papers that preceded the highly important papers. If you like your results we are grateful for a citation.

  1. Neese, F.
     The ORCA program system
     WIRES Comput. Molec. Sci. 2012 2(1), 73-78
     doi.org/10.1002/wcms.81
  2. Neese, F.
     Software update: the ORCA program system, version 4.0
     WIRES Comput. Molec. Sci. 2018 8(1), 1-6
     doi.org/10.1002/wcms.1327
  3. Neese, F.; Wennmohs, F.; Becker, U.; Riplinger, C.
     The ORCA quantum chemistry program package
     J. Chem. Phys. 2020 152(22), 224108
     doi.org/10.1063/5.0004608
  4. Neese, F.
     Software update: The ORCA program system—Version 5.0
     WIRES Comput. Molec. Sci. 2022 12(1), e1606
     doi.org/10.1002/wcms.1606

List of optional additional citations

  1. Neese, F.
     Approximate second-order SCF convergence for spin unrestricted wavefunctions
     Chem. Phys. Lett. 2000 325(1-3), 93-98
     doi.org/10.1016/s0009-2614(00)00662-x

Timings for individual modules:

Sum of individual times          ...     3940.497 sec (=  65.675 min)
Startup calculation              ...       11.476 sec (=   0.191 min)   0.3 %
SCF iterations                   ...      294.186 sec (=   4.903 min)   7.5 %
Property integrals               ...        1.097 sec (=   0.018 min)   0.0 %
Property calculations            ...        1.987 sec (=   0.033 min)   0.1 %
CIS module                       ...     3631.752 sec (=  60.529 min)  92.2 %
                             ****ORCA TERMINATED NORMALLY****
TOTAL RUN TIME: 0 days 1 hours 5 minutes 40 seconds 929 msec
