
                                 *****************
                                 * O   R   C   A *
                                 *****************

                                            #,                                       
                                            ###                                      
                                            ####                                     
                                            #####                                    
                                            ######                                   
                                           ########,                                 
                                     ,,################,,,,,                         
                               ,,#################################,,                 
                          ,,##########################################,,             
                       ,#########################################, ''#####,          
                    ,#############################################,,   '####,        
                  ,##################################################,,,,####,       
                ,###########''''           ''''###############################       
              ,#####''   ,,,,##########,,,,          '''####'''          '####       
            ,##' ,,,,###########################,,,                        '##       
           ' ,,###''''                  '''############,,,                           
         ,,##''                                '''############,,,,        ,,,,,,###''
      ,#''                                            '''#######################'''  
     '                                                          ''''####''''         
             ,#######,   #######,   ,#######,      ##                                
            ,#'     '#,  ##    ##  ,#'     '#,    #''#        ,####,    ,#,          
            ##       ##  ##   ,#'  ##            #'  '#       #'       ,# #          
            ##       ##  #######   ##           ,######,      #####,      #          
            '#,     ,#'  ##    ##  '#,     ,#' ,#      #,     #,   #      #          
             '#######'   ##     ##  '#######'  #'      '#     '####' #    #          



                #########################################################
                #                        -***-                          #
                #          Department of theory and spectroscopy        #
                #                                                       #
                #                      Frank Neese                      #
                #                                                       #
                #     Directorship, Architecture, Infrastructure        #
                #                    SHARK, DRIVERS                     #
                #        Core code/Algorithms in most modules           #
                #                                                       #
                #        Max Planck Institute fuer Kohlenforschung      #
                #                Kaiser Wilhelm Platz 1                 #
                #                 D-45470 Muelheim/Ruhr                 #
                #                      Germany                          #
                #                                                       #
                #                  All rights reserved                  #
                #                        -***-                          #
                #########################################################


                         Program Version 6.1.1  -  RELEASE   -
                                (GIT: $487d211c$)
                          ($2025-11-21 10:33:24 +0100$)


 With contributions from (in alphabetic order):
[Max-Planck-Institut fuer Kohlenforschung]                               
  Daniel Aravena         : Magnetic Suceptibility                        
  Michael Atanasov       : Ab Initio Ligand Field Theory (pilot matlab implementation)
  Alexander A. Auer      : GIAO ZORA, VPT2 properties, NMR spectrum      
  Ute Becker             : All parallelization in ORCA, NUMFREQ, NUMCALC 
  Giovanni Bistoni       : ED, misc. LED, open-shell LED, HFLD           
  Dmytro Bykov           : pre 5.0 version of the SCF Hessian            
  Marcos Casanova-Páez   : Triplet and SCS-CIS(D). UHF-(DLPNO)-IP/EA/STEOM-CCSD. UHF-CVS-IP/STEOM-CCSD   
  Vijay G. Chilkuri      : MRCI spin determinant printing, contributions to CSF-ICE 
  Pauline Colinet        : FMM embedding                                 
  Dipayan Datta          : RHF DLPNO-CCSD density                        
  Achintya Kumar Dutta   : EOM-CC, STEOM-CC                              
  Nicolas Foglia         : Exact transition moments, OPA infrastructure, MCD improvements    
  Dmitry Ganyushin       : Spin-Orbit,Spin-Spin,Magnetic field MRCI      
  Miquel Garcia-Rates    : C-PCM and meta-GGA Hessian, CCSD/C-PCM, Gaussian charge scheme 
  Tiago L. C. Gouveia    : GS-ROHF, GS-ROCIS                             
  Yang Guo               : DLPNO-NEVPT2, F12-NEVPT2, CIM, IAO-localization        
  Andreas Hansen         : Spin unrestricted coupled pair/coupled cluster methods 
  Ingolf Harden          : AUTO-CI MPn and infrastructure                
  Benjamin Helmich-Paris : MC-RPA, TRAH-(SCF,CASSCF), AVAS, COSX integrals, SCF dyn. polar., MC-PDFT, srDFT 
  Lee Huntington         : MR-EOM, pCC                                   
  Robert Izsak           : Overlap fitted RIJCOSX, COSX-SCS-MP3, EOM     
  Riya Kayal             : Wick's Theorem for AUTO-CI, AUTO-CI UHF-CCSDT 
  Emily Kempfer          : AUTO-CI RHF CISDT and CCSDT, approximate NEVPT4
  Christian Kollmar      : KDIIS, OOCD, Brueckner-CCSD(T), CCSD density, CASPT2, CASPT2-K, improved NEVPT2 
  Axel Koslowski         : Symmetry handling                             
  Simone Kossmann        : meta-GGA functionals, TD-DFT gradient, OOMP2, (MP2 Hessian; deprecated post 5.0) 
  Lucas Lang             : DCDCAS, Hyperfine gauge corrections, ICE-SOC+SSC
  Marvin Lechner         : AUTO-CI (C++ implementation), FIC-MRCC        
  Spencer Leger          : CASSCF response                               
  Dagmar Lenk            : GEPOL surface, SMD, ORCA-2-JSON               
  Dimitrios Liakos       : Extrapolation schemes; Compound Job, Property file
  Dimitrios Manganas     : Further ROCIS development; embedding schemes. LFT, Crystal Embedding 
  Dimitrios Pantazis     : SARC Basis sets                               
  Anastasios Papadopoulos: AUTO-CI, single reference methods and gradients 
  Taras Petrenko         : pre 6.0 DFT Hessian and TD-DFT gradient,  ECA, NRVS 
  Petra Pikulova         : Analytic Raman intensities                    
  Peter Pinski           : DLPNO-MP2, DLPNO-MP2 Gradient                 
  Shashank Vittal Rao    : ES-AILFT, MagRelax                            
  Christoph Reimann      : Effective Core Potentials                     
  Marius Retegan         : Local ZFS, SOC                                
  Christoph Riplinger    : Optimizer, TS searches, QM/MM, DLPNO-CCSD(T), (RO)-DLPNO pert. Triples 
  Michael Roemelt        : Original ROCIS implementation, recursive CI coupling coefficients
  Masaaki Saitow         : Open-shell DLPNO-CCSD energy and density      
  Barbara Sandhoefer     : DKH picture change effects                    
  Yorick L. A. Schmerwitz: GMF and freeze-and-release deltaSCF, NEB S-IDPP initial path                    
  Kantharuban Sivalingam : CASSCF convergence/infrastructure, NEVPT2, NEVPT3, NEVPT4(SD), FIC-MRCI and CEPA variants
  Bernardo de Souza      : ESD, SOC TD-DFT                               
  Georgi L. Stoychev     : AutoAux, RI-MP2 NMR, DLPNO-MP2 response, X2C  
  Van Anh Tran           : RI-MP2 g-tensors                              
  Willem Van den Heuvel  : Paramagnetic NMR                              
  Zikuan Wang            : NOTCH, Electric field optimization            
  Frank Wennmohs         : Technical directorship and infrastructure     
  Hang Xu                : AUTO-CI-Response properties                   
                                                                         
[FACCTs GmbH]                                                            
  Markus Bursch, Nicolas Foglia, Miquel Garcia-Rates, Ingolf Harden, Hagen Neugebauer, Anastasios Papadopoulos, 
  Christoph Riplinger, Bernardo de Souza, Georgi L. Stoychev                                                    
                                                                 
  APM, various basis sets, CI-OPT, improved COSX, DLPNO-Multilevel,           
  DOCKER, DRACO, updates on ESD, Fragmentator, GOAT, IRC, LR-CPCM, L-BFGS, MBIS, meta-GGA TD-DFT gradient, ML-optimized integration grids, 
  MM, NACMEs, nearIR, NEB, NEB-TS, NL-DFT gradient (VV10), 2- and 3-layer-ONIOM, interface openCOSMO-RS, QMMM,   
  Crystal-QMMM, RESP, rigid body optimization, SF, symmetry and pop. for TD-DFT, various functionals, SOLVATOR                                   
                                                                         
[Other institutions]                                                     
  V. Asgeirsson          : NEB                                           
  Christoph Bannwarth    : sTDA-DFT, sTD-DFT, PBEh-3c, B97-3c, D3        
  Giovanni Bistoni       : ETS/NOCV, ADLD/ADEX, COVALED                  
  Martin Brehm           : Molecular dynamics                            
  Ronald Cardenas        : ETS/NOCV                                      
  Martina Colucci        : COVALED                                       
  Sebastian Ehlert       : rSCAN, r2SCAN, r2SCAN-3c, D4, dhf basis sets  
  Marvin Friede          : D4 for Fr, Ra, Ac-Lr                          
  Lars Goerigk           : TD-DFT with DH, B97 family of functionals     
  Stefan Grimme          : VdW corrections, initial TS optimization, DFT functionals, gCP, sTDA/sTD-DF 
  Waldemar Hujo          : DFT-NL                                        
  H. Jonsson             : NEB                                           
  Holger Kruse           : gCP                                           
  Marcel Mueller         : wB97X-3c, vDZP basis set                      
  Hagen Neugebauer       : wr2SCAN, Native XTB                           
  Gianluca Regni         : ADLD/ADEX                                     
  Tobias Risthaus        : pre 6.0 range-separated hybrid DFT and stability analysis
  Lukas Wittmann         : regularized MP2, r2SCAN double-hybrids, wr2SCAN        
                                                                         
We gratefully acknowledge several colleagues who have allowed us to      
interface, adapt or use parts of their codes:                            
  Ed Valeev, F. Pavosevic, A. Kumar             : LibInt (2-el integral package), F12 methods 
  Garnet Chan, S. Sharma, J. Yang, R. Olivares  : DMRG                   
  Ulf Ekstrom                                   : XCFun DFT Library      
  Mihaly Kallay                                 : mrcc  (arbitrary order and MRCC methods)
  Frank Weinhold                                : gennbo (NPA and NBO analysis)           
  Simon Mueller                                 : openCOSMO-RS                            
  Christopher J. Cramer and Donald G. Truhlar   : smd solvation model                     
  S Lehtola, MJT Oliveira, MAL Marques          : LibXC Library                           
  Liviu Ungur et al                             : ANISO software                          


 Your calculation uses the libint2 library for the computation of 2-el integrals
 For citations please refer to: http://libint.valeyev.net

 Your ORCA version has been built with support for libXC version: 7.0.0
 For citations please refer to: https://libxc.gitlab.io

 This ORCA versions uses:
   CBLAS   interface :  Fast vector & matrix operations
   LAPACKE interface :  Fast linear algebra routines
   SCALAPACK package :  Parallel linear algebra routines
   Shared memory     :  Shared parallel matrices
   BLAS/LAPACK       :  OpenBLAS 0.3.29  USE64BITINT DYNAMIC_ARCH NO_AFFINITY Haswell SINGLE_THREADED
        Core in use  :  Haswell
   Copyright (c) 2011-2014, The OpenBLAS Project


  ***********************************
  * Starting time: Tue Jul  7 19:47:10 2026
  * Host name:     steezy
  * Process ID:    1593014
  * Working dir.:  /home/jannes/chlorophyll-ladder/008-mgbacteriochlorin-axial-ligation/mgbacteriochlorin_meoh/03_tddft_ch2cl2/tpss
  ***********************************

NOTE: MaxCore=3000 MB was set to SCF,MP2,MDCI,CIPSI,MRCI,RASCI and CIS
      => If you want to overwrite this, your respective input block should be placed after the MaxCore statement


***************************************
The coordinates will be read from file: /home/jannes/chlorophyll-ladder/008-mgbacteriochlorin-axial-ligation/mgbacteriochlorin_meoh/01_opt/mgbacteriochlorin_meoh_opt_b3lypd4_tzvp.xyz
***************************************


================================================================================

----- Orbital basis set information -----
Your calculation utilizes the basis: def2-TZVP
   F. Weigend and R. Ahlrichs, Phys. Chem. Chem. Phys. 7, 3297 (2005).

----- AuxJ basis set information -----
Your calculation utilizes the auxiliary basis: def2/J
   H-Rn: F. Weigend, Phys. Chem. Chem. Phys. 8, 1057 (2006).
   Fr-Lr: K. Eichkorn, F. Weigend, O. Treutler, R. Ahlrichs; Theor. Chem. Acc. 97, 119 (1997).

================================================================================
                                        WARNINGS
                       Please study these warnings very carefully!
================================================================================



WARNING: Found flag for RIJCOSX approximation but no HF exchange needed!
  ===> : RIJCOSX  will be disabled and Split-RI-J is turned on

WARNING: CIS/ROCIS methods need fully converged wavefunctions
  ===> : Setting SCFConvForced true
         You can overwrite this default with %scf ConvForced false 


================================================================================
                                       INPUT FILE
================================================================================
NAME = tddft.inp
|  1> %pal nprocs 4 end
|  2> %maxcore 3000
|  3> ! TPSS def2-TZVP def2/J RIJCOSX DefGrid3 TightSCF CPCM(CH2Cl2)
|  4> %tddft
|  5>   nroots 30
|  6>   tda false
|  7>   triplets false
|  8> end
|  9> * xyzfile 0 1 /home/jannes/chlorophyll-ladder/008-mgbacteriochlorin-axial-ligation/mgbacteriochlorin_meoh/01_opt/mgbacteriochlorin_meoh_opt_b3lypd4_tzvp.xyz
| 10> 
| 11>                          ****END OF INPUT****
================================================================================

                       ****************************
                       * Single Point Calculation *
                       ****************************

---------------------------------
CARTESIAN COORDINATES (ANGSTROEM)
---------------------------------
  N     -2.056534    0.064066    0.195273
  N      2.196097    0.017237   -0.055198
  N      0.047142   -1.997678    0.128778
  N      0.092636    2.082294    0.040843
  C     -4.302985   -0.669869    0.375257
  C      4.412842   -0.773036   -0.326220
  C     -4.292762    0.847490    0.140755
  C      4.445514    0.753568   -0.163990
  C     -2.833492   -1.040135    0.275566
  C      2.944418   -1.105549   -0.132262
  C     -2.812309    1.185908    0.158149
  C      2.973747    1.122620   -0.112979
  C     -1.058360   -2.799045    0.207374
  C      1.134821   -2.822845    0.041115
  C     -0.999786    2.906696    0.044591
  C      1.198403    2.882961   -0.052909
  C     -2.381013   -2.343353    0.291686
  C      2.464498   -2.398157   -0.076595
  C     -2.333775    2.478567    0.105930
  C      2.522471    2.425996   -0.106327
  C     -0.658064   -4.175076    0.179954
  C      0.704790   -4.189790    0.074892
  C     -0.572126    4.271379   -0.039540
  C      0.794196    4.256564   -0.099611
  H     -4.907306   -1.213126   -0.352060
  H     -4.689504   -0.928439    1.365281
  H      5.044405   -1.296154    0.392893
  H      4.738481   -1.084172   -1.322516
  H     -4.723657    1.112272   -0.828575
  H     -4.846632    1.405038    0.897142
  H      4.938530    1.055339    0.764181
  H      4.962432    1.261575   -0.978953
  H     -3.140443   -3.113523    0.357172
  H      3.204445   -3.186544   -0.147882
  H     -3.079818    3.264302    0.086697
  H      3.282718    3.195898   -0.165340
  H     -1.329360   -5.018844    0.223576
  H      1.356552   -5.047854    0.016948
  H     -1.227758    5.128250   -0.060576
  H      1.463641    5.099288   -0.177876
  Mg     0.091692    0.043218    0.296571
  O      0.120484    0.213118    2.403881
  C     -0.599692   -0.688622    3.258236
  H     -0.278970   -0.566808    4.294035
  H     -1.676252   -0.529858    3.174387
  H     -0.361741   -1.692255    2.916251
  H     -0.061689    1.129512    2.644354

----------------------------
CARTESIAN COORDINATES (A.U.)
----------------------------
  NO LB      ZA    FRAG     MASS         X           Y           Z
   0 N     7.0000    0    14.007   -3.886287    0.121068    0.369013
   1 N     7.0000    0    14.007    4.150023    0.032574   -0.104310
   2 N     7.0000    0    14.007    0.089085   -3.775065    0.243355
   3 N     7.0000    0    14.007    0.175056    3.934965    0.077182
   4 C     6.0000    0    12.011   -8.131464   -1.265870    0.709133
   5 C     6.0000    0    12.011    8.339063   -1.460826   -0.616467
   6 C     6.0000    0    12.011   -8.112144    1.601524    0.265988
   7 C     6.0000    0    12.011    8.400804    1.424037   -0.309896
   8 C     6.0000    0    12.011   -5.354524   -1.965570    0.520744
   9 C     6.0000    0    12.011    5.564144   -2.089185   -0.249938
  10 C     6.0000    0    12.011   -5.314493    2.241042    0.298858
  11 C     6.0000    0    12.011    5.619568    2.121444   -0.213500
  12 C     6.0000    0    12.011   -2.000011   -5.289428    0.391880
  13 C     6.0000    0    12.011    2.144501   -5.334403    0.077697
  14 C     6.0000    0    12.011   -1.889321    5.492859    0.084264
  15 C     6.0000    0    12.011    2.264653    5.448007   -0.099984
  16 C     6.0000    0    12.011   -4.499463   -4.428295    0.551207
  17 C     6.0000    0    12.011    4.657226   -4.531859   -0.144744
  18 C     6.0000    0    12.011   -4.410196    4.683814    0.200179
  19 C     6.0000    0    12.011    4.766779    4.584468   -0.200928
  20 C     6.0000    0    12.011   -1.243560   -7.889750    0.340063
  21 C     6.0000    0    12.011    1.331861   -7.917555    0.141526
  22 C     6.0000    0    12.011   -1.081161    8.071737   -0.074721
  23 C     6.0000    0    12.011    1.500812    8.043740   -0.188238
  24 H     1.0000    0     1.008   -9.273464   -2.292477   -0.665297
  25 H     1.0000    0     1.008   -8.861879   -1.754495    2.580008
  26 H     1.0000    0     1.008    9.532543   -2.449376    0.742459
  27 H     1.0000    0     1.008    8.954431   -2.048789   -2.499192
  28 H     1.0000    0     1.008   -8.926419    2.101889   -1.565780
  29 H     1.0000    0     1.008   -9.158807    2.655136    1.695353
  30 H     1.0000    0     1.008    9.332468    1.994302    1.444093
  31 H     1.0000    0     1.008    9.377638    2.384031   -1.849953
  32 H     1.0000    0     1.008   -5.934577   -5.883706    0.674957
  33 H     1.0000    0     1.008    6.055524   -6.021695   -0.279457
  34 H     1.0000    0     1.008   -5.820012    6.168637    0.163833
  35 H     1.0000    0     1.008    6.203438    6.039373   -0.312448
  36 H     1.0000    0     1.008   -2.512127   -9.484241    0.422498
  37 H     1.0000    0     1.008    2.563512   -9.539062    0.032028
  38 H     1.0000    0     1.008   -2.320126    9.690988   -0.114473
  39 H     1.0000    0     1.008    2.765881    9.636257   -0.336136
  40 Mg   12.0000    0    24.305    0.173273    0.081670    0.560438
  41 O     8.0000    0    15.999    0.227681    0.402735    4.542677
  42 C     6.0000    0    12.011   -1.133253   -1.301308    6.157174
  43 H     1.0000    0     1.008   -0.527177   -1.071112    8.114549
  44 H     1.0000    0     1.008   -3.167657   -1.001286    5.998721
  45 H     1.0000    0     1.008   -0.683591   -3.197898    5.510916
  46 H     1.0000    0     1.008   -0.116576    2.134469    4.997104

--------------------------------
INTERNAL COORDINATES (ANGSTROEM)
--------------------------------
 N      0   0   0     0.000000000000     0.00000000     0.00000000
 N      1   0   0     4.260258894745     0.00000000     0.00000000
 N      1   2   0     2.946296765579    43.80106352     0.00000000
 N      2   1   3     2.949276643465    43.81765121   180.83025142
 C      1   2   3     2.370147068312   161.29363812     1.97910240
 C      2   1   3     2.368953595941   160.81566609    11.98716236
 C      5   1   2     1.535407035037    71.09939603   185.45256901
 C      6   2   1     1.535547127463    71.10529137   175.50682946
 C      1   2   3     1.352542054615   124.60603460     0.16413444
 C      2   1   3     1.351507461999   124.41522660     3.30288946
 C      1   2   3     1.353182154120   124.40342312   182.57563594
 C      2   1   3     1.352756048920   124.56657717   180.99523417
 C      3   1   2     1.367662238193    80.30439448   180.39971298
 C      3   1   2     1.368075539549   172.38795394   345.16461659
 C      4   2   1     1.368589579090   172.37549225   344.20615026
 C      4   2   1     1.368421955428    80.27810313   180.74371087
 C      9   1   2     1.379628236228   125.69475707     0.12667858
 C     10   2   1     1.379947649131   125.68442486   356.64093580
 C     11   1   2     1.379380053294   125.74628036   356.37373825
 C     12   2   1     1.379305373447   125.72274171   359.69540643
 C     13   3   1     1.433335097275   109.61333506   178.40908255
 C     21  13   3     1.366976549656   106.87220114   359.61581618
 C     15   4  16     1.432596230891   109.59534337   359.56930083
 C     23  15   4     1.367721655999   106.88641971     0.24453404
 H      5   1   2     1.090560446494   128.96368932   290.45525623
 H      5   1   2     1.093802370642   118.48082874    80.13068557
 H      6   2   1     1.090709266808   128.78520442   280.59669948
 H      6   2   1     1.093366821637   118.54666132    70.29334348
 H      7   5   1     1.093334729742   111.84609463   113.61430082
 H      7   5   1     1.090758111885   113.31937997   234.55072544
 H      8   6   2     1.093449775732   111.94074631   113.77029309
 H      8   6   2     1.090614637781   113.21758066   234.79396255
 H     17   9   1     1.083597648587   116.24680465   180.17695538
 H     18  10   2     1.083585492989   116.19193362   180.34640671
 H     19  11   1     1.083664579568   116.18841036   180.30919688
 H     20  12   2     1.083608768782   116.20477021   180.40128664
 H     21  13   3     1.079114567213   125.17964441   180.28034003
 H     22  21  13     1.079085667824   127.94168730   180.66009321
 H     23  15   4     1.079130607038   125.18183288   179.64039125
 H     24  23  15     1.079104640076   127.91285873   179.44393124
 Mg     3   1   2     2.048266466217    46.87629443     8.74969706
 O     41   3   1     2.114344210881    99.32359301    93.32264095
 C     42  41   3     1.435866194424   122.39386503   324.07204090
 H     43  42  41     1.091136517270   110.32208002   167.49410726
 H     43  42  41     1.091429614092   110.95671603   290.01798993
 H     43  42  41     1.086670550185   106.43566245    48.51580145
 H     42  41   3     0.964775500348   108.79470456   192.91255053

---------------------------
INTERNAL COORDINATES (A.U.)
---------------------------
 N      0   0   0     0.000000000000     0.00000000     0.00000000
 N      1   0   0     8.050722570670     0.00000000     0.00000000
 N      1   2   0     5.567693996202    43.80106352     0.00000000
 N      2   1   3     5.573325149319    43.81765121   180.83025142
 C      1   2   3     4.478928856226   161.29363812     1.97910240
 C      2   1   3     4.476673520297   160.81566609    11.98716236
 C      5   1   2     2.901498800316    71.09939603   185.45256901
 C      6   2   1     2.901763536635    71.10529137   175.50682946
 C      1   2   3     2.555934067834   124.60603460     0.16413444
 C      2   1   3     2.553978971130   124.41522660     3.30288946
 C      1   2   3     2.557143680596   124.40342312   182.57563594
 C      2   1   3     2.556338458464   124.56657717   180.99523417
 C      3   1   2     2.584507073890    80.30439448   180.39971298
 C      3   1   2     2.585288100264   172.38795394   345.16461659
 C      4   2   1     2.586259494218   172.37549225   344.20615026
 C      4   2   1     2.585942731405    80.27810313   180.74371087
 C      9   1   2     2.607119533096   125.69475707     0.12667858
 C     10   2   1     2.607723136005   125.68442486   356.64093580
 C     11   1   2     2.606650535319   125.74628036   356.37373825
 C     12   2   1     2.606509410861   125.72274171   359.69540643
 C     13   3   1     2.708610791987   109.61333506   178.40908255
 C     21  13   3     2.583211310342   106.87220114   359.61581618
 C     15   4  16     2.707214536872   109.59534337   359.56930083
 C     23  15   4     2.584619357271   106.88641971     0.24453404
 H      5   1   2     2.060860576361   128.96368932   290.45525623
 H      5   1   2     2.066986925147   118.48082874    80.13068557
 H      6   2   1     2.061141805997   128.78520442   280.59669948
 H      6   2   1     2.066163856809   118.54666132    70.29334348
 H      7   5   1     2.066103211917   111.84609463   113.61430082
 H      7   5   1     2.061234109815   113.31937997   234.55072544
 H      8   6   2     2.066320617332   111.94074631   113.77029309
 H      8   6   2     2.060962983052   113.21758066   234.79396255
 H     17   9   1     2.047702795191   116.24680465   180.17695538
 H     18  10   2     2.047679824439   116.19193362   180.34640671
 H     19  11   1     2.047829276414   116.18841036   180.30919688
 H     20  12   2     2.047723809314   116.20477021   180.40128664
 H     21  13   3     2.039230999157   125.17964441   180.28034003
 H     22  21  13     2.039176387227   127.94168730   180.66009321
 H     23  15   4     2.039261310035   125.18183288   179.64039125
 H     24  23  15     2.039212239588   127.91285873   179.44393124
 Mg     3   1   2     3.870662670445    46.87629443     8.74969706
 O     41   3   1     3.995531511406    99.32359301    93.32264095
 C     42  41   3     2.713393872417   122.39386503   324.07204090
 H     43  42  41     2.061949192361   110.32208002   167.49410726
 H     43  42  41     2.062503065084   110.95671603   290.01798993
 H     43  42  41     2.053509737648   106.43566245    48.51580145
 H     42  41   3     1.823161476375   108.79470456   192.91255053

---------------------
BASIS SET INFORMATION
---------------------
There are 5 groups of distinct atoms

 Group   1 Type N   : 11s6p2d1f contracted to 5s3p2d1f pattern {62111/411/11/1}
 Group   2 Type C   : 11s6p2d1f contracted to 5s3p2d1f pattern {62111/411/11/1}
 Group   3 Type H   : 5s1p contracted to 3s1p pattern {311/1}
 Group   4 Type Mg  : 14s8p3d contracted to 5s4p3d pattern {73211/5111/111}
 Group   5 Type O   : 11s6p2d1f contracted to 5s3p2d1f pattern {62111/411/11/1}

Atom   0N    basis set group =>   1
Atom   1N    basis set group =>   1
Atom   2N    basis set group =>   1
Atom   3N    basis set group =>   1
Atom   4C    basis set group =>   2
Atom   5C    basis set group =>   2
Atom   6C    basis set group =>   2
Atom   7C    basis set group =>   2
Atom   8C    basis set group =>   2
Atom   9C    basis set group =>   2
Atom  10C    basis set group =>   2
Atom  11C    basis set group =>   2
Atom  12C    basis set group =>   2
Atom  13C    basis set group =>   2
Atom  14C    basis set group =>   2
Atom  15C    basis set group =>   2
Atom  16C    basis set group =>   2
Atom  17C    basis set group =>   2
Atom  18C    basis set group =>   2
Atom  19C    basis set group =>   2
Atom  20C    basis set group =>   2
Atom  21C    basis set group =>   2
Atom  22C    basis set group =>   2
Atom  23C    basis set group =>   2
Atom  24H    basis set group =>   3
Atom  25H    basis set group =>   3
Atom  26H    basis set group =>   3
Atom  27H    basis set group =>   3
Atom  28H    basis set group =>   3
Atom  29H    basis set group =>   3
Atom  30H    basis set group =>   3
Atom  31H    basis set group =>   3
Atom  32H    basis set group =>   3
Atom  33H    basis set group =>   3
Atom  34H    basis set group =>   3
Atom  35H    basis set group =>   3
Atom  36H    basis set group =>   3
Atom  37H    basis set group =>   3
Atom  38H    basis set group =>   3
Atom  39H    basis set group =>   3
Atom  40Mg   basis set group =>   4
Atom  41O    basis set group =>   5
Atom  42C    basis set group =>   2
Atom  43H    basis set group =>   3
Atom  44H    basis set group =>   3
Atom  45H    basis set group =>   3
Atom  46H    basis set group =>   3
---------------------------------
AUXILIARY/J BASIS SET INFORMATION
---------------------------------
There are 5 groups of distinct atoms

 Group   1 Type N   : 12s5p4d2f1g contracted to 6s4p3d1f1g pattern {711111/2111/211/2/1}
 Group   2 Type C   : 12s5p4d2f1g contracted to 6s4p3d1f1g pattern {711111/2111/211/2/1}
 Group   3 Type H   : 5s2p1d contracted to 3s1p1d pattern {311/2/1}
 Group   4 Type Mg  : 14s5p5d2f1g contracted to 8s4p4d1f1g pattern {71111111/2111/2111/2/1}
 Group   5 Type O   : 12s5p4d2f1g contracted to 6s4p3d1f1g pattern {711111/2111/211/2/1}

Atom   0N    basis set group =>   1
Atom   1N    basis set group =>   1
Atom   2N    basis set group =>   1
Atom   3N    basis set group =>   1
Atom   4C    basis set group =>   2
Atom   5C    basis set group =>   2
Atom   6C    basis set group =>   2
Atom   7C    basis set group =>   2
Atom   8C    basis set group =>   2
Atom   9C    basis set group =>   2
Atom  10C    basis set group =>   2
Atom  11C    basis set group =>   2
Atom  12C    basis set group =>   2
Atom  13C    basis set group =>   2
Atom  14C    basis set group =>   2
Atom  15C    basis set group =>   2
Atom  16C    basis set group =>   2
Atom  17C    basis set group =>   2
Atom  18C    basis set group =>   2
Atom  19C    basis set group =>   2
Atom  20C    basis set group =>   2
Atom  21C    basis set group =>   2
Atom  22C    basis set group =>   2
Atom  23C    basis set group =>   2
Atom  24H    basis set group =>   3
Atom  25H    basis set group =>   3
Atom  26H    basis set group =>   3
Atom  27H    basis set group =>   3
Atom  28H    basis set group =>   3
Atom  29H    basis set group =>   3
Atom  30H    basis set group =>   3
Atom  31H    basis set group =>   3
Atom  32H    basis set group =>   3
Atom  33H    basis set group =>   3
Atom  34H    basis set group =>   3
Atom  35H    basis set group =>   3
Atom  36H    basis set group =>   3
Atom  37H    basis set group =>   3
Atom  38H    basis set group =>   3
Atom  39H    basis set group =>   3
Atom  40Mg   basis set group =>   4
Atom  41O    basis set group =>   5
Atom  42C    basis set group =>   2
Atom  43H    basis set group =>   3
Atom  44H    basis set group =>   3
Atom  45H    basis set group =>   3
Atom  46H    basis set group =>   3


           ************************************************************
           *        Program running with 4 parallel MPI-processes     *
           *              working on a common directory               *
           ************************************************************
------------------------------------------------------------------------------
                             ORCA STARTUP CALCULATIONS
                           -- RI-GTO INTEGRALS CHOSEN --
------------------------------------------------------------------------------
------------------------------------------------------------------------------
                   ___                                                        
                  /   \      - P O W E R E D   B Y -                         
                 /     \                                                     
                 |  |  |   _    _      __       _____    __    __             
                 |  |  |  | |  | |    /  \     |  _  \  |  |  /  |          
                  \  \/   | |  | |   /    \    | | | |  |  | /  /          
                 / \  \   | |__| |  /  /\  \   | |_| |  |  |/  /          
                |  |  |   |  __  | /  /__\  \  |    /   |      \           
                |  |  |   | |  | | |   __   |  |    \   |  |\   \          
                \     /   | |  | | |  |  |  |  | |\  \  |  | \   \       
                 \___/    |_|  |_| |__|  |__|  |_| \__\ |__|  \__/        
                                                                              
                      - O R C A' S   B I G   F R I E N D -                    
                                      &                                       
                       - I N T E G R A L  F E E D E R -                       
                                                                              
 v1 FN, 2020, v2 2021, v3 2022-2024                                           
------------------------------------------------------------------------------


----------------------
SHARK INTEGRAL PACKAGE
----------------------

Number of atoms                             ...     47
Number of basis functions                   ...    958
Number of shells                            ...    378
Maximum angular momentum                    ...      3
Integral batch strategy                     ... SHARK/LIBINT Hybrid
RI-J (if used) integral strategy            ... SPLIT-RIJ (Revised 2003 algorithm where possible)
Printlevel                                  ...      1
Contraction scheme used                     ... SEGMENTED contraction
Prescreening option                         ... SCHWARTZ
   Thresh                                   ... 2.500e-11
   Tcut                                     ... 2.500e-12
   Tpresel                                  ... 2.500e-12 
Coulomb Range Separation                    ... NOT USED
Exchange Range Separation                   ... NOT USED
Multipole approximations                    ... NOT USED
Finite Nucleus Model                        ... NOT USED
CABS basis                                  ... NOT available
Auxiliary Coulomb fitting basis             ... AVAILABLE
   # of basis functions in Aux-J            ...   1550
   # of shells in Aux-J                     ...    508
   Maximum angular momentum in Aux-J        ...      4
Auxiliary J/K fitting basis                 ... NOT available
Auxiliary Correlation fitting basis         ... NOT available
Auxiliary 'external' fitting basis          ... NOT available

Checking pre-screening integrals            ... done (  0.0 sec) Dimension = 378
   => SHARK Basis and OBASIS are compatible. Storing Pre-screening
Shell pair information
Shell pair cut-off parameter TPreSel        ...   2.5e-12
Total number of shell pairs                 ...     71631
Shell pairs after pre-screening             ...     50412
Total number of primitive shell pairs       ...    222112
Primitive shell pairs kept                  ...    101345
          la=0 lb=0:  12812 shell pairs
          la=1 lb=0:  14597 shell pairs
          la=1 lb=1:   4158 shell pairs
          la=2 lb=0:   7321 shell pairs
          la=2 lb=1:   4254 shell pairs
          la=2 lb=2:   1130 shell pairs
          la=3 lb=0:   3128 shell pairs
          la=3 lb=1:   1876 shell pairs
          la=3 lb=2:    930 shell pairs
          la=3 lb=3:    206 shell pairs

Checking whether 4 symmetric matrices of dimension 958 fit in memory
:Max Core in MB      =   3000.00
 MB in use           =     64.03
 MB left             =   2935.97
 MB needed           =     14.02
 Data fit in memory  = YES
Calculating RI/J V-Matrix + Cholesky decomp.... done (  0.2 sec)
Calculating Nuclear repulsion               ... done (  0.0 sec) ENN=   2623.086717603639 Eh

Diagonalization of the overlap matrix:
Smallest eigenvalue                        ... 1.001e-05
Time for diagonalization                   ...    0.265 sec
Threshold for overlap eigenvalues          ... 1.000e-07
Number of eigenvalues below threshold      ... 0
Time for construction of square roots      ...    0.181 sec
Total time needed                          ...    0.455 sec

-------------------
DFT GRID GENERATION
-------------------

General Integration Accuracy     IntAcc      ... 4.959
Radial Grid Type                 RadialGrid  ... OptM3 with GC (2021)
Angular Grid (max. ang.)         AngularGrid ... 6 (Lebedev-590)
Angular grid pruning method      GridPruning ... 4 (adaptive)
Weight generation scheme         WeightScheme... mBecke (2022)
Basis function cutoff            BFCut       ... 1.0000e-11
Integration weight cutoff        WCut        ... 1.0000e-14
Partially contracted basis set               ... off
Rotationally invariant grid construction     ... off
Angular grids for H and He will be reduced by one unit

Total number of grid points                  ...   550626
Total number of batches                      ...     8629
Average number of points per batch           ...       63
Average number of grid points per atom       ...    11715
Grids setup in  10.0 sec
Initializing property integral containers    ... done (  0.0 sec)

SHARK setup successfully completed in  11.7 seconds

Maximum memory used throughout the entire STARTUP-calculation: 186.4 MB


           ************************************************************
           *        Program running with 4 parallel MPI-processes     *
           *              working on a common directory               *
           ************************************************************
-------------------------------------------------------------------------------
                                 ORCA GUESS
                   Start orbitals & Density for SCF / CASSCF
-------------------------------------------------------------------------------

------------
SCF SETTINGS
------------
Hamiltonian:
 Density Functional     Method          .... DFT(GTOs)
 Exchange Functional    Exchange        .... TPSS
 Correlation Functional Correlation     .... TPSS
 LDA part of GGA corr.  LDAOpt          .... PW91-LDA
 Gradients option       PostSCFGGA      .... off
   NL short-range parameter             ....  5.000000
 RI-approximation to the Coulomb term is turned on
   Number of AuxJ basis functions       .... 1550


General Settings:
 Integral files         IntName         .... tddft
 Hartree-Fock type      HFTyp           .... RHF
 Total Charge           Charge          ....    0
 Multiplicity           Mult            ....    1
 Number of Electrons    NEL             ....  194
 Basis Dimension        Dim             ....  958
 Nuclear Repulsion      ENuc            ....   2623.0867176036 Eh

Convergence Acceleration:
 AO-DIIS                CNVDIIS         .... on
   Start iteration      DIISMaxIt       ....    12
   Startup error        DIISStart       ....  0.200000
   # of expansion vecs  DIISMaxEq       ....     5
   Bias factor          DIISBfac        ....   1.050
   Max. coefficient     DIISMaxC        ....  10.000
 MO-DIIS                CNVKDIIS        .... off
 Trust-Rad. Augm. Hess. CNVTRAH         .... auto
   Auto Start mean grad. ratio tolernc. ....  1.125000
   Auto Start start iteration           ....    50
   Auto Start num. interpolation iter.  ....    10
   Max. Number of Micro iterations      ....    24
   Max. Number of Macro iterations      .... Maxiter - #DIIS iter
   Number of Davidson start vectors     ....     2
   Converg. threshold    (grad. norm)   ....   1.000e-05
   Grad. Scal. Fac. for Micro threshold ....   0.100
   Minimum threshold for Micro iter.    ....   1.000e-02
   NR start threshold (gradient norm)   ....   1.000e-04
   Initial trust radius                 ....   0.400
   Minimum AH scaling param. (alpha)    ....   1.000
   Maximum AH scaling param. (alpha)    .... 1000.000
   Quad. conv. algorithm                .... NR
   White noise on init. David. guess    .... on
   Maximum white noise                  ....   0.010
   Pseudo random numbers                .... off
   Inactive MOs                         .... canonical
   Orbital update algorithm             .... Taylor
   Preconditioner                       .... Diag
   Full preconditioner red. dimension   ....   250
 SOSCF                 CNVSOSCF           .... on
   Start iteration     SOSCFMaxIt         ....   150
   Startup grad/error  SOSCFStart         ....  0.003300
   Hessian update      SOSCFHessUp        .... L-BFGS
   Autom. constraints  SOSCFAutoConstrain .... off
 Level Shifting         CNVShift        .... on
   Level shift para.    LevelShift      ....    0.2500
   Turn off err/grad.   ShiftErr        ....    0.0010
 Zerner damping         CNVZerner       .... off
 Static damping         CNVDamp         .... on
   Fraction old density DampFac         ....    0.7000
   Max. Damping (<1)    DampMax         ....    0.9800
   Min. Damping (>=0)   DampMin         ....    0.0000
   Turn off err/grad.   DampErr         ....    0.1000

SCF Procedure:
 Maximum # iterations   MaxIter         ....   125
 SCF integral mode      SCFMode         .... Direct
   Integral package                     .... SHARK and LIBINT hybrid scheme
 Reset frequency        DirectResetFreq ....    20
 Integral Threshold     Thresh          ....  2.500e-11 Eh
 Primitive CutOff       TCut            ....  2.500e-12 Eh

Convergence Tolerance:
 Convergence Check Mode ConvCheckMode   .... Total+1el-Energy
 Convergence forced     ConvForced      .... 1
 Energy Change          TolE            ....  1.000e-08 Eh
 1-El. energy change                    ....  1.000e-05 Eh
 Orbital Gradient       TolG            ....  1.000e-05
 Orbital Rotation angle TolX            ....  1.000e-05
 DIIS Error             TolErr          ....  5.000e-07

------------------------------
INITIAL GUESS: MODEL POTENTIAL
------------------------------
Loading Hartree-Fock densities                     ... done
Calculating cut-offs                               ... done
Initializing the effective Hamiltonian             ... done
Setting up the integral package (SHARK)            ... done
Starting the Coulomb interaction                   ... done (   2.3 sec)
Making the grid                                    ... done (   0.8 sec)
Mapping shells                                     ... done
Starting the XC term evaluation                    ... done (   1.0 sec)
  promolecular density results
     # of electrons  =    194.017392037
     EX              =   -163.779439852
     EC              =     -6.578544742
     EX+EC           =   -170.357984595
Transforming the Hamiltonian                       ... done (   0.1 sec)
Diagonalizing the Hamiltonian                      ... done (   0.3 sec)
Back transforming the eigenvectors                 ... done (   0.1 sec)
Now organizing SCF variables                       ... done
                      ------------------
                      INITIAL GUESS DONE (   4.7 sec)
                      ------------------
             **** ENERGY FILE WAS UPDATED (tddft.en.tmp) ****
Finished Guess after   5.2 sec
Maximum memory used throughout the entire GUESS-calculation: 106.7 MB


           ************************************************************
           *        Program running with 4 parallel MPI-processes     *
           *              working on a common directory               *
           ************************************************************

-------------------------------------------------------------------------------------------
                                      ORCA LEAN-SCF
                              memory conserving SCF solver
-------------------------------------------------------------------------------------------

--------------------
CPCM SOLVATION MODEL
--------------------
CPCM parameters:
  Epsilon                                         ...       8.9990
  Refrac                                          ...       1.4242
  Rsolv                                           ...       1.3000
  Surface type                                    ... GAUSSIAN VDW
  Discretization scheme                           ... Constant charge density
    Threshold for H atoms                         ...       5.0000 (charges/Ang^2)
    Threshold for non-H atoms                     ...       5.0000 (charges/Ang^2)
  Epsilon function type                           ...         CPCM
Solvent:                                          ... DICHLOROMETHANE
Radii:
  Scheme                                          ... Element-dependent radii
  Radius for N  used is    3.5149 Bohr (=   1.8600 Ang.)
  Radius for C  used is    3.8550 Bohr (=   2.0400 Ang.)
  Radius for H  used is    2.4944 Bohr (=   1.3200 Ang.)
  Radius for Mg used is    3.9231 Bohr (=   2.0760 Ang.)
  Radius for O  used is    3.4469 Bohr (=   1.8240 Ang.)
Calculating surface                               ...        done! (  0.0s)
Cavity surface points                             ...         4113
Cavity Volume                                     ...    2831.5727
Cavity Surface-area                               ...    1348.4688
Calculating surface distance matrix               ...        done! (  0.4s)
Performing Cholesky decomposition & store         ...        done! (  0.9s)
Overall time for CPCM initialization              ...                 1.3s

----------------------------------------D-I-I-S--------------------------------------------
Iteration    Energy (Eh)           Delta-E    RMSDP     MaxDP     DIISErr   Damp  Time(sec)
-------------------------------------------------------------------------------------------
               ***  Starting incremental Fock matrix formation  ***
    1    -1306.7920368970144409     0.00e+00  2.01e-03  4.46e-02  2.19e-01  0.700  27.3
Warning: op=0 Small HOMO/LUMO gap (   0.057) - skipping pre-diagonalization
         Will do a full diagonalization
    2    -1307.0680133718474281    -2.76e-01  1.81e-03  5.39e-02  9.22e-02  0.700  27.4
                               ***Turning on AO-DIIS***
    3    -1307.1751551753895910    -1.07e-01  8.97e-04  1.98e-02  2.97e-02  0.700  27.5
    4    -1307.2372816691067783    -6.21e-02  1.65e-03  4.01e-02  1.41e-02  0.000  26.0
    5    -1307.3738547847510745    -1.37e-01  4.51e-04  1.81e-02  5.45e-03  0.000  26.8
                              *** Initializing SOSCF ***
---------------------------------------S-O-S-C-F--------------------------------------
Iteration    Energy (Eh)           Delta-E    RMSDP     MaxDP     MaxGrad    Time(sec)
--------------------------------------------------------------------------------------
    6    -1307.3749196962776296    -1.06e-03  2.21e-04  8.53e-03  1.71e-03    24.9
               *** Restarting incremental Fock matrix formation ***
    7    -1307.3749954505829010    -7.58e-05  1.48e-04  5.97e-03  5.99e-04    33.8
    8    -1307.3749902865706645     5.16e-06  4.02e-05  1.20e-03  6.90e-04    22.3
    9    -1307.3750192065249394    -2.89e-05  2.14e-05  7.94e-04  1.02e-04    21.5
   10    -1307.3750187673354048     4.39e-07  5.53e-06  2.19e-04  1.11e-04    20.8
   11    -1307.3750196751143449    -9.08e-07  5.21e-06  1.68e-04  1.02e-05    19.1
   12    -1307.3750196580140255     1.71e-08  3.81e-06  1.70e-04  1.32e-05    18.7
   13    -1307.3750196520227291     5.99e-09  7.68e-06  4.06e-04  3.32e-06    18.2
                 **** Energy Check signals convergence ****

               *****************************************************
               *                     SUCCESS                       *
               *           SCF CONVERGED AFTER  13 CYCLES          *
               *****************************************************

             **** ENERGY FILE WAS UPDATED (tddft.en.tmp) ****

----------------
TOTAL SCF ENERGY
----------------

Total Energy       :      -1307.37501963386285 Eh          -35575.48291 eV

Components:
Nuclear Repulsion  :       2623.08671760363859 Eh           71377.81836 eV
Electronic Energy  :      -3930.44455745604182 Eh         -106952.83379 eV
One Electron Energy:      -7002.71839116950741 Eh         -190553.65498 eV
Two Electron Energy:       3072.27383371346559 Eh           83600.82120 eV
CPCM Dielectric    :         -0.01717978145951 Eh              -0.46749 eV

Virial components:
Potential Energy   :      -2609.52322541828744 Eh          -71008.73698 eV
Kinetic Energy     :       1302.14820578442459 Eh           35433.25407 eV
Virial Ratio       :          2.00401399305104

DFT components:
N(Alpha)           :       97.000017045618 electrons
N(Beta)            :       97.000017045618 electrons
N(Total)           :      194.000034091235 electrons
E(X)               :     -168.459735730404 Eh       
E(C)               :       -6.592448374864 Eh       
E(XC)              :     -175.052184105268 Eh       

CPCM Solvation Model Properties:
Surface-charge          :         -0.03924135600183
Corrected charge        :          0.00000000000000
Outlying charge corr.   :          0.00007083266805 Eh               0.00193 eV
Free-energy (cav+disp)  :  This term is not implemented in the current solvation scheme

---------------
SCF CONVERGENCE
---------------

  Last Energy change         ...   -5.9913e-09  Tolerance :   1.0000e-08
  Last MAX-Density change    ...    4.0607e-04  Tolerance :   1.0000e-07
  Last RMS-Density change    ...    7.6757e-06  Tolerance :   5.0000e-09
  Last DIIS Error            ...    1.7096e-03  Tolerance :   5.0000e-07
  Last Orbital Gradient      ...    3.3218e-06  Tolerance :   1.0000e-05
  Last Orbital Rotation      ...    1.1466e-05  Tolerance :   1.0000e-05


----------------
ORBITAL ENERGIES
----------------

  NO   OCC          E(Eh)            E(eV) 
   0   2.0000     -46.366572     -1261.6986 
   1   2.0000     -18.914473      -514.6890 
   2   2.0000     -14.098420      -383.6375 
   3   2.0000     -14.098130      -383.6296 
   4   2.0000     -14.073843      -382.9687 
   5   2.0000     -14.073745      -382.9661 
   6   2.0000     -10.032849      -273.0077 
   7   2.0000     -10.013605      -272.4840 
   8   2.0000     -10.013576      -272.4833 
   9   2.0000     -10.013566      -272.4830 
  10   2.0000     -10.013414      -272.4788 
  11   2.0000     -10.003860      -272.2189 
  12   2.0000     -10.003807      -272.2174 
  13   2.0000     -10.003763      -272.2162 
  14   2.0000     -10.003516      -272.2095 
  15   2.0000      -9.984877      -271.7023 
  16   2.0000      -9.984743      -271.6987 
  17   2.0000      -9.984432      -271.6902 
  18   2.0000      -9.984322      -271.6872 
  19   2.0000      -9.975866      -271.4571 
  20   2.0000      -9.975739      -271.4537 
  21   2.0000      -9.975505      -271.4473 
  22   2.0000      -9.975482      -271.4467 
  23   2.0000      -9.972060      -271.3535 
  24   2.0000      -9.971917      -271.3497 
  25   2.0000      -9.971557      -271.3399 
  26   2.0000      -9.971423      -271.3362 
  27   2.0000      -2.899825       -78.9083 
  28   2.0000      -1.663171       -45.2572 
  29   2.0000      -1.659496       -45.1572 
  30   2.0000      -1.658461       -45.1290 
  31   2.0000      -0.980204       -26.6727 
  32   2.0000      -0.888346       -24.1731 
  33   2.0000      -0.883304       -24.0359 
  34   2.0000      -0.875787       -23.8314 
  35   2.0000      -0.869840       -23.6695 
  36   2.0000      -0.745945       -20.2982 
  37   2.0000      -0.724139       -19.7048 
  38   2.0000      -0.716354       -19.4930 
  39   2.0000      -0.707593       -19.2546 
  40   2.0000      -0.706440       -19.2232 
  41   2.0000      -0.694139       -18.8885 
  42   2.0000      -0.693748       -18.8778 
  43   2.0000      -0.670605       -18.2481 
  44   2.0000      -0.654933       -17.8216 
  45   2.0000      -0.646227       -17.5847 
  46   2.0000      -0.600404       -16.3378 
  47   2.0000      -0.591837       -16.1047 
  48   2.0000      -0.560155       -15.2426 
  49   2.0000      -0.540579       -14.7099 
  50   2.0000      -0.514669       -14.0048 
  51   2.0000      -0.512815       -13.9544 
  52   2.0000      -0.511345       -13.9144 
  53   2.0000      -0.502751       -13.6805 
  54   2.0000      -0.484314       -13.1788 
  55   2.0000      -0.476755       -12.9732 
  56   2.0000      -0.465726       -12.6731 
  57   2.0000      -0.455070       -12.3831 
  58   2.0000      -0.450249       -12.2519 
  59   2.0000      -0.444321       -12.0906 
  60   2.0000      -0.434570       -11.8253 
  61   2.0000      -0.428727       -11.6663 
  62   2.0000      -0.426419       -11.6034 
  63   2.0000      -0.415191       -11.2979 
  64   2.0000      -0.405810       -11.0426 
  65   2.0000      -0.389634       -10.6025 
  66   2.0000      -0.388786       -10.5794 
  67   2.0000      -0.368723       -10.0334 
  68   2.0000      -0.366839        -9.9822 
  69   2.0000      -0.365323        -9.9409 
  70   2.0000      -0.356636        -9.7046 
  71   2.0000      -0.356375        -9.6975 
  72   2.0000      -0.352829        -9.6010 
  73   2.0000      -0.340743        -9.2721 
  74   2.0000      -0.336951        -9.1689 
  75   2.0000      -0.334951        -9.1145 
  76   2.0000      -0.332934        -9.0596 
  77   2.0000      -0.331546        -9.0218 
  78   2.0000      -0.328778        -8.9465 
  79   2.0000      -0.320613        -8.7243 
  80   2.0000      -0.317536        -8.6406 
  81   2.0000      -0.314166        -8.5489 
  82   2.0000      -0.312571        -8.5055 
  83   2.0000      -0.310152        -8.4397 
  84   2.0000      -0.305471        -8.3123 
  85   2.0000      -0.301940        -8.2162 
  86   2.0000      -0.271273        -7.3817 
  87   2.0000      -0.267780        -7.2867 
  88   2.0000      -0.262496        -7.1429 
  89   2.0000      -0.257127        -6.9968 
  90   2.0000      -0.239993        -6.5305 
  91   2.0000      -0.235947        -6.4204 
  92   2.0000      -0.227041        -6.1781 
  93   2.0000      -0.214494        -5.8367 
  94   2.0000      -0.207103        -5.6356 
  95   2.0000      -0.171180        -4.6580 
  96   2.0000      -0.150531        -4.0962 
  97   0.0000      -0.101297        -2.7564 
  98   0.0000      -0.053266        -1.4494 
  99   0.0000      -0.005369        -0.1461 
 100   0.0000      -0.000148        -0.0040 
 101   0.0000       0.001094         0.0298 
 102   0.0000       0.014146         0.3849 
 103   0.0000       0.027274         0.7422 
 104   0.0000       0.028976         0.7885 
 105   0.0000       0.043325         1.1789 
 106   0.0000       0.049298         1.3415 
 107   0.0000       0.058536         1.5928 
*Only the first 10 virtual orbitals were printed.

                    ********************************
                    * MULLIKEN POPULATION ANALYSIS *
                    ********************************

-----------------------
MULLIKEN ATOMIC CHARGES
-----------------------
   0 N :   -0.312484
   1 N :   -0.308657
   2 N :   -0.382664
   3 N :   -0.391086
   4 C :   -0.115797
   5 C :   -0.117703
   6 C :   -0.120979
   7 C :   -0.117789
   8 C :    0.197967
   9 C :    0.200697
  10 C :    0.204380
  11 C :    0.208683
  12 C :    0.336191
  13 C :    0.349723
  14 C :    0.343382
  15 C :    0.353549
  16 C :   -0.473415
  17 C :   -0.470264
  18 C :   -0.464463
  19 C :   -0.478355
  20 C :   -0.243265
  21 C :   -0.248313
  22 C :   -0.248738
  23 C :   -0.245091
  24 H :    0.113896
  25 H :    0.095692
  26 H :    0.112715
  27 H :    0.098430
  28 H :    0.097884
  29 H :    0.112831
  30 H :    0.097372
  31 H :    0.113365
  32 H :    0.114546
  33 H :    0.116869
  34 H :    0.116132
  35 H :    0.117647
  36 H :    0.117572
  37 H :    0.117237
  38 H :    0.117530
  39 H :    0.117411
  40 Mg:    0.622063
  41 O :   -0.464889
  42 C :   -0.199738
  43 H :    0.150202
  44 H :    0.136186
  45 H :    0.155869
  46 H :    0.367671
Sum of atomic charges:   -0.0000000

--------------------------------
MULLIKEN REDUCED ORBITAL CHARGES
--------------------------------
  0 N s       :     3.667602  s :     3.667602
      pz      :     1.243602  p :     3.580163
      px      :     1.310694
      py      :     1.025867
      dz2     :     0.004099  d :     0.060975
      dxz     :     0.005946
      dyz     :     0.015915
      dx2y2   :     0.017248
      dxy     :     0.017768
      f0      :     0.000639  f :     0.003745
      f+1     :     0.000235
      f-1     :     0.000376
      f+2     :     0.000114
      f-2     :     0.000606
      f+3     :     0.000692
      f-3     :     0.001082

  1 N s       :     3.674406  s :     3.674406
      pz      :     1.245251  p :     3.569682
      px      :     1.299600
      py      :     1.024831
      dz2     :     0.004031  d :     0.060825
      dxz     :     0.005702
      dyz     :     0.016081
      dx2y2   :     0.017430
      dxy     :     0.017581
      f0      :     0.000633  f :     0.003744
      f+1     :     0.000241
      f-1     :     0.000372
      f+2     :     0.000116
      f-2     :     0.000605
      f+3     :     0.000689
      f-3     :     0.001089

  2 N s       :     3.672591  s :     3.672591
      pz      :     1.356315  p :     3.648626
      px      :     1.028388
      py      :     1.263922
      dz2     :     0.004370  d :     0.057702
      dxz     :     0.013840
      dyz     :     0.005848
      dx2y2   :     0.016788
      dxy     :     0.016856
      f0      :     0.000647  f :     0.003745
      f+1     :     0.000415
      f-1     :     0.000304
      f+2     :     0.000091
      f-2     :     0.000650
      f+3     :     0.000972
      f-3     :     0.000665

  3 N s       :     3.673518  s :     3.673518
      pz      :     1.356776  p :     3.656201
      px      :     1.029240
      py      :     1.270184
      dz2     :     0.004259  d :     0.057632
      dxz     :     0.013945
      dyz     :     0.005838
      dx2y2   :     0.016613
      dxy     :     0.016976
      f0      :     0.000641  f :     0.003735
      f+1     :     0.000409
      f-1     :     0.000304
      f+2     :     0.000089
      f-2     :     0.000652
      f+3     :     0.000974
      f-3     :     0.000667

  4 C s       :     3.073331  s :     3.073331
      pz      :     1.031294  p :     2.946754
      px      :     0.952139
      py      :     0.963321
      dz2     :     0.007525  d :     0.088877
      dxz     :     0.018757
      dyz     :     0.018917
      dx2y2   :     0.017379
      dxy     :     0.026299
      f0      :     0.000840  f :     0.006833
      f+1     :     0.000824
      f-1     :     0.000698
      f+2     :     0.000904
      f-2     :     0.000732
      f+3     :     0.001638
      f-3     :     0.001199

  5 C s       :     3.072538  s :     3.072538
      pz      :     1.034800  p :     2.949482
      px      :     0.949785
      py      :     0.964897
      dz2     :     0.007664  d :     0.088843
      dxz     :     0.017611
      dyz     :     0.019741
      dx2y2   :     0.017468
      dxy     :     0.026358
      f0      :     0.000878  f :     0.006839
      f+1     :     0.000770
      f-1     :     0.000716
      f+2     :     0.000924
      f-2     :     0.000716
      f+3     :     0.001601
      f-3     :     0.001235

  6 C s       :     3.075094  s :     3.075094
      pz      :     1.035188  p :     2.950289
      px      :     0.950276
      py      :     0.964825
      dz2     :     0.006993  d :     0.088758
      dxz     :     0.018996
      dyz     :     0.019178
      dx2y2   :     0.017447
      dxy     :     0.026143
      f0      :     0.000755  f :     0.006837
      f+1     :     0.000876
      f-1     :     0.000748
      f+2     :     0.000919
      f-2     :     0.000704
      f+3     :     0.001632
      f-3     :     0.001204

  7 C s       :     3.072070  s :     3.072070
      pz      :     1.033591  p :     2.950043
      px      :     0.953719
      py      :     0.962732
      dz2     :     0.005766  d :     0.088836
      dxz     :     0.019652
      dyz     :     0.020117
      dx2y2   :     0.017498
      dxy     :     0.025803
      f0      :     0.000652  f :     0.006841
      f+1     :     0.000969
      f-1     :     0.000779
      f+2     :     0.000938
      f-2     :     0.000670
      f+3     :     0.001655
      f-3     :     0.001178

  8 C s       :     3.130783  s :     3.130783
      pz      :     0.916280  p :     2.493119
      px      :     0.858171
      py      :     0.718668
      dz2     :     0.004567  d :     0.163868
      dxz     :     0.021773
      dyz     :     0.040367
      dx2y2   :     0.053408
      dxy     :     0.043753
      f0      :     0.001850  f :     0.014262
      f+1     :     0.000910
      f-1     :     0.000912
      f+2     :     0.001255
      f-2     :     0.001594
      f+3     :     0.002819
      f-3     :     0.004921

  9 C s       :     3.133894  s :     3.133894
      pz      :     0.915438  p :     2.486258
      px      :     0.855458
      py      :     0.715362
      dz2     :     0.004852  d :     0.164838
      dxz     :     0.021695
      dyz     :     0.040390
      dx2y2   :     0.053358
      dxy     :     0.044544
      f0      :     0.001830  f :     0.014313
      f+1     :     0.000944
      f-1     :     0.000930
      f+2     :     0.001292
      f-2     :     0.001589
      f+3     :     0.002672
      f-3     :     0.005056

 10 C s       :     3.133552  s :     3.133552
      pz      :     0.913115  p :     2.484178
      px      :     0.853802
      py      :     0.717260
      dz2     :     0.003725  d :     0.163656
      dxz     :     0.021838
      dyz     :     0.040310
      dx2y2   :     0.053540
      dxy     :     0.044243
      f0      :     0.001855  f :     0.014234
      f+1     :     0.000882
      f-1     :     0.000921
      f+2     :     0.001285
      f-2     :     0.001559
      f+3     :     0.002685
      f-3     :     0.005048

 11 C s       :     3.129542  s :     3.129542
      pz      :     0.917171  p :     2.482556
      px      :     0.843220
      py      :     0.722165
      dz2     :     0.003556  d :     0.164917
      dxz     :     0.022375
      dyz     :     0.040283
      dx2y2   :     0.054489
      dxy     :     0.044214
      f0      :     0.001870  f :     0.014302
      f+1     :     0.000887
      f-1     :     0.000907
      f+2     :     0.001282
      f-2     :     0.001597
      f+3     :     0.002822
      f-3     :     0.004936

 12 C s       :     3.083511  s :     3.083511
      pz      :     0.930443  p :     2.397902
      px      :     0.694908
      py      :     0.772552
      dz2     :     0.005174  d :     0.167710
      dxz     :     0.038278
      dyz     :     0.029691
      dx2y2   :     0.052688
      dxy     :     0.041879
      f0      :     0.002004  f :     0.014685
      f+1     :     0.001078
      f-1     :     0.000840
      f+2     :     0.000944
      f-2     :     0.002162
      f+3     :     0.004720
      f-3     :     0.002938

 13 C s       :     3.087119  s :     3.087119
      pz      :     0.922422  p :     2.380496
      px      :     0.703426
      py      :     0.754648
      dz2     :     0.005208  d :     0.168003
      dxz     :     0.037794
      dyz     :     0.029541
      dx2y2   :     0.053259
      dxy     :     0.042201
      f0      :     0.001959  f :     0.014660
      f+1     :     0.001106
      f-1     :     0.000854
      f+2     :     0.000905
      f-2     :     0.002203
      f+3     :     0.004548
      f-3     :     0.003083

 14 C s       :     3.082462  s :     3.082462
      pz      :     0.929738  p :     2.393063
      px      :     0.699961
      py      :     0.763363
      dz2     :     0.004693  d :     0.166471
      dxz     :     0.038077
      dyz     :     0.029361
      dx2y2   :     0.052625
      dxy     :     0.041714
      f0      :     0.001988  f :     0.014623
      f+1     :     0.001052
      f-1     :     0.000854
      f+2     :     0.000877
      f-2     :     0.002199
      f+3     :     0.004571
      f-3     :     0.003081

 15 C s       :     3.083762  s :     3.083762
      pz      :     0.927028  p :     2.380689
      px      :     0.699762
      py      :     0.753899
      dz2     :     0.004882  d :     0.167373
      dxz     :     0.038055
      dyz     :     0.029289
      dx2y2   :     0.052601
      dxy     :     0.042547
      f0      :     0.001978  f :     0.014626
      f+1     :     0.001084
      f-1     :     0.000842
      f+2     :     0.000946
      f-2     :     0.002144
      f+3     :     0.004699
      f-3     :     0.002933

 16 C s       :     3.446662  s :     3.446662
      pz      :     1.067405  p :     2.938049
      px      :     0.924376
      py      :     0.946268
      dz2     :     0.002137  d :     0.080927
      dxz     :     0.014863
      dyz     :     0.015806
      dx2y2   :     0.008657
      dxy     :     0.039464
      f0      :     0.001352  f :     0.007779
      f+1     :     0.000718
      f-1     :     0.000689
      f+2     :     0.000899
      f-2     :     0.000527
      f+3     :     0.001742
      f-3     :     0.001853

 17 C s       :     3.430424  s :     3.430424
      pz      :     1.068181  p :     2.950807
      px      :     0.930859
      py      :     0.951767
      dz2     :     0.002486  d :     0.081248
      dxz     :     0.015185
      dyz     :     0.015379
      dx2y2   :     0.008788
      dxy     :     0.039410
      f0      :     0.001330  f :     0.007785
      f+1     :     0.000741
      f-1     :     0.000698
      f+2     :     0.000896
      f-2     :     0.000541
      f+3     :     0.001677
      f-3     :     0.001902

 18 C s       :     3.429965  s :     3.429965
      pz      :     1.068963  p :     2.945271
      px      :     0.926437
      py      :     0.949872
      dz2     :     0.002313  d :     0.081446
      dxz     :     0.015456
      dyz     :     0.015263
      dx2y2   :     0.008812
      dxy     :     0.039602
      f0      :     0.001342  f :     0.007781
      f+1     :     0.000718
      f-1     :     0.000712
      f+2     :     0.000897
      f-2     :     0.000517
      f+3     :     0.001680
      f-3     :     0.001916

 19 C s       :     3.434230  s :     3.434230
      pz      :     1.068629  p :     2.954913
      px      :     0.931731
      py      :     0.954553
      dz2     :     0.002170  d :     0.081428
      dxz     :     0.014984
      dyz     :     0.015852
      dx2y2   :     0.008873
      dxy     :     0.039549
      f0      :     0.001358  f :     0.007783
      f+1     :     0.000717
      f-1     :     0.000691
      f+2     :     0.000897
      f-2     :     0.000524
      f+3     :     0.001744
      f-3     :     0.001853

 20 C s       :     3.309465  s :     3.309465
      pz      :     1.027895  p :     2.836860
      px      :     0.919993
      py      :     0.888972
      dz2     :     0.005132  d :     0.088830
      dxz     :     0.018395
      dyz     :     0.011350
      dx2y2   :     0.018012
      dxy     :     0.035941
      f0      :     0.001332  f :     0.008111
      f+1     :     0.000646
      f-1     :     0.000800
      f+2     :     0.001280
      f-2     :     0.000254
      f+3     :     0.001452
      f-3     :     0.002348

 21 C s       :     3.313398  s :     3.313398
      pz      :     1.027097  p :     2.837763
      px      :     0.920821
      py      :     0.889845
      dz2     :     0.005218  d :     0.089037
      dxz     :     0.018714
      dyz     :     0.011247
      dx2y2   :     0.018254
      dxy     :     0.035604
      f0      :     0.001336  f :     0.008114
      f+1     :     0.000634
      f-1     :     0.000810
      f+2     :     0.001242
      f-2     :     0.000296
      f+3     :     0.001423
      f-3     :     0.002373

 22 C s       :     3.311860  s :     3.311860
      pz      :     1.028951  p :     2.839555
      px      :     0.919810
      py      :     0.890793
      dz2     :     0.005182  d :     0.089204
      dxz     :     0.018874
      dyz     :     0.010997
      dx2y2   :     0.018278
      dxy     :     0.035873
      f0      :     0.001344  f :     0.008119
      f+1     :     0.000600
      f-1     :     0.000832
      f+2     :     0.001261
      f-2     :     0.000276
      f+3     :     0.001428
      f-3     :     0.002379

 23 C s       :     3.310746  s :     3.310746
      pz      :     1.027112  p :     2.837126
      px      :     0.919541
      py      :     0.890473
      dz2     :     0.004968  d :     0.089101
      dxz     :     0.018702
      dyz     :     0.011465
      dx2y2   :     0.018045
      dxy     :     0.035922
      f0      :     0.001361  f :     0.008118
      f+1     :     0.000606
      f-1     :     0.000800
      f+2     :     0.001300
      f-2     :     0.000254
      f+3     :     0.001440
      f-3     :     0.002358

 24 H s       :     0.865926  s :     0.865926
      pz      :     0.007032  p :     0.020178
      px      :     0.006888
      py      :     0.006257

 25 H s       :     0.883910  s :     0.883910
      pz      :     0.009763  p :     0.020398
      px      :     0.005707
      py      :     0.004928

 26 H s       :     0.867112  s :     0.867112
      pz      :     0.006970  p :     0.020173
      px      :     0.007052
      py      :     0.006151

 27 H s       :     0.881197  s :     0.881197
      pz      :     0.009844  p :     0.020373
      px      :     0.005406
      py      :     0.005124

 28 H s       :     0.881728  s :     0.881728
      pz      :     0.009505  p :     0.020388
      px      :     0.005923
      py      :     0.004960

 29 H s       :     0.867010  s :     0.867010
      pz      :     0.007262  p :     0.020159
      px      :     0.006543
      py      :     0.006354

 30 H s       :     0.882253  s :     0.882253
      pz      :     0.009017  p :     0.020375
      px      :     0.006278
      py      :     0.005080

 31 H s       :     0.866472  s :     0.866472
      pz      :     0.007791  p :     0.020163
      px      :     0.006324
      py      :     0.006048

 32 H s       :     0.865002  s :     0.865002
      pz      :     0.005507  p :     0.020453
      px      :     0.007435
      py      :     0.007510

 33 H s       :     0.862688  s :     0.862688
      pz      :     0.005500  p :     0.020443
      px      :     0.007250
      py      :     0.007694

 34 H s       :     0.863418  s :     0.863418
      pz      :     0.005491  p :     0.020450
      px      :     0.007292
      py      :     0.007666

 35 H s       :     0.861917  s :     0.861917
      pz      :     0.005501  p :     0.020436
      px      :     0.007438
      py      :     0.007497

 36 H s       :     0.862405  s :     0.862405
      pz      :     0.005016  p :     0.020022
      px      :     0.006577
      py      :     0.008429

 37 H s       :     0.862744  s :     0.862744
      pz      :     0.005022  p :     0.020020
      px      :     0.006412
      py      :     0.008585

 38 H s       :     0.862449  s :     0.862449
      pz      :     0.005023  p :     0.020021
      px      :     0.006431
      py      :     0.008567

 39 H s       :     0.862570  s :     0.862570
      pz      :     0.005050  p :     0.020019
      px      :     0.006556
      py      :     0.008413

 40 Mgs       :     4.535296  s :     4.535296
      pz      :     2.161712  p :     6.548712
      px      :     2.182812
      py      :     2.204188
      dz2     :     0.041842  d :     0.293930
      dxz     :     0.028167
      dyz     :     0.037479
      dx2y2   :     0.152265
      dxy     :     0.034176

 41 O s       :     3.775242  s :     3.775242
      pz      :     1.619636  p :     4.661689
      px      :     1.740523
      py      :     1.301530
      dz2     :     0.005408  d :     0.026403
      dxz     :     0.004110
      dyz     :     0.004938
      dx2y2   :     0.007390
      dxy     :     0.004557
      f0      :     0.000167  f :     0.001556
      f+1     :     0.000119
      f-1     :     0.000176
      f+2     :     0.000245
      f-2     :     0.000245
      f+3     :     0.000251
      f-3     :     0.000352

 42 C s       :     3.224153  s :     3.224153
      pz      :     0.953622  p :     2.867406
      px      :     0.987794
      py      :     0.925991
      dz2     :     0.031684  d :     0.099392
      dxz     :     0.010785
      dyz     :     0.013247
      dx2y2   :     0.031088
      dxy     :     0.012588
      f0      :     0.001019  f :     0.008788
      f+1     :     0.001345
      f-1     :     0.001353
      f+2     :     0.001560
      f-2     :     0.001215
      f+3     :     0.001116
      f-3     :     0.001180

 43 H s       :     0.831337  s :     0.831337
      pz      :     0.010339  p :     0.018460
      px      :     0.004423
      py      :     0.003698

 44 H s       :     0.845182  s :     0.845182
      pz      :     0.003825  p :     0.018632
      px      :     0.011079
      py      :     0.003728

 45 H s       :     0.824803  s :     0.824803
      pz      :     0.004525  p :     0.019329
      px      :     0.004353
      py      :     0.010451

 46 H s       :     0.587638  s :     0.587638
      pz      :     0.012628  p :     0.044690
      px      :     0.013627
      py      :     0.018436



                     *******************************
                     * LOEWDIN POPULATION ANALYSIS *
                     *******************************

----------------------
LOEWDIN ATOMIC CHARGES
----------------------
   0 N :    0.212403
   1 N :    0.211791
   2 N :    0.173249
   3 N :    0.168873
   4 C :   -0.191931
   5 C :   -0.191154
   6 C :   -0.191682
   7 C :   -0.191178
   8 C :   -0.208420
   9 C :   -0.205732
  10 C :   -0.207161
  11 C :   -0.205736
  12 C :   -0.222237
  13 C :   -0.219391
  14 C :   -0.221349
  15 C :   -0.220632
  16 C :   -0.127216
  17 C :   -0.125909
  18 C :   -0.127447
  19 C :   -0.126597
  20 C :   -0.138260
  21 C :   -0.137552
  22 C :   -0.139279
  23 C :   -0.138710
  24 H :    0.142714
  25 H :    0.144818
  26 H :    0.142761
  27 H :    0.145610
  28 H :    0.145594
  29 H :    0.142237
  30 H :    0.145403
  31 H :    0.142743
  32 H :    0.159883
  33 H :    0.160130
  34 H :    0.159855
  35 H :    0.160018
  36 H :    0.138994
  37 H :    0.139022
  38 H :    0.138844
  39 H :    0.138890
  40 Mg:    0.112439
  41 O :    0.056962
  42 C :   -0.309023
  43 H :    0.109447
  44 H :    0.114436
  45 H :    0.128038
  46 H :    0.211444

-------------------------------
LOEWDIN REDUCED ORBITAL CHARGES
-------------------------------
  0 N s       :     2.982385  s :     2.982385
      pz      :     1.103849  p :     3.571249
      px      :     1.347476
      py      :     1.119923
      dz2     :     0.016470  d :     0.214961
      dxz     :     0.010163
      dyz     :     0.049543
      dx2y2   :     0.064362
      dxy     :     0.074423
      f0      :     0.001163  f :     0.019002
      f+1     :     0.000781
      f-1     :     0.001809
      f+2     :     0.000335
      f-2     :     0.003619
      f+3     :     0.003966
      f-3     :     0.007328

  1 N s       :     2.981760  s :     2.981760
      pz      :     1.107530  p :     3.572108
      px      :     1.343843
      py      :     1.120735
      dz2     :     0.016360  d :     0.215294
      dxz     :     0.009975
      dyz     :     0.049926
      dx2y2   :     0.064634
      dxy     :     0.074400
      f0      :     0.001164  f :     0.019047
      f+1     :     0.000760
      f-1     :     0.001839
      f+2     :     0.000341
      f-2     :     0.003669
      f+3     :     0.003938
      f-3     :     0.007335

  2 N s       :     2.979763  s :     2.979763
      pz      :     1.199101  p :     3.625544
      px      :     1.103916
      py      :     1.322527
      dz2     :     0.016529  d :     0.202728
      dxz     :     0.043838
      dyz     :     0.012134
      dx2y2   :     0.061291
      dxy     :     0.068936
      f0      :     0.001180  f :     0.018716
      f+1     :     0.001731
      f-1     :     0.000869
      f+2     :     0.000240
      f-2     :     0.003818
      f+3     :     0.006815
      f-3     :     0.004064

  3 N s       :     2.982431  s :     2.982431
      pz      :     1.200586  p :     3.627507
      px      :     1.103708
      py      :     1.323213
      dz2     :     0.016245  d :     0.202517
      dxz     :     0.044064
      dyz     :     0.012115
      dx2y2   :     0.061106
      dxy     :     0.068988
      f0      :     0.001157  f :     0.018672
      f+1     :     0.001741
      f-1     :     0.000843
      f+2     :     0.000221
      f-2     :     0.003840
      f+3     :     0.006807
      f-3     :     0.004063

  4 C s       :     2.769759  s :     2.769759
      pz      :     1.029207  p :     3.012457
      px      :     0.989060
      py      :     0.994190
      dz2     :     0.048913  d :     0.368612
      dxz     :     0.072663
      dyz     :     0.068333
      dx2y2   :     0.086813
      dxy     :     0.091890
      f0      :     0.004457  f :     0.041103
      f+1     :     0.003752
      f-1     :     0.003651
      f+2     :     0.005574
      f-2     :     0.004994
      f+3     :     0.011224
      f-3     :     0.007450

  5 C s       :     2.769648  s :     2.769648
      pz      :     1.029079  p :     3.012006
      px      :     0.988939
      py      :     0.993987
      dz2     :     0.049731  d :     0.368364
      dxz     :     0.069106
      dyz     :     0.070465
      dx2y2   :     0.087612
      dxy     :     0.091450
      f0      :     0.004596  f :     0.041136
      f+1     :     0.003555
      f-1     :     0.003588
      f+2     :     0.005791
      f-2     :     0.004982
      f+3     :     0.010976
      f-3     :     0.007647

  6 C s       :     2.769747  s :     2.769747
      pz      :     1.029518  p :     3.012192
      px      :     0.988396
      py      :     0.994278
      dz2     :     0.045614  d :     0.368633
      dxz     :     0.074774
      dyz     :     0.070274
      dx2y2   :     0.087697
      dxy     :     0.090273
      f0      :     0.004200  f :     0.041110
      f+1     :     0.004031
      f-1     :     0.003851
      f+2     :     0.005428
      f-2     :     0.004762
      f+3     :     0.011262
      f-3     :     0.007577

  7 C s       :     2.769699  s :     2.769699
      pz      :     1.029603  p :     3.011915
      px      :     0.988623
      py      :     0.993689
      dz2     :     0.040865  d :     0.368430
      dxz     :     0.078539
      dyz     :     0.071996
      dx2y2   :     0.087748
      dxy     :     0.089282
      f0      :     0.003904  f :     0.041134
      f+1     :     0.004306
      f-1     :     0.004004
      f+2     :     0.005334
      f-2     :     0.004534
      f+3     :     0.011531
      f-3     :     0.007521

  8 C s       :     2.715526  s :     2.715526
      pz      :     0.842399  p :     2.786195
      px      :     0.956632
      py      :     0.987164
      dz2     :     0.043588  d :     0.629531
      dxz     :     0.068103
      dyz     :     0.120260
      dx2y2   :     0.204434
      dxy     :     0.193145
      f0      :     0.005112  f :     0.077167
      f+1     :     0.004577
      f-1     :     0.006121
      f+2     :     0.006736
      f-2     :     0.010616
      f+3     :     0.015881
      f-3     :     0.028124

[...]
  0-1A  -> 26-1A    5.134287   41410.8   241.5   0.041607230   0.33077  -0.57412   0.01860   0.02853
  0-1A  -> 27-1A    5.259633   42421.8   235.7   0.000910990   0.00707  -0.01900  -0.05051   0.06448
  0-1A  -> 28-1A    5.297195   42724.8   234.1   0.000254965   0.00196   0.00421   0.01572   0.04123
  0-1A  -> 29-1A    5.418980   43707.0   228.8   0.000560039   0.00422  -0.00573   0.06359   0.01190
  0-1A  -> 30-1A    5.431799   43810.4   228.3   0.001047630   0.00787  -0.06842   0.03254   0.04617

----------------------------------------------------------------------------------------------------
                     ABSORPTION SPECTRUM VIA TRANSITION VELOCITY DIPOLE MOMENTS    
----------------------------------------------------------------------------------------------------
     Transition      Energy     Energy  Wavelength fosc(P2)      P2        PX        PY        PZ   
                      (eV)      (cm-1)    (nm)                 (au**2)    (au)      (au)      (au)  
----------------------------------------------------------------------------------------------------
  0-1A  ->  1-1A    1.938808   15637.5   639.5   0.341503056   0.03650   0.00160   0.19098  -0.00470
  0-1A  ->  2-1A    2.330257   18794.8   532.1   0.085451835   0.01098  -0.10452   0.00160   0.00705
  0-1A  ->  3-1A    3.010341   24280.0   411.9   0.000039533   0.00001  -0.00220   0.00048  -0.00121
  0-1A  ->  4-1A    3.177831   25630.9   390.2   0.048163106   0.00844  -0.09160   0.00143   0.00668
  0-1A  ->  5-1A    3.432692   27686.5   361.2   1.046708945   0.19806   0.44414  -0.00463  -0.02791
  0-1A  ->  6-1A    3.635240   29320.2   341.1   0.000168394   0.00003   0.00064  -0.00417  -0.00400
  0-1A  ->  7-1A    3.695702   29807.9   335.5   0.117076363   0.02385  -0.02557  -0.15222   0.00516
  0-1A  ->  8-1A    3.719463   29999.5   333.3   0.725936650   0.14884  -0.00431   0.38567  -0.00902
  0-1A  ->  9-1A    3.985445   32144.8   311.1   0.000104277   0.00002   0.00152   0.00431   0.00143
  0-1A  -> 10-1A    4.096412   33039.8   302.7   0.000038170   0.00001   0.00192   0.00221  -0.00026
  0-1A  -> 11-1A    4.272285   34458.3   290.2   0.003250303   0.00077  -0.01924  -0.00472  -0.01931
  0-1A  -> 12-1A    4.304003   34714.1   288.1   0.000008310   0.00000   0.00014  -0.00008  -0.00139
  0-1A  -> 13-1A    4.313104   34787.5   287.5   0.000181815   0.00004  -0.00010  -0.00280   0.00595
  0-1A  -> 14-1A    4.385087   35368.1   282.7   0.000142768   0.00003   0.00111  -0.00248   0.00521
  0-1A  -> 15-1A    4.401279   35498.7   281.7   0.000093444   0.00002   0.00160   0.00237  -0.00380
  0-1A  -> 16-1A    4.505611   36340.2   275.2   0.027712262   0.00688   0.00007   0.08294  -0.00179
  0-1A  -> 17-1A    4.605261   37143.9   269.2   0.024603029   0.00625  -0.02032   0.07580  -0.00933
  0-1A  -> 18-1A    4.639360   37419.0   267.2   0.007501198   0.00192  -0.00299  -0.04263  -0.00959
  0-1A  -> 19-1A    4.653245   37531.0   266.4   0.082748970   0.02123  -0.01321  -0.14509   0.00065
  0-1A  -> 20-1A    4.696011   37875.9   264.0   0.000540849   0.00014   0.00082  -0.01155  -0.00243
  0-1A  -> 21-1A    4.804125   38747.9   258.1   0.000129064   0.00003   0.00156   0.00527  -0.00199
  0-1A  -> 22-1A    4.856767   39172.5   255.3   0.002418199   0.00065   0.00086  -0.02527  -0.00287
  0-1A  -> 23-1A    4.870778   39285.5   254.5   0.069135794   0.01856   0.00455  -0.13605   0.00562
  0-1A  -> 24-1A    4.885849   39407.0   253.8   0.156459444   0.04214  -0.00109  -0.20519   0.00587
  0-1A  -> 25-1A    4.996182   40296.9   248.2   0.005477769   0.00151   0.01140   0.03708  -0.00192
  0-1A  -> 26-1A    5.134287   41410.8   241.5   0.041284315   0.01168   0.10792  -0.00341  -0.00520
  0-1A  -> 27-1A    5.259633   42421.8   235.7   0.000756166   0.00022   0.00364   0.00824  -0.01175
  0-1A  -> 28-1A    5.297195   42724.8   234.1   0.000358172   0.00010  -0.00055  -0.00353  -0.00958
  0-1A  -> 29-1A    5.418980   43707.0   228.8   0.000409254   0.00012   0.00091  -0.01086  -0.00187
  0-1A  -> 30-1A    5.431799   43810.4   228.3   0.000850125   0.00025   0.01190  -0.00708  -0.00792

------------------------------------------------------------------------------------------
                     CD SPECTRUM VIA TRANSITION ELECTRIC DIPOLE MOMENTS    
------------------------------------------------------------------------------------------
     Transition      Energy     Energy  Wavelength    R        MX        MY        MZ   
                      (eV)      (cm-1)    (nm)   (1e40*cgs)   (au)      (au)      (au)  
------------------------------------------------------------------------------------------
  0-1A  ->  1-1A    1.938808   15637.5   639.5   12.15806   0.05120   0.00909   0.00331
  0-1A  ->  2-1A    2.330257   18794.8   532.1    3.32905  -0.00589   0.03296  -0.01086
  0-1A  ->  3-1A    3.010341   24280.0   411.9    1.20396  -0.01367  -0.00468  -0.20457
  0-1A  ->  4-1A    3.177831   25630.9   390.2    0.34360  -0.00024   0.00562   0.00780
  0-1A  ->  5-1A    3.432692   27686.5   361.2   47.06392   0.02499  -0.14869  -0.01796
  0-1A  ->  6-1A    3.635240   29320.2   341.1   -9.45527   0.03965   0.01227   0.67081
  0-1A  ->  7-1A    3.695702   29807.9   335.5  109.25023  -0.05329  -0.19460  -0.00674
  0-1A  ->  8-1A    3.719463   29999.5   333.3  -117.97157   0.12305  -0.08556   0.01342
  0-1A  ->  9-1A    3.985445   32144.8   311.1   -0.01471   0.00235   0.00076  -0.00769
  0-1A  -> 10-1A    4.096412   33039.8   302.7   -0.01291  -0.00968  -0.00111  -0.09460
  0-1A  -> 11-1A    4.272285   34458.3   290.2   -8.79307   0.00542   0.01070   0.13686
  0-1A  -> 12-1A    4.304003   34714.1   288.1    0.01207   0.00297   0.00412  -0.00259
  0-1A  -> 13-1A    4.313104   34787.5   287.5  -20.71504  -0.07047  -0.02254  -1.13935
  0-1A  -> 14-1A    4.385087   35368.1   282.7    0.14976   0.00063  -0.00179   0.00860
  0-1A  -> 15-1A    4.401279   35498.7   281.7   -0.02206  -0.00050  -0.00284  -0.00000
  0-1A  -> 16-1A    4.505611   36340.2   275.2   -0.28828   0.00121  -0.00134  -0.00680
  0-1A  -> 17-1A    4.605261   37143.9   269.2    3.59581   0.00810   0.01827  -0.00409
  0-1A  -> 18-1A    4.639360   37419.0   267.2    0.95820  -0.03723   0.00262  -0.04675
  0-1A  -> 19-1A    4.653245   37531.0   266.4   -4.15165  -0.01870   0.01185   0.01124
  0-1A  -> 20-1A    4.696011   37875.9   264.0    1.69372   0.00710  -0.00380  -0.15721
  0-1A  -> 21-1A    4.804125   38747.9   258.1   -0.02356  -0.00526   0.00054   0.00138
  0-1A  -> 22-1A    4.856767   39172.5   255.3   -0.62938  -0.00942   0.00473   0.02943
  0-1A  -> 23-1A    4.870778   39285.5   254.5    5.44405  -0.03383  -0.01760  -0.04342
  0-1A  -> 24-1A    4.885849   39407.0   253.8   -9.18795  -0.04745   0.01705   0.01283
  0-1A  -> 25-1A    4.996182   40296.9   248.2    4.07586   0.15794  -0.00637  -0.01029
  0-1A  -> 26-1A    5.134287   41410.8   241.5   -2.42243  -0.01010  -0.02724  -0.00548
  0-1A  -> 27-1A    5.259633   42421.8   235.7   -1.58061   0.00289  -0.06142   0.00474
  0-1A  -> 28-1A    5.297195   42724.8   234.1   -0.27891   0.03297   0.02570   0.00118
  0-1A  -> 29-1A    5.418980   43707.0   228.8   -0.44418   0.00255   0.01354   0.00803
  0-1A  -> 30-1A    5.431799   43810.4   228.3    3.53876   0.01459  -0.21178   0.00832

------------------------------------------------------------------------------------------
                     CD SPECTRUM VIA TRANSITION VELOCITY DIPOLE MOMENTS    
------------------------------------------------------------------------------------------
     Transition      Energy     Energy  Wavelength    R        MX        MY        MZ   
                      (eV)      (cm-1)    (nm)   (1e40*cgs)   (au)      (au)      (au)  
------------------------------------------------------------------------------------------
  0-1A  ->  1-1A    1.938808   15637.5   639.5   11.92641   0.05120   0.00909   0.00331
  0-1A  ->  2-1A    2.330257   18794.8   532.1    3.25954  -0.00589   0.03296  -0.01086
  0-1A  ->  3-1A    3.010341   24280.0   411.9    1.17700  -0.01367  -0.00468  -0.20457
  0-1A  ->  4-1A    3.177831   25630.9   390.2    0.33251  -0.00024   0.00562   0.00780
  0-1A  ->  5-1A    3.432692   27686.5   361.2   45.93039   0.02499  -0.14869  -0.01796
  0-1A  ->  6-1A    3.635240   29320.2   341.1   -9.55008   0.03965   0.01227   0.67081
  0-1A  ->  7-1A    3.695702   29807.9   335.5  107.43603  -0.05329  -0.19460  -0.00674
  0-1A  ->  8-1A    3.719463   29999.5   333.3  -116.06117   0.12305  -0.08556   0.01342
  0-1A  ->  9-1A    3.985445   32144.8   311.1   -0.01329   0.00235   0.00076  -0.00769
  0-1A  -> 10-1A    4.096412   33039.8   302.7    0.01271  -0.00968  -0.00111  -0.09460
  0-1A  -> 11-1A    4.272285   34458.3   290.2   -8.40135   0.00542   0.01070   0.13686
  0-1A  -> 12-1A    4.304003   34714.1   288.1    0.01109   0.00297   0.00412  -0.00259
  0-1A  -> 13-1A    4.313104   34787.5   287.5  -19.94494  -0.07047  -0.02254  -1.13935
  0-1A  -> 14-1A    4.385087   35368.1   282.7    0.14615   0.00063  -0.00179   0.00860
  0-1A  -> 15-1A    4.401279   35498.7   281.7   -0.02193  -0.00050  -0.00284  -0.00000
  0-1A  -> 16-1A    4.505611   36340.2   275.2   -0.28085   0.00121  -0.00134  -0.00680
  0-1A  -> 17-1A    4.605261   37143.9   269.2    3.50554   0.00810   0.01827  -0.00409
  0-1A  -> 18-1A    4.639360   37419.0   267.2    1.23879  -0.03723   0.00262  -0.04675
  0-1A  -> 19-1A    4.653245   37531.0   266.4   -4.03951  -0.01870   0.01185   0.01124
  0-1A  -> 20-1A    4.696011   37875.9   264.0    1.17870   0.00710  -0.00380  -0.15721
  0-1A  -> 21-1A    4.804125   38747.9   258.1   -0.02163  -0.00526   0.00054   0.00138
  0-1A  -> 22-1A    4.856767   39172.5   255.3   -0.55965  -0.00942   0.00473   0.02943
  0-1A  -> 23-1A    4.870778   39285.5   254.5    5.25992  -0.03383  -0.01760  -0.04342
  0-1A  -> 24-1A    4.885849   39407.0   253.8   -8.85367  -0.04745   0.01705   0.01283
  0-1A  -> 25-1A    4.996182   40296.9   248.2    4.06598   0.15794  -0.00637  -0.01029
  0-1A  -> 26-1A    5.134287   41410.8   241.5   -2.42163  -0.01010  -0.02724  -0.00548
  0-1A  -> 27-1A    5.259633   42421.8   235.7   -1.34374   0.00289  -0.06142   0.00474
  0-1A  -> 28-1A    5.297195   42724.8   234.1   -0.29070   0.03297   0.02570   0.00118
  0-1A  -> 29-1A    5.418980   43707.0   228.8   -0.37819   0.00255   0.01354   0.00803
  0-1A  -> 30-1A    5.431799   43810.4   228.3    3.79515   0.01459  -0.21178   0.00832

Total run time:     4648.471 sec

           *** ORCA-CIS/TD-DFT FINISHED WITHOUT ERROR ***
-----------------------
CIS/TD-DFT TOTAL ENERGY
-----------------------

    E(SCF)  =  -1307.375019634 Eh
    DE(CIS) =      0.071249880 Eh (Root  1)
    ----------------------------- ---------
    E(tot)  =  -1307.303769754 Eh


Maximum memory used throughout the entire CIS-calculation: 2046.6 MB
=> NOW LEAVING ORCA_CIS

-------------------------   --------------------
FINAL SINGLE POINT ENERGY     -1307.303769753770
-------------------------   --------------------



           ************************************************************
           *        Program running with 4 parallel MPI-processes     *
           *              working on a common directory               *
           ************************************************************

------------------------------------------------------------------------------
                              ORCA PROPERTY CALCULATIONS
------------------------------------------------------------------------------

GBWName                                 ... tddft.gbw
Number of atoms                         ...     47
Number of basis functions               ...    958
Max core memory                         ...   3000 MB

Electric properties:
Dipole moment                           ... YES
Quadrupole moment                       ...  NO
Static polarizability (Dipole/Dipole)   ...  NO
Static polarizability (Dipole/Quad.)    ...  NO
Static polarizability (Quad./Quad.)     ...  NO
Static polarizability (Velocity)        ...  NO
Static hyperpolarizability              ...  NO

Atomic electric properties:
Dipole moment                           ...  NO
Quadrupole moment                       ...  NO
Static polarizability                   ...  NO

Choice of electric origin               ... Center of mass
Position of electric origin             ...     0.080723     0.037241     0.572833

General magnetic properties:
Magnetizability                         ...  NO

EPR properties:
g-Tensor (aka g-matrix)                 ...  NO
Zero-Field splitting spin-orbit         ...  NO
Zero-field splitting spin-spin          ...  NO
Hyperfine couplings                     ...  NO (   0 nuclei)
Quadrupole couplings                    ...  NO (   0 nuclei)
Contact density                         ...  NO (   0 nuclei)

NMR properties:
Chemical shifts                         ...  NO (   0 nuclei)
Spin-rotation constants                 ...  NO (   0 nuclei)
Spin-spin couplings                     ...  NO (   0 nuclei,    0 pairs)

Choice of magnetic origin               ... GIAO
Position of magnetic origin             ...     0.000000     0.000000     0.000000

Properties with geometric perturbations:
SCF Hessian                             ...  NO
IR spectrum                             ...  NO
VCD spectrum                            ...  NO
X-ray spectroscopy properties:
SCF XES/XAS/RIXS spectra                ...  NO

SCF SOC stabilization energy            ...  NO
Diagonal Born-Oppenheimer correction    ...  NO

-------------
DIPOLE MOMENT
-------------

Method             : SCF
Type of density    : Electron Density
Multiplicity       :   1
Irrep              :   0
Energy             : -1307.3750196338628484 Eh
Basis              : AO
                                X                 Y                 Z
Electronic contribution:      1.610376989       1.490783806      -5.194470072
Nuclear contribution   :     -2.062435013      -1.335381725       6.629363071
                        -----------------------------------------
Total Dipole Moment    :     -0.452058024       0.155402081       1.434892999
                        -----------------------------------------
Magnitude (a.u.)       :      1.512423281
Magnitude (Debye)      :      3.844274472



--------------------
Rotational spectrum 
--------------------
 
Rotational constants in cm-1:             0.007897             0.007332             0.004249 
Rotational constants in MHz :           236.759888           219.807638           127.395342 

Dipole components along the rotational axes: 
x,y,z [a.u.] :    -0.560177    -0.134980     1.398358 
x,y,z [Debye]:    -1.423858    -0.343092     3.554344 

 

Dipole moment calculation done in   0.1 sec 

Maximum memory used throughout the entire PROP-calculation: 109.7 MB

--------------------------------
SUGGESTED CITATIONS FOR THIS RUN
--------------------------------

Below you find a list of papers that are relevant to this ORCA run
We neither can nor want to force you to cite these papers, but we appreciate if you do
You receive ORCA, which is the product of decades of hard work by many enthusiastic individuals, for free
The only thing we kindly ask in return is that you cite our papers,
We deeply appreciate it, if you show your appreciation for ORCA by not just citing the generic ORCA reference.

Please note that relegating all ORCA citations to the supporting information does *not* help us.
SI sections are not indexed - citations you put there will not count into any citation statistics
But we need these citations in order to attract the funding resources that allow us to do what we are doing

Therefore, if you are a happy ORCA user, please consider citing a few of the papers listed below in the main body of your paper

In addition to the list printed below, the program has created the file tddft.bibtex that contains the list in bibtex format
You can import this file easily into all common literature databanks and citation aid programs

It goes without saying that in many instances, there are alternative algorithms to achieve similar
results as the ones you have gotten from ORCA. It is, of course, also the case that in some instances
ORCA just re-implements algorithms worked out by others. We are fully aware of that and we are also
fully appreciative of our colleagues work. Hence this citation list should not be read as indicating
that the listed papers, which are focused on our own work, are the only ones worth citing. It simply
meant to make it easier for users to cite ORCA specific papers. It is not a substitute for doing your
own literature research and citing the relevant literature in a scientifically appropriate manner.

List of essential papers. We consider these as the minimum necessary citations

  1. Neese, F.
     Software update: the ORCA program system, version 6.0
     WIRES Comput. Molec. Sci. 2025 15(1), e70019
     doi.org/10.1002/wcms.70019

List of papers to cite with high priority. The work reported in these papers was absolutely
necessary for this run to complete.
Our perspective: the developers of density functionals and basis sets usually get cited in chemistry papers
Good! But without the algorithms to do something with them, the functionals or basis sets would not do anything.
Hence, in our opinion, the algorithm design and method developments papers are equally worthy of getting cited

  1. Neese, F.; Olbrich, G.
     Efficient use of the resolution of the identity approximation in time-dependent density functional calculations with hybrid density functionals
     Chem. Phys. Lett. 2002 362 , 170-178
     doi.org/10.1016/s0009-2614(02)01053-9
  2. Neese, F.
     An improvement of the resolution of the identity approximation for the formation of the Coulomb matrix
     J. Comp. Chem. 2003 24(14), 1740-1747
     doi.org/10.1002/jcc.10318
  3. Garcia-Rates, M.; Neese, F.
     Effect of the Solute Cavity on the Solvation Energy and its Derivatives within the Framework of the Gaussian Charge Scheme
     J. Comput. Chem. 2020 41 , 922-939
     doi.org/10.1002/jcc.26139
  4. Neese, F.
     The SHARK Integral Generation and Digestion System
     J. Comp. Chem. 2022 44(3), 381
     doi.org/10.1002/jcc.26942

List of suggested additional citations. These are papers that are important in the 'surrounding' of 
of this run, or papers that preceded the highly important papers. If you like your results we are grateful for a citation.

  1. Neese, F.
     The ORCA program system
     WIRES Comput. Molec. Sci. 2012 2(1), 73-78
     doi.org/10.1002/wcms.81
  2. Neese, F.
     Software update: the ORCA program system, version 4.0
     WIRES Comput. Molec. Sci. 2018 8(1), 1-6
     doi.org/10.1002/wcms.1327
  3. Neese, F.; Wennmohs, F.; Becker, U.; Riplinger, C.
     The ORCA quantum chemistry program package
     J. Chem. Phys. 2020 152(22), 224108
     doi.org/10.1063/5.0004608
  4. Neese, F.
     Software update: The ORCA program system—Version 5.0
     WIRES Comput. Molec. Sci. 2022 12(1), e1606
     doi.org/10.1002/wcms.1606

List of optional additional citations

  1. Neese, F.
     Approximate second-order SCF convergence for spin unrestricted wavefunctions
     Chem. Phys. Lett. 2000 325(1-3), 93-98
     doi.org/10.1016/s0009-2614(00)00662-x

Timings for individual modules:

Sum of individual times          ...     5006.502 sec (=  83.442 min)
Startup calculation              ...       12.063 sec (=   0.201 min)   0.2 %
SCF iterations                   ...      342.283 sec (=   5.705 min)   6.8 %
Property integrals               ...        1.865 sec (=   0.031 min)   0.0 %
Property calculations            ...        1.100 sec (=   0.018 min)   0.0 %
CIS module                       ...     4649.191 sec (=  77.487 min)  92.9 %
                             ****ORCA TERMINATED NORMALLY****
TOTAL RUN TIME: 0 days 1 hours 23 minutes 26 seconds 970 msec
