
                                 *****************
                                 * O   R   C   A *
                                 *****************

                                            #,                                       
                                            ###                                      
                                            ####                                     
                                            #####                                    
                                            ######                                   
                                           ########,                                 
                                     ,,################,,,,,                         
                               ,,#################################,,                 
                          ,,##########################################,,             
                       ,#########################################, ''#####,          
                    ,#############################################,,   '####,        
                  ,##################################################,,,,####,       
                ,###########''''           ''''###############################       
              ,#####''   ,,,,##########,,,,          '''####'''          '####       
            ,##' ,,,,###########################,,,                        '##       
           ' ,,###''''                  '''############,,,                           
         ,,##''                                '''############,,,,        ,,,,,,###''
      ,#''                                            '''#######################'''  
     '                                                          ''''####''''         
             ,#######,   #######,   ,#######,      ##                                
            ,#'     '#,  ##    ##  ,#'     '#,    #''#        ,####,    ,#,          
            ##       ##  ##   ,#'  ##            #'  '#       #'       ,# #          
            ##       ##  #######   ##           ,######,      #####,      #          
            '#,     ,#'  ##    ##  '#,     ,#' ,#      #,     #,   #      #          
             '#######'   ##     ##  '#######'  #'      '#     '####' #    #          



                #########################################################
                #                        -***-                          #
                #          Department of theory and spectroscopy        #
                #                                                       #
                #                      Frank Neese                      #
                #                                                       #
                #     Directorship, Architecture, Infrastructure        #
                #                    SHARK, DRIVERS                     #
                #        Core code/Algorithms in most modules           #
                #                                                       #
                #        Max Planck Institute fuer Kohlenforschung      #
                #                Kaiser Wilhelm Platz 1                 #
                #                 D-45470 Muelheim/Ruhr                 #
                #                      Germany                          #
                #                                                       #
                #                  All rights reserved                  #
                #                        -***-                          #
                #########################################################


                         Program Version 6.1.1  -  RELEASE   -
                                (GIT: $487d211c$)
                          ($2025-11-21 10:33:24 +0100$)


 With contributions from (in alphabetic order):
[Max-Planck-Institut fuer Kohlenforschung]                               
  Daniel Aravena         : Magnetic Suceptibility                        
  Michael Atanasov       : Ab Initio Ligand Field Theory (pilot matlab implementation)
  Alexander A. Auer      : GIAO ZORA, VPT2 properties, NMR spectrum      
  Ute Becker             : All parallelization in ORCA, NUMFREQ, NUMCALC 
  Giovanni Bistoni       : ED, misc. LED, open-shell LED, HFLD           
  Dmytro Bykov           : pre 5.0 version of the SCF Hessian            
  Marcos Casanova-Páez   : Triplet and SCS-CIS(D). UHF-(DLPNO)-IP/EA/STEOM-CCSD. UHF-CVS-IP/STEOM-CCSD   
  Vijay G. Chilkuri      : MRCI spin determinant printing, contributions to CSF-ICE 
  Pauline Colinet        : FMM embedding                                 
  Dipayan Datta          : RHF DLPNO-CCSD density                        
  Achintya Kumar Dutta   : EOM-CC, STEOM-CC                              
  Nicolas Foglia         : Exact transition moments, OPA infrastructure, MCD improvements    
  Dmitry Ganyushin       : Spin-Orbit,Spin-Spin,Magnetic field MRCI      
  Miquel Garcia-Rates    : C-PCM and meta-GGA Hessian, CCSD/C-PCM, Gaussian charge scheme 
  Tiago L. C. Gouveia    : GS-ROHF, GS-ROCIS                             
  Yang Guo               : DLPNO-NEVPT2, F12-NEVPT2, CIM, IAO-localization        
  Andreas Hansen         : Spin unrestricted coupled pair/coupled cluster methods 
  Ingolf Harden          : AUTO-CI MPn and infrastructure                
  Benjamin Helmich-Paris : MC-RPA, TRAH-(SCF,CASSCF), AVAS, COSX integrals, SCF dyn. polar., MC-PDFT, srDFT 
  Lee Huntington         : MR-EOM, pCC                                   
  Robert Izsak           : Overlap fitted RIJCOSX, COSX-SCS-MP3, EOM     
  Riya Kayal             : Wick's Theorem for AUTO-CI, AUTO-CI UHF-CCSDT 
  Emily Kempfer          : AUTO-CI RHF CISDT and CCSDT, approximate NEVPT4
  Christian Kollmar      : KDIIS, OOCD, Brueckner-CCSD(T), CCSD density, CASPT2, CASPT2-K, improved NEVPT2 
  Axel Koslowski         : Symmetry handling                             
  Simone Kossmann        : meta-GGA functionals, TD-DFT gradient, OOMP2, (MP2 Hessian; deprecated post 5.0) 
  Lucas Lang             : DCDCAS, Hyperfine gauge corrections, ICE-SOC+SSC
  Marvin Lechner         : AUTO-CI (C++ implementation), FIC-MRCC        
  Spencer Leger          : CASSCF response                               
  Dagmar Lenk            : GEPOL surface, SMD, ORCA-2-JSON               
  Dimitrios Liakos       : Extrapolation schemes; Compound Job, Property file
  Dimitrios Manganas     : Further ROCIS development; embedding schemes. LFT, Crystal Embedding 
  Dimitrios Pantazis     : SARC Basis sets                               
  Anastasios Papadopoulos: AUTO-CI, single reference methods and gradients 
  Taras Petrenko         : pre 6.0 DFT Hessian and TD-DFT gradient,  ECA, NRVS 
  Petra Pikulova         : Analytic Raman intensities                    
  Peter Pinski           : DLPNO-MP2, DLPNO-MP2 Gradient                 
  Shashank Vittal Rao    : ES-AILFT, MagRelax                            
  Christoph Reimann      : Effective Core Potentials                     
  Marius Retegan         : Local ZFS, SOC                                
  Christoph Riplinger    : Optimizer, TS searches, QM/MM, DLPNO-CCSD(T), (RO)-DLPNO pert. Triples 
  Michael Roemelt        : Original ROCIS implementation, recursive CI coupling coefficients
  Masaaki Saitow         : Open-shell DLPNO-CCSD energy and density      
  Barbara Sandhoefer     : DKH picture change effects                    
  Yorick L. A. Schmerwitz: GMF and freeze-and-release deltaSCF, NEB S-IDPP initial path                    
  Kantharuban Sivalingam : CASSCF convergence/infrastructure, NEVPT2, NEVPT3, NEVPT4(SD), FIC-MRCI and CEPA variants
  Bernardo de Souza      : ESD, SOC TD-DFT                               
  Georgi L. Stoychev     : AutoAux, RI-MP2 NMR, DLPNO-MP2 response, X2C  
  Van Anh Tran           : RI-MP2 g-tensors                              
  Willem Van den Heuvel  : Paramagnetic NMR                              
  Zikuan Wang            : NOTCH, Electric field optimization            
  Frank Wennmohs         : Technical directorship and infrastructure     
  Hang Xu                : AUTO-CI-Response properties                   
                                                                         
[FACCTs GmbH]                                                            
  Markus Bursch, Nicolas Foglia, Miquel Garcia-Rates, Ingolf Harden, Hagen Neugebauer, Anastasios Papadopoulos, 
  Christoph Riplinger, Bernardo de Souza, Georgi L. Stoychev                                                    
                                                                 
  APM, various basis sets, CI-OPT, improved COSX, DLPNO-Multilevel,           
  DOCKER, DRACO, updates on ESD, Fragmentator, GOAT, IRC, LR-CPCM, L-BFGS, MBIS, meta-GGA TD-DFT gradient, ML-optimized integration grids, 
  MM, NACMEs, nearIR, NEB, NEB-TS, NL-DFT gradient (VV10), 2- and 3-layer-ONIOM, interface openCOSMO-RS, QMMM,   
  Crystal-QMMM, RESP, rigid body optimization, SF, symmetry and pop. for TD-DFT, various functionals, SOLVATOR                                   
                                                                         
[Other institutions]                                                     
  V. Asgeirsson          : NEB                                           
  Christoph Bannwarth    : sTDA-DFT, sTD-DFT, PBEh-3c, B97-3c, D3        
  Giovanni Bistoni       : ETS/NOCV, ADLD/ADEX, COVALED                  
  Martin Brehm           : Molecular dynamics                            
  Ronald Cardenas        : ETS/NOCV                                      
  Martina Colucci        : COVALED                                       
  Sebastian Ehlert       : rSCAN, r2SCAN, r2SCAN-3c, D4, dhf basis sets  
  Marvin Friede          : D4 for Fr, Ra, Ac-Lr                          
  Lars Goerigk           : TD-DFT with DH, B97 family of functionals     
  Stefan Grimme          : VdW corrections, initial TS optimization, DFT functionals, gCP, sTDA/sTD-DF 
  Waldemar Hujo          : DFT-NL                                        
  H. Jonsson             : NEB                                           
  Holger Kruse           : gCP                                           
  Marcel Mueller         : wB97X-3c, vDZP basis set                      
  Hagen Neugebauer       : wr2SCAN, Native XTB                           
  Gianluca Regni         : ADLD/ADEX                                     
  Tobias Risthaus        : pre 6.0 range-separated hybrid DFT and stability analysis
  Lukas Wittmann         : regularized MP2, r2SCAN double-hybrids, wr2SCAN        
                                                                         
We gratefully acknowledge several colleagues who have allowed us to      
interface, adapt or use parts of their codes:                            
  Ed Valeev, F. Pavosevic, A. Kumar             : LibInt (2-el integral package), F12 methods 
  Garnet Chan, S. Sharma, J. Yang, R. Olivares  : DMRG                   
  Ulf Ekstrom                                   : XCFun DFT Library      
  Mihaly Kallay                                 : mrcc  (arbitrary order and MRCC methods)
  Frank Weinhold                                : gennbo (NPA and NBO analysis)           
  Simon Mueller                                 : openCOSMO-RS                            
  Christopher J. Cramer and Donald G. Truhlar   : smd solvation model                     
  S Lehtola, MJT Oliveira, MAL Marques          : LibXC Library                           
  Liviu Ungur et al                             : ANISO software                          


 Your calculation uses the libint2 library for the computation of 2-el integrals
 For citations please refer to: http://libint.valeyev.net

 Your ORCA version has been built with support for libXC version: 7.0.0
 For citations please refer to: https://libxc.gitlab.io

 This ORCA versions uses:
   CBLAS   interface :  Fast vector & matrix operations
   LAPACKE interface :  Fast linear algebra routines
   SCALAPACK package :  Parallel linear algebra routines
   Shared memory     :  Shared parallel matrices
   BLAS/LAPACK       :  OpenBLAS 0.3.29  USE64BITINT DYNAMIC_ARCH NO_AFFINITY Haswell SINGLE_THREADED
        Core in use  :  Haswell
   Copyright (c) 2011-2014, The OpenBLAS Project


  ***********************************
  * Starting time: Tue Jul  7 19:47:10 2026
  * Host name:     steezy
  * Process ID:    1593011
  * Working dir.:  /home/jannes/chlorophyll-ladder/008-mgbacteriochlorin-axial-ligation/mgbacteriochlorin_meoh/03_tddft_ch2cl2/pbe0
  ***********************************

NOTE: MaxCore=3000 MB was set to SCF,MP2,MDCI,CIPSI,MRCI,RASCI and CIS
      => If you want to overwrite this, your respective input block should be placed after the MaxCore statement


***************************************
The coordinates will be read from file: /home/jannes/chlorophyll-ladder/008-mgbacteriochlorin-axial-ligation/mgbacteriochlorin_meoh/01_opt/mgbacteriochlorin_meoh_opt_b3lypd4_tzvp.xyz
***************************************


================================================================================

----- Orbital basis set information -----
Your calculation utilizes the basis: def2-TZVP
   F. Weigend and R. Ahlrichs, Phys. Chem. Chem. Phys. 7, 3297 (2005).

----- AuxJ basis set information -----
Your calculation utilizes the auxiliary basis: def2/J
   H-Rn: F. Weigend, Phys. Chem. Chem. Phys. 8, 1057 (2006).
   Fr-Lr: K. Eichkorn, F. Weigend, O. Treutler, R. Ahlrichs; Theor. Chem. Acc. 97, 119 (1997).

================================================================================
                                        WARNINGS
                       Please study these warnings very carefully!
================================================================================


WARNING: CIS/ROCIS methods need fully converged wavefunctions
  ===> : Setting SCFConvForced true
         You can overwrite this default with %scf ConvForced false 


================================================================================
                                       INPUT FILE
================================================================================
NAME = tddft.inp
|  1> %pal nprocs 4 end
|  2> %maxcore 3000
|  3> ! PBE0 def2-TZVP def2/J RIJCOSX DefGrid3 TightSCF CPCM(CH2Cl2)
|  4> %tddft
|  5>   nroots 30
|  6>   tda false
|  7>   triplets false
|  8> end
|  9> * xyzfile 0 1 /home/jannes/chlorophyll-ladder/008-mgbacteriochlorin-axial-ligation/mgbacteriochlorin_meoh/01_opt/mgbacteriochlorin_meoh_opt_b3lypd4_tzvp.xyz
| 10> 
| 11>                          ****END OF INPUT****
================================================================================

                       ****************************
                       * Single Point Calculation *
                       ****************************

---------------------------------
CARTESIAN COORDINATES (ANGSTROEM)
---------------------------------
  N     -2.056534    0.064066    0.195273
  N      2.196097    0.017237   -0.055198
  N      0.047142   -1.997678    0.128778
  N      0.092636    2.082294    0.040843
  C     -4.302985   -0.669869    0.375257
  C      4.412842   -0.773036   -0.326220
  C     -4.292762    0.847490    0.140755
  C      4.445514    0.753568   -0.163990
  C     -2.833492   -1.040135    0.275566
  C      2.944418   -1.105549   -0.132262
  C     -2.812309    1.185908    0.158149
  C      2.973747    1.122620   -0.112979
  C     -1.058360   -2.799045    0.207374
  C      1.134821   -2.822845    0.041115
  C     -0.999786    2.906696    0.044591
  C      1.198403    2.882961   -0.052909
  C     -2.381013   -2.343353    0.291686
  C      2.464498   -2.398157   -0.076595
  C     -2.333775    2.478567    0.105930
  C      2.522471    2.425996   -0.106327
  C     -0.658064   -4.175076    0.179954
  C      0.704790   -4.189790    0.074892
  C     -0.572126    4.271379   -0.039540
  C      0.794196    4.256564   -0.099611
  H     -4.907306   -1.213126   -0.352060
  H     -4.689504   -0.928439    1.365281
  H      5.044405   -1.296154    0.392893
  H      4.738481   -1.084172   -1.322516
  H     -4.723657    1.112272   -0.828575
  H     -4.846632    1.405038    0.897142
  H      4.938530    1.055339    0.764181
  H      4.962432    1.261575   -0.978953
  H     -3.140443   -3.113523    0.357172
  H      3.204445   -3.186544   -0.147882
  H     -3.079818    3.264302    0.086697
  H      3.282718    3.195898   -0.165340
  H     -1.329360   -5.018844    0.223576
  H      1.356552   -5.047854    0.016948
  H     -1.227758    5.128250   -0.060576
  H      1.463641    5.099288   -0.177876
  Mg     0.091692    0.043218    0.296571
  O      0.120484    0.213118    2.403881
  C     -0.599692   -0.688622    3.258236
  H     -0.278970   -0.566808    4.294035
  H     -1.676252   -0.529858    3.174387
  H     -0.361741   -1.692255    2.916251
  H     -0.061689    1.129512    2.644354

----------------------------
CARTESIAN COORDINATES (A.U.)
----------------------------
  NO LB      ZA    FRAG     MASS         X           Y           Z
   0 N     7.0000    0    14.007   -3.886287    0.121068    0.369013
   1 N     7.0000    0    14.007    4.150023    0.032574   -0.104310
   2 N     7.0000    0    14.007    0.089085   -3.775065    0.243355
   3 N     7.0000    0    14.007    0.175056    3.934965    0.077182
   4 C     6.0000    0    12.011   -8.131464   -1.265870    0.709133
   5 C     6.0000    0    12.011    8.339063   -1.460826   -0.616467
   6 C     6.0000    0    12.011   -8.112144    1.601524    0.265988
   7 C     6.0000    0    12.011    8.400804    1.424037   -0.309896
   8 C     6.0000    0    12.011   -5.354524   -1.965570    0.520744
   9 C     6.0000    0    12.011    5.564144   -2.089185   -0.249938
  10 C     6.0000    0    12.011   -5.314493    2.241042    0.298858
  11 C     6.0000    0    12.011    5.619568    2.121444   -0.213500
  12 C     6.0000    0    12.011   -2.000011   -5.289428    0.391880
  13 C     6.0000    0    12.011    2.144501   -5.334403    0.077697
  14 C     6.0000    0    12.011   -1.889321    5.492859    0.084264
  15 C     6.0000    0    12.011    2.264653    5.448007   -0.099984
  16 C     6.0000    0    12.011   -4.499463   -4.428295    0.551207
  17 C     6.0000    0    12.011    4.657226   -4.531859   -0.144744
  18 C     6.0000    0    12.011   -4.410196    4.683814    0.200179
  19 C     6.0000    0    12.011    4.766779    4.584468   -0.200928
  20 C     6.0000    0    12.011   -1.243560   -7.889750    0.340063
  21 C     6.0000    0    12.011    1.331861   -7.917555    0.141526
  22 C     6.0000    0    12.011   -1.081161    8.071737   -0.074721
  23 C     6.0000    0    12.011    1.500812    8.043740   -0.188238
  24 H     1.0000    0     1.008   -9.273464   -2.292477   -0.665297
  25 H     1.0000    0     1.008   -8.861879   -1.754495    2.580008
  26 H     1.0000    0     1.008    9.532543   -2.449376    0.742459
  27 H     1.0000    0     1.008    8.954431   -2.048789   -2.499192
  28 H     1.0000    0     1.008   -8.926419    2.101889   -1.565780
  29 H     1.0000    0     1.008   -9.158807    2.655136    1.695353
  30 H     1.0000    0     1.008    9.332468    1.994302    1.444093
  31 H     1.0000    0     1.008    9.377638    2.384031   -1.849953
  32 H     1.0000    0     1.008   -5.934577   -5.883706    0.674957
  33 H     1.0000    0     1.008    6.055524   -6.021695   -0.279457
  34 H     1.0000    0     1.008   -5.820012    6.168637    0.163833
  35 H     1.0000    0     1.008    6.203438    6.039373   -0.312448
  36 H     1.0000    0     1.008   -2.512127   -9.484241    0.422498
  37 H     1.0000    0     1.008    2.563512   -9.539062    0.032028
  38 H     1.0000    0     1.008   -2.320126    9.690988   -0.114473
  39 H     1.0000    0     1.008    2.765881    9.636257   -0.336136
  40 Mg   12.0000    0    24.305    0.173273    0.081670    0.560438
  41 O     8.0000    0    15.999    0.227681    0.402735    4.542677
  42 C     6.0000    0    12.011   -1.133253   -1.301308    6.157174
  43 H     1.0000    0     1.008   -0.527177   -1.071112    8.114549
  44 H     1.0000    0     1.008   -3.167657   -1.001286    5.998721
  45 H     1.0000    0     1.008   -0.683591   -3.197898    5.510916
  46 H     1.0000    0     1.008   -0.116576    2.134469    4.997104

--------------------------------
INTERNAL COORDINATES (ANGSTROEM)
--------------------------------
 N      0   0   0     0.000000000000     0.00000000     0.00000000
 N      1   0   0     4.260258894745     0.00000000     0.00000000
 N      1   2   0     2.946296765579    43.80106352     0.00000000
 N      2   1   3     2.949276643465    43.81765121   180.83025142
 C      1   2   3     2.370147068312   161.29363812     1.97910240
 C      2   1   3     2.368953595941   160.81566609    11.98716236
 C      5   1   2     1.535407035037    71.09939603   185.45256901
 C      6   2   1     1.535547127463    71.10529137   175.50682946
 C      1   2   3     1.352542054615   124.60603460     0.16413444
 C      2   1   3     1.351507461999   124.41522660     3.30288946
 C      1   2   3     1.353182154120   124.40342312   182.57563594
 C      2   1   3     1.352756048920   124.56657717   180.99523417
 C      3   1   2     1.367662238193    80.30439448   180.39971298
 C      3   1   2     1.368075539549   172.38795394   345.16461659
 C      4   2   1     1.368589579090   172.37549225   344.20615026
 C      4   2   1     1.368421955428    80.27810313   180.74371087
 C      9   1   2     1.379628236228   125.69475707     0.12667858
 C     10   2   1     1.379947649131   125.68442486   356.64093580
 C     11   1   2     1.379380053294   125.74628036   356.37373825
 C     12   2   1     1.379305373447   125.72274171   359.69540643
 C     13   3   1     1.433335097275   109.61333506   178.40908255
 C     21  13   3     1.366976549656   106.87220114   359.61581618
 C     15   4  16     1.432596230891   109.59534337   359.56930083
 C     23  15   4     1.367721655999   106.88641971     0.24453404
 H      5   1   2     1.090560446494   128.96368932   290.45525623
 H      5   1   2     1.093802370642   118.48082874    80.13068557
 H      6   2   1     1.090709266808   128.78520442   280.59669948
 H      6   2   1     1.093366821637   118.54666132    70.29334348
 H      7   5   1     1.093334729742   111.84609463   113.61430082
 H      7   5   1     1.090758111885   113.31937997   234.55072544
 H      8   6   2     1.093449775732   111.94074631   113.77029309
 H      8   6   2     1.090614637781   113.21758066   234.79396255
 H     17   9   1     1.083597648587   116.24680465   180.17695538
 H     18  10   2     1.083585492989   116.19193362   180.34640671
 H     19  11   1     1.083664579568   116.18841036   180.30919688
 H     20  12   2     1.083608768782   116.20477021   180.40128664
 H     21  13   3     1.079114567213   125.17964441   180.28034003
 H     22  21  13     1.079085667824   127.94168730   180.66009321
 H     23  15   4     1.079130607038   125.18183288   179.64039125
 H     24  23  15     1.079104640076   127.91285873   179.44393124
 Mg     3   1   2     2.048266466217    46.87629443     8.74969706
 O     41   3   1     2.114344210881    99.32359301    93.32264095
 C     42  41   3     1.435866194424   122.39386503   324.07204090
 H     43  42  41     1.091136517270   110.32208002   167.49410726
 H     43  42  41     1.091429614092   110.95671603   290.01798993
 H     43  42  41     1.086670550185   106.43566245    48.51580145
 H     42  41   3     0.964775500348   108.79470456   192.91255053

---------------------------
INTERNAL COORDINATES (A.U.)
---------------------------
 N      0   0   0     0.000000000000     0.00000000     0.00000000
 N      1   0   0     8.050722570670     0.00000000     0.00000000
 N      1   2   0     5.567693996202    43.80106352     0.00000000
 N      2   1   3     5.573325149319    43.81765121   180.83025142
 C      1   2   3     4.478928856226   161.29363812     1.97910240
 C      2   1   3     4.476673520297   160.81566609    11.98716236
 C      5   1   2     2.901498800316    71.09939603   185.45256901
 C      6   2   1     2.901763536635    71.10529137   175.50682946
 C      1   2   3     2.555934067834   124.60603460     0.16413444
 C      2   1   3     2.553978971130   124.41522660     3.30288946
 C      1   2   3     2.557143680596   124.40342312   182.57563594
 C      2   1   3     2.556338458464   124.56657717   180.99523417
 C      3   1   2     2.584507073890    80.30439448   180.39971298
 C      3   1   2     2.585288100264   172.38795394   345.16461659
 C      4   2   1     2.586259494218   172.37549225   344.20615026
 C      4   2   1     2.585942731405    80.27810313   180.74371087
 C      9   1   2     2.607119533096   125.69475707     0.12667858
 C     10   2   1     2.607723136005   125.68442486   356.64093580
 C     11   1   2     2.606650535319   125.74628036   356.37373825
 C     12   2   1     2.606509410861   125.72274171   359.69540643
 C     13   3   1     2.708610791987   109.61333506   178.40908255
 C     21  13   3     2.583211310342   106.87220114   359.61581618
 C     15   4  16     2.707214536872   109.59534337   359.56930083
 C     23  15   4     2.584619357271   106.88641971     0.24453404
 H      5   1   2     2.060860576361   128.96368932   290.45525623
 H      5   1   2     2.066986925147   118.48082874    80.13068557
 H      6   2   1     2.061141805997   128.78520442   280.59669948
 H      6   2   1     2.066163856809   118.54666132    70.29334348
 H      7   5   1     2.066103211917   111.84609463   113.61430082
 H      7   5   1     2.061234109815   113.31937997   234.55072544
 H      8   6   2     2.066320617332   111.94074631   113.77029309
 H      8   6   2     2.060962983052   113.21758066   234.79396255
 H     17   9   1     2.047702795191   116.24680465   180.17695538
 H     18  10   2     2.047679824439   116.19193362   180.34640671
 H     19  11   1     2.047829276414   116.18841036   180.30919688
 H     20  12   2     2.047723809314   116.20477021   180.40128664
 H     21  13   3     2.039230999157   125.17964441   180.28034003
 H     22  21  13     2.039176387227   127.94168730   180.66009321
 H     23  15   4     2.039261310035   125.18183288   179.64039125
 H     24  23  15     2.039212239588   127.91285873   179.44393124
 Mg     3   1   2     3.870662670445    46.87629443     8.74969706
 O     41   3   1     3.995531511406    99.32359301    93.32264095
 C     42  41   3     2.713393872417   122.39386503   324.07204090
 H     43  42  41     2.061949192361   110.32208002   167.49410726
 H     43  42  41     2.062503065084   110.95671603   290.01798993
 H     43  42  41     2.053509737648   106.43566245    48.51580145
 H     42  41   3     1.823161476375   108.79470456   192.91255053

---------------------
BASIS SET INFORMATION
---------------------
There are 5 groups of distinct atoms

 Group   1 Type N   : 11s6p2d1f contracted to 5s3p2d1f pattern {62111/411/11/1}
 Group   2 Type C   : 11s6p2d1f contracted to 5s3p2d1f pattern {62111/411/11/1}
 Group   3 Type H   : 5s1p contracted to 3s1p pattern {311/1}
 Group   4 Type Mg  : 14s8p3d contracted to 5s4p3d pattern {73211/5111/111}
 Group   5 Type O   : 11s6p2d1f contracted to 5s3p2d1f pattern {62111/411/11/1}

Atom   0N    basis set group =>   1
Atom   1N    basis set group =>   1
Atom   2N    basis set group =>   1
Atom   3N    basis set group =>   1
Atom   4C    basis set group =>   2
Atom   5C    basis set group =>   2
Atom   6C    basis set group =>   2
Atom   7C    basis set group =>   2
Atom   8C    basis set group =>   2
Atom   9C    basis set group =>   2
Atom  10C    basis set group =>   2
Atom  11C    basis set group =>   2
Atom  12C    basis set group =>   2
Atom  13C    basis set group =>   2
Atom  14C    basis set group =>   2
Atom  15C    basis set group =>   2
Atom  16C    basis set group =>   2
Atom  17C    basis set group =>   2
Atom  18C    basis set group =>   2
Atom  19C    basis set group =>   2
Atom  20C    basis set group =>   2
Atom  21C    basis set group =>   2
Atom  22C    basis set group =>   2
Atom  23C    basis set group =>   2
Atom  24H    basis set group =>   3
Atom  25H    basis set group =>   3
Atom  26H    basis set group =>   3
Atom  27H    basis set group =>   3
Atom  28H    basis set group =>   3
Atom  29H    basis set group =>   3
Atom  30H    basis set group =>   3
Atom  31H    basis set group =>   3
Atom  32H    basis set group =>   3
Atom  33H    basis set group =>   3
Atom  34H    basis set group =>   3
Atom  35H    basis set group =>   3
Atom  36H    basis set group =>   3
Atom  37H    basis set group =>   3
Atom  38H    basis set group =>   3
Atom  39H    basis set group =>   3
Atom  40Mg   basis set group =>   4
Atom  41O    basis set group =>   5
Atom  42C    basis set group =>   2
Atom  43H    basis set group =>   3
Atom  44H    basis set group =>   3
Atom  45H    basis set group =>   3
Atom  46H    basis set group =>   3
---------------------------------
AUXILIARY/J BASIS SET INFORMATION
---------------------------------
There are 5 groups of distinct atoms

 Group   1 Type N   : 12s5p4d2f1g contracted to 6s4p3d1f1g pattern {711111/2111/211/2/1}
 Group   2 Type C   : 12s5p4d2f1g contracted to 6s4p3d1f1g pattern {711111/2111/211/2/1}
 Group   3 Type H   : 5s2p1d contracted to 3s1p1d pattern {311/2/1}
 Group   4 Type Mg  : 14s5p5d2f1g contracted to 8s4p4d1f1g pattern {71111111/2111/2111/2/1}
 Group   5 Type O   : 12s5p4d2f1g contracted to 6s4p3d1f1g pattern {711111/2111/211/2/1}

Atom   0N    basis set group =>   1
Atom   1N    basis set group =>   1
Atom   2N    basis set group =>   1
Atom   3N    basis set group =>   1
Atom   4C    basis set group =>   2
Atom   5C    basis set group =>   2
Atom   6C    basis set group =>   2
Atom   7C    basis set group =>   2
Atom   8C    basis set group =>   2
Atom   9C    basis set group =>   2
Atom  10C    basis set group =>   2
Atom  11C    basis set group =>   2
Atom  12C    basis set group =>   2
Atom  13C    basis set group =>   2
Atom  14C    basis set group =>   2
Atom  15C    basis set group =>   2
Atom  16C    basis set group =>   2
Atom  17C    basis set group =>   2
Atom  18C    basis set group =>   2
Atom  19C    basis set group =>   2
Atom  20C    basis set group =>   2
Atom  21C    basis set group =>   2
Atom  22C    basis set group =>   2
Atom  23C    basis set group =>   2
Atom  24H    basis set group =>   3
Atom  25H    basis set group =>   3
Atom  26H    basis set group =>   3
Atom  27H    basis set group =>   3
Atom  28H    basis set group =>   3
Atom  29H    basis set group =>   3
Atom  30H    basis set group =>   3
Atom  31H    basis set group =>   3
Atom  32H    basis set group =>   3
Atom  33H    basis set group =>   3
Atom  34H    basis set group =>   3
Atom  35H    basis set group =>   3
Atom  36H    basis set group =>   3
Atom  37H    basis set group =>   3
Atom  38H    basis set group =>   3
Atom  39H    basis set group =>   3
Atom  40Mg   basis set group =>   4
Atom  41O    basis set group =>   5
Atom  42C    basis set group =>   2
Atom  43H    basis set group =>   3
Atom  44H    basis set group =>   3
Atom  45H    basis set group =>   3
Atom  46H    basis set group =>   3


           ************************************************************
           *        Program running with 4 parallel MPI-processes     *
           *              working on a common directory               *
           ************************************************************
------------------------------------------------------------------------------
                             ORCA STARTUP CALCULATIONS
                           -- RI-GTO INTEGRALS CHOSEN --
------------------------------------------------------------------------------
------------------------------------------------------------------------------
                   ___                                                        
                  /   \      - P O W E R E D   B Y -                         
                 /     \                                                     
                 |  |  |   _    _      __       _____    __    __             
                 |  |  |  | |  | |    /  \     |  _  \  |  |  /  |          
                  \  \/   | |  | |   /    \    | | | |  |  | /  /          
                 / \  \   | |__| |  /  /\  \   | |_| |  |  |/  /          
                |  |  |   |  __  | /  /__\  \  |    /   |      \           
                |  |  |   | |  | | |   __   |  |    \   |  |\   \          
                \     /   | |  | | |  |  |  |  | |\  \  |  | \   \       
                 \___/    |_|  |_| |__|  |__|  |_| \__\ |__|  \__/        
                                                                              
                      - O R C A' S   B I G   F R I E N D -                    
                                      &                                       
                       - I N T E G R A L  F E E D E R -                       
                                                                              
 v1 FN, 2020, v2 2021, v3 2022-2024                                           
------------------------------------------------------------------------------


----------------------
SHARK INTEGRAL PACKAGE
----------------------

Number of atoms                             ...     47
Number of basis functions                   ...    958
Number of shells                            ...    378
Maximum angular momentum                    ...      3
Integral batch strategy                     ... SHARK/LIBINT Hybrid
RI-J (if used) integral strategy            ... SPLIT-RIJ (Revised 2003 algorithm where possible)
Printlevel                                  ...      1
Contraction scheme used                     ... SEGMENTED contraction
Prescreening option                         ... SCHWARTZ
   Thresh                                   ... 2.500e-11
   Tcut                                     ... 2.500e-12
   Tpresel                                  ... 2.500e-12 
Coulomb Range Separation                    ... NOT USED
Exchange Range Separation                   ... NOT USED
Multipole approximations                    ... NOT USED
Finite Nucleus Model                        ... NOT USED
CABS basis                                  ... NOT available
Auxiliary Coulomb fitting basis             ... AVAILABLE
   # of basis functions in Aux-J            ...   1550
   # of shells in Aux-J                     ...    508
   Maximum angular momentum in Aux-J        ...      4
Auxiliary J/K fitting basis                 ... NOT available
Auxiliary Correlation fitting basis         ... NOT available
Auxiliary 'external' fitting basis          ... NOT available

Checking pre-screening integrals            ... done (  0.0 sec) Dimension = 378
   => SHARK Basis and OBASIS are compatible. Storing Pre-screening
Shell pair information
Shell pair cut-off parameter TPreSel        ...   2.5e-12
Total number of shell pairs                 ...     71631
Shell pairs after pre-screening             ...     50412
Total number of primitive shell pairs       ...    222112
Primitive shell pairs kept                  ...    101345
          la=0 lb=0:  12812 shell pairs
          la=1 lb=0:  14597 shell pairs
          la=1 lb=1:   4158 shell pairs
          la=2 lb=0:   7321 shell pairs
          la=2 lb=1:   4254 shell pairs
          la=2 lb=2:   1130 shell pairs
          la=3 lb=0:   3128 shell pairs
          la=3 lb=1:   1876 shell pairs
          la=3 lb=2:    930 shell pairs
          la=3 lb=3:    206 shell pairs

Checking whether 4 symmetric matrices of dimension 958 fit in memory
:Max Core in MB      =   3000.00
 MB in use           =     64.03
 MB left             =   2935.97
 MB needed           =     14.02
 Data fit in memory  = YES
Calculating RI/J V-Matrix + Cholesky decomp.... done (  0.2 sec)
Calculating Nuclear repulsion               ... done (  0.0 sec) ENN=   2623.086717603639 Eh

Diagonalization of the overlap matrix:
Smallest eigenvalue                        ... 1.001e-05
Time for diagonalization                   ...    0.268 sec
Threshold for overlap eigenvalues          ... 1.000e-07
Number of eigenvalues below threshold      ... 0
Time for construction of square roots      ...    0.178 sec
Total time needed                          ...    0.454 sec

-------------------
DFT GRID GENERATION
-------------------

General Integration Accuracy     IntAcc      ... 4.959
Radial Grid Type                 RadialGrid  ... OptM3 with GC (2021)
Angular Grid (max. ang.)         AngularGrid ... 6 (Lebedev-590)
Angular grid pruning method      GridPruning ... 4 (adaptive)
Weight generation scheme         WeightScheme... mBecke (2022)
Basis function cutoff            BFCut       ... 1.0000e-11
Integration weight cutoff        WCut        ... 1.0000e-14
Partially contracted basis set               ... off
Rotationally invariant grid construction     ... off
Angular grids for H and He will be reduced by one unit

Total number of grid points                  ...   550626
Total number of batches                      ...     8629
Average number of points per batch           ...       63
Average number of grid points per atom       ...    11715

--------------------
COSX GRID GENERATION
--------------------

GRIDX 1
-------
General Integration Accuracy     IntAcc      ... 4.020
Radial Grid Type                 RadialGrid  ... OptM3 with GC (2021)
Angular Grid (max. ang.)         AngularGrid ... 2 (Lebedev-110)
Angular grid pruning method      GridPruning ... 4 (adaptive)
Weight generation scheme         WeightScheme... mBecke (2022)
Basis function cutoff            BFCut       ... 1.0000e-11
Integration weight cutoff        WCut        ... 1.0000e-14
Partially contracted basis set               ... on
Rotationally invariant grid construction     ... off
Angular grids for H and He will be reduced by one unit

Total number of grid points                  ...    61520
Total number of batches                      ...      505
Average number of points per batch           ...      121
Average number of grid points per atom       ...     1309
UseSFitting                                  ... on

GRIDX 2
-------
General Integration Accuracy     IntAcc      ... 4.338
Radial Grid Type                 RadialGrid  ... OptM3 with GC (2021)
Angular Grid (max. ang.)         AngularGrid ... 3 (Lebedev-194)
Angular grid pruning method      GridPruning ... 4 (adaptive)
Weight generation scheme         WeightScheme... mBecke (2022)
Basis function cutoff            BFCut       ... 1.0000e-11
Integration weight cutoff        WCut        ... 1.0000e-14
Partially contracted basis set               ... on
Rotationally invariant grid construction     ... off
Angular grids for H and He will be reduced by one unit

Total number of grid points                  ...   134764
Total number of batches                      ...     1074
Average number of points per batch           ...      125
Average number of grid points per atom       ...     2867
UseSFitting                                  ... on

GRIDX 3
-------
General Integration Accuracy     IntAcc      ... 4.871
Radial Grid Type                 RadialGrid  ... OptM3 with GC (2021)
Angular Grid (max. ang.)         AngularGrid ... 4 (Lebedev-302)
Angular grid pruning method      GridPruning ... 4 (adaptive)
Weight generation scheme         WeightScheme... mBecke (2022)
Basis function cutoff            BFCut       ... 1.0000e-11
Integration weight cutoff        WCut        ... 1.0000e-14
Partially contracted basis set               ... on
Rotationally invariant grid construction     ... off
Angular grids for H and He will be reduced by one unit

Total number of grid points                  ...   250831
Total number of batches                      ...     1982
Average number of points per batch           ...      126
Average number of grid points per atom       ...     5337
UseSFitting                                  ... on
Grids setup in  18.3 sec
Initializing property integral containers    ... done (  0.0 sec)

SHARK setup successfully completed in  20.0 seconds

Maximum memory used throughout the entire STARTUP-calculation: 186.4 MB


           ************************************************************
           *        Program running with 4 parallel MPI-processes     *
           *              working on a common directory               *
           ************************************************************
-------------------------------------------------------------------------------
                                 ORCA GUESS
                   Start orbitals & Density for SCF / CASSCF
-------------------------------------------------------------------------------

------------
SCF SETTINGS
------------
Hamiltonian:
 Density Functional     Method          .... DFT(GTOs)
 Exchange Functional    Exchange        .... PBE
   PBE kappa parameter   XKappa         ....  0.804000
   PBE mue parameter    XMuePBE         ....  0.219520
 Correlation Functional Correlation     .... PBE
   PBE beta parameter  CBetaPBE         ....  0.066725
 LDA part of GGA corr.  LDAOpt          .... PW91-LDA
 Gradients option       PostSCFGGA      .... off
 Hybrid DFT is turned on
   Fraction HF Exchange ScalHFX         ....  0.250000
   Scaling of DF-GGA-X  ScalDFX         ....  0.750000
   Scaling of DF-GGA-C  ScalDFC         ....  1.000000
   Scaling of DF-LDA-C  ScalLDAC        ....  1.000000
   Perturbative correction              ....  0.000000
   NL short-range parameter             ....  6.900000
 RI-approximation to the Coulomb term is turned on
   Number of AuxJ basis functions       .... 1550
   RIJ-COSX (HFX calculated with COS-X)).... on


General Settings:
 Integral files         IntName         .... tddft
 Hartree-Fock type      HFTyp           .... RHF
 Total Charge           Charge          ....    0
 Multiplicity           Mult            ....    1
 Number of Electrons    NEL             ....  194
 Basis Dimension        Dim             ....  958
 Nuclear Repulsion      ENuc            ....   2623.0867176036 Eh

Convergence Acceleration:
 AO-DIIS                CNVDIIS         .... on
   Start iteration      DIISMaxIt       ....    12
   Startup error        DIISStart       ....  0.200000
   # of expansion vecs  DIISMaxEq       ....     5
   Bias factor          DIISBfac        ....   1.050
   Max. coefficient     DIISMaxC        ....  10.000
 MO-DIIS                CNVKDIIS        .... off
 Trust-Rad. Augm. Hess. CNVTRAH         .... auto
   Auto Start mean grad. ratio tolernc. ....  1.125000
   Auto Start start iteration           ....    50
   Auto Start num. interpolation iter.  ....    10
   Max. Number of Micro iterations      ....    24
   Max. Number of Macro iterations      .... Maxiter - #DIIS iter
   Number of Davidson start vectors     ....     2
   Converg. threshold    (grad. norm)   ....   1.000e-05
   Grad. Scal. Fac. for Micro threshold ....   0.100
   Minimum threshold for Micro iter.    ....   1.000e-02
   NR start threshold (gradient norm)   ....   1.000e-04
   Initial trust radius                 ....   0.400
   Minimum AH scaling param. (alpha)    ....   1.000
   Maximum AH scaling param. (alpha)    .... 1000.000
   Quad. conv. algorithm                .... NR
   White noise on init. David. guess    .... on
   Maximum white noise                  ....   0.010
   Pseudo random numbers                .... off
   Inactive MOs                         .... canonical
   Orbital update algorithm             .... Taylor
   Preconditioner                       .... Diag
   Full preconditioner red. dimension   ....   250
 SOSCF                 CNVSOSCF           .... on
   Start iteration     SOSCFMaxIt         ....   150
   Startup grad/error  SOSCFStart         ....  0.003300
   Hessian update      SOSCFHessUp        .... L-BFGS
   Autom. constraints  SOSCFAutoConstrain .... off
 Level Shifting         CNVShift        .... on
   Level shift para.    LevelShift      ....    0.2500
   Turn off err/grad.   ShiftErr        ....    0.0010
 Zerner damping         CNVZerner       .... off
 Static damping         CNVDamp         .... on
   Fraction old density DampFac         ....    0.7000
   Max. Damping (<1)    DampMax         ....    0.9800
   Min. Damping (>=0)   DampMin         ....    0.0000
   Turn off err/grad.   DampErr         ....    0.1000

SCF Procedure:
 Maximum # iterations   MaxIter         ....   125
 SCF integral mode      SCFMode         .... Direct
   Integral package                     .... SHARK and LIBINT hybrid scheme
 Reset frequency        DirectResetFreq ....    20
 Integral Threshold     Thresh          ....  2.500e-11 Eh
 Primitive CutOff       TCut            ....  2.500e-12 Eh

Convergence Tolerance:
 Convergence Check Mode ConvCheckMode   .... Total+1el-Energy
 Convergence forced     ConvForced      .... 1
 Energy Change          TolE            ....  1.000e-08 Eh
 1-El. energy change                    ....  1.000e-05 Eh
 Orbital Gradient       TolG            ....  1.000e-05
 Orbital Rotation angle TolX            ....  1.000e-05
 DIIS Error             TolErr          ....  5.000e-07

------------------------------
INITIAL GUESS: MODEL POTENTIAL
------------------------------
Loading Hartree-Fock densities                     ... done
Calculating cut-offs                               ... done
Initializing the effective Hamiltonian             ... done
Setting up the integral package (SHARK)            ... done
Starting the Coulomb interaction                   ... done (   2.3 sec)
Making the grid                                    ... done (   0.8 sec)
Mapping shells                                     ... done
Starting the XC term evaluation                    ... done (   1.4 sec)
  promolecular density results
     # of electrons  =    194.017392037
     EX              =   -163.779439852
     EC              =     -6.578544742
     EX+EC           =   -170.357984595
Transforming the Hamiltonian                       ... done (   0.2 sec)
Diagonalizing the Hamiltonian                      ... done (   0.3 sec)
Back transforming the eigenvectors                 ... done (   0.1 sec)
Now organizing SCF variables                       ... done
                      ------------------
                      INITIAL GUESS DONE (   5.2 sec)
                      ------------------
             **** ENERGY FILE WAS UPDATED (tddft.en.tmp) ****
Finished Guess after   5.7 sec
Maximum memory used throughout the entire GUESS-calculation: 106.7 MB


           ************************************************************
           *        Program running with 4 parallel MPI-processes     *
           *              working on a common directory               *
           ************************************************************

-------------------------------------------------------------------------------------------
                                      ORCA LEAN-SCF
                              memory conserving SCF solver
-------------------------------------------------------------------------------------------

--------------------
CPCM SOLVATION MODEL
--------------------
CPCM parameters:
  Epsilon                                         ...       8.9990
  Refrac                                          ...       1.4242
  Rsolv                                           ...       1.3000
  Surface type                                    ... GAUSSIAN VDW
  Discretization scheme                           ... Constant charge density
    Threshold for H atoms                         ...       5.0000 (charges/Ang^2)
    Threshold for non-H atoms                     ...       5.0000 (charges/Ang^2)
  Epsilon function type                           ...         CPCM
Solvent:                                          ... DICHLOROMETHANE
Radii:
  Scheme                                          ... Element-dependent radii
  Radius for N  used is    3.5149 Bohr (=   1.8600 Ang.)
  Radius for C  used is    3.8550 Bohr (=   2.0400 Ang.)
  Radius for H  used is    2.4944 Bohr (=   1.3200 Ang.)
  Radius for Mg used is    3.9231 Bohr (=   2.0760 Ang.)
  Radius for O  used is    3.4469 Bohr (=   1.8240 Ang.)
Calculating surface                               ...        done! (  0.0s)
Cavity surface points                             ...         4113
Cavity Volume                                     ...    2831.5727
Cavity Surface-area                               ...    1348.4688
Calculating surface distance matrix               ...        done! (  0.3s)
Performing Cholesky decomposition & store         ...        done! (  0.8s)
Overall time for CPCM initialization              ...                 1.2s

----------------------------------------D-I-I-S--------------------------------------------
Iteration    Energy (Eh)           Delta-E    RMSDP     MaxDP     DIISErr   Damp  Time(sec)
-------------------------------------------------------------------------------------------
               ***  Starting incremental Fock matrix formation  ***
    1    -1305.1505024313755712     0.00e+00  1.71e-03  4.22e-02  2.29e-01  0.700 121.1
Warning: op=0 Small HOMO/LUMO gap (   0.088) - skipping pre-diagonalization
         Will do a full diagonalization
    2    -1305.4231452401095339    -2.73e-01  1.35e-03  2.84e-02  1.11e-01  0.700  58.3
                               ***Turning on AO-DIIS***
    3    -1305.5451392786958422    -1.22e-01  6.34e-04  1.13e-02  4.06e-02  0.700  56.2
    4    -1305.6160789973150713    -7.09e-02  1.24e-03  2.82e-02  2.46e-02  0.000  52.8
    5    -1305.7679593296834355    -1.52e-01  2.39e-04  5.88e-03  4.53e-03  0.000  71.7
                              *** Initializing SOSCF ***
---------------------------------------S-O-S-C-F--------------------------------------
Iteration    Energy (Eh)           Delta-E    RMSDP     MaxDP     MaxGrad    Time(sec)
--------------------------------------------------------------------------------------
    6    -1305.7686189836304038    -6.60e-04  1.16e-04  2.84e-03  2.45e-03    58.7
               *** Restarting incremental Fock matrix formation ***
    7    -1305.7686616410219358    -4.27e-05  8.64e-05  2.16e-03  2.15e-04   153.1
    8    -1305.7686653107825805    -3.67e-06  3.23e-05  8.09e-04  2.32e-04    83.8
    9    -1305.7686686449796980    -3.33e-06  2.15e-05  5.14e-04  8.03e-05    98.7
   10    -1305.7686689179581663    -2.73e-07  4.80e-06  1.34e-04  2.56e-05    72.6
   11    -1305.7686690628434008    -1.45e-07  5.17e-06  2.05e-04  1.67e-05    54.4
   12    -1305.7686690172158706     4.56e-08  5.47e-06  2.38e-04  5.04e-06    81.7
   13    -1305.7686690188588727    -1.64e-09  3.84e-06  1.56e-04  2.80e-06    49.1
                 **** Energy Check signals convergence ****

               *****************************************************
               *                     SUCCESS                       *
               *           SCF CONVERGED AFTER  13 CYCLES          *
               *****************************************************

Recomputing exchange energy using gridx3       ... done (  216.422 sec)
Old exchange energy                            :    -41.753664922 Eh
New exchange energy                            :    -41.753651110 Eh
Exchange energy change after final integration :      0.000013812 Eh
Total energy after final integration           :  -1305.768655218 Eh
             **** ENERGY FILE WAS UPDATED (tddft.en.tmp) ****

----------------
TOTAL SCF ENERGY
----------------

Total Energy       :      -1305.76865521755531 Eh          -35531.77151 eV

Components:
Nuclear Repulsion  :       2623.08671760363859 Eh           71377.81836 eV
Electronic Energy  :      -3928.83623911386258 Eh         -106909.06922 eV
One Electron Energy:      -7002.32218967497647 Eh         -190542.87379 eV
Two Electron Energy:       3073.48595056111390 Eh           83633.80458 eV
CPCM Dielectric    :         -0.01914751974595 Eh              -0.52103 eV

Virial components:
Potential Energy   :      -2605.52280779841885 Eh          -70899.88008 eV
Kinetic Energy     :       1299.75415258086355 Eh           35368.10857 eV
Virial Ratio       :          2.00462741559606

DFT components:
N(Alpha)           :       97.000016761295 electrons
N(Beta)            :       97.000016761295 electrons
N(Total)           :      194.000033522590 electrons
E(X)               :     -124.922036324843 Eh       
E(C)               :       -6.586027836248 Eh       
E(XC)              :     -131.508064161091 Eh       

CPCM Solvation Model Properties:
Surface-charge          :         -0.03917070539099
Corrected charge        :         -0.00000000000000
Outlying charge corr.   :          0.00007057784167 Eh               0.00192 eV
Free-energy (cav+disp)  :  This term is not implemented in the current solvation scheme

---------------
SCF CONVERGENCE
---------------

  Last Energy change         ...    1.6430e-09  Tolerance :   1.0000e-08
  Last MAX-Density change    ...    1.5552e-04  Tolerance :   1.0000e-07
  Last RMS-Density change    ...    3.8358e-06  Tolerance :   5.0000e-09
  Last DIIS Error            ...    2.4519e-03  Tolerance :   5.0000e-07
  Last Orbital Gradient      ...    2.8039e-06  Tolerance :   1.0000e-05
  Last Orbital Rotation      ...    1.2562e-05  Tolerance :   1.0000e-05


----------------
ORBITAL ENERGIES
----------------

  NO   OCC          E(Eh)            E(eV) 
   0   2.0000     -46.854775     -1274.9832 
   1   2.0000     -19.239107      -523.5227 
   2   2.0000     -14.386821      -391.4853 
   3   2.0000     -14.386485      -391.4762 
   4   2.0000     -14.360626      -390.7725 
   5   2.0000     -14.360468      -390.7682 
   6   2.0000     -10.266314      -279.3606 
   7   2.0000     -10.258776      -279.1555 
   8   2.0000     -10.258769      -279.1553 
   9   2.0000     -10.258676      -279.1528 
  10   2.0000     -10.258519      -279.1485 
  11   2.0000     -10.247902      -278.8596 
  12   2.0000     -10.247868      -278.8587 
  13   2.0000     -10.247810      -278.8571 
  14   2.0000     -10.247463      -278.8476 
  15   2.0000     -10.222304      -278.1630 
  16   2.0000     -10.222045      -278.1560 
  17   2.0000     -10.221847      -278.1506 
  18   2.0000     -10.221609      -278.1441 
  19   2.0000     -10.215959      -277.9904 
  20   2.0000     -10.215845      -277.9873 
  21   2.0000     -10.215572      -277.9798 
  22   2.0000     -10.215560      -277.9795 
  23   2.0000     -10.213482      -277.9230 
  24   2.0000     -10.213192      -277.9151 
  25   2.0000     -10.212737      -277.9027 
  26   2.0000     -10.212457      -277.8951 
  27   2.0000      -3.077285       -83.7372 
  28   2.0000      -1.802661       -49.0529 
  29   2.0000      -1.799687       -48.9720 
  30   2.0000      -1.798884       -48.9501 
  31   2.0000      -1.076021       -29.2800 
  32   2.0000      -0.984676       -26.7944 
  33   2.0000      -0.979168       -26.6445 
  34   2.0000      -0.971779       -26.4434 
  35   2.0000      -0.965301       -26.2672 
  36   2.0000      -0.832214       -22.6457 
  37   2.0000      -0.808848       -22.0099 
  38   2.0000      -0.800528       -21.7835 
  39   2.0000      -0.789193       -21.4750 
  40   2.0000      -0.787739       -21.4355 
  41   2.0000      -0.777158       -21.1475 
  42   2.0000      -0.776609       -21.1326 
  43   2.0000      -0.750664       -20.4266 
  44   2.0000      -0.735043       -20.0015 
  45   2.0000      -0.718276       -19.5453 
  46   2.0000      -0.674671       -18.3587 
  47   2.0000      -0.666835       -18.1455 
  48   2.0000      -0.630221       -17.1492 
  49   2.0000      -0.610242       -16.6055 
  50   2.0000      -0.582647       -15.8546 
  51   2.0000      -0.582614       -15.8537 
  52   2.0000      -0.578562       -15.7435 
  53   2.0000      -0.569136       -15.4870 
  54   2.0000      -0.547131       -14.8882 
  55   2.0000      -0.541913       -14.7462 
  56   2.0000      -0.530427       -14.4336 
  57   2.0000      -0.518788       -14.1169 
  58   2.0000      -0.513508       -13.9733 
  59   2.0000      -0.507068       -13.7980 
  60   2.0000      -0.496350       -13.5064 
  61   2.0000      -0.486904       -13.2493 
  62   2.0000      -0.483857       -13.1664 
  63   2.0000      -0.474234       -12.9046 
  64   2.0000      -0.464320       -12.6348 
  65   2.0000      -0.449411       -12.2291 
  66   2.0000      -0.444921       -12.1069 
  67   2.0000      -0.425948       -11.5906 
  68   2.0000      -0.423960       -11.5365 
  69   2.0000      -0.422183       -11.4882 
  70   2.0000      -0.412083       -11.2133 
  71   2.0000      -0.411720       -11.2035 
  72   2.0000      -0.409383       -11.1399 
  73   2.0000      -0.395026       -10.7492 
  74   2.0000      -0.387599       -10.5471 
  75   2.0000      -0.386330       -10.5126 
  76   2.0000      -0.385672       -10.4947 
  77   2.0000      -0.380952       -10.3662 
  78   2.0000      -0.380491       -10.3537 
  79   2.0000      -0.373004       -10.1499 
  80   2.0000      -0.369111       -10.0440 
  81   2.0000      -0.367431        -9.9983 
  82   2.0000      -0.366254        -9.9663 
  83   2.0000      -0.363517        -9.8918 
  84   2.0000      -0.359056        -9.7704 
  85   2.0000      -0.357697        -9.7334 
  86   2.0000      -0.327508        -8.9120 
  87   2.0000      -0.317317        -8.6346 
  88   2.0000      -0.313811        -8.5392 
  89   2.0000      -0.311495        -8.4762 
  90   2.0000      -0.288560        -7.8521 
  91   2.0000      -0.281070        -7.6483 
  92   2.0000      -0.267640        -7.2829 
  93   2.0000      -0.256970        -6.9925 
  94   2.0000      -0.248630        -6.7656 
  95   2.0000      -0.200963        -5.4685 
  96   2.0000      -0.172271        -4.6877 
  97   0.0000      -0.090431        -2.4607 
  98   0.0000      -0.033621        -0.9149 
  99   0.0000       0.015964         0.4344 
 100   0.0000       0.023642         0.6433 
 101   0.0000       0.030000         0.8163 
 102   0.0000       0.044386         1.2078 
 103   0.0000       0.046485         1.2649 
 104   0.0000       0.048996         1.3332 
 105   0.0000       0.062094         1.6897 
 106   0.0000       0.067834         1.8459 
 107   0.0000       0.078058         2.1241 
*Only the first 10 virtual orbitals were printed.

                    ********************************
                    * MULLIKEN POPULATION ANALYSIS *
                    ********************************

-----------------------
MULLIKEN ATOMIC CHARGES
-----------------------
   0 N :   -0.274227
   1 N :   -0.274517
   2 N :   -0.337886
   3 N :   -0.350785
   4 C :   -0.162763
   5 C :   -0.166784
   6 C :   -0.168760
   7 C :   -0.165843
   8 C :    0.179013
   9 C :    0.183777
  10 C :    0.184399
  11 C :    0.190673
  12 C :    0.304153
  13 C :    0.320038
  14 C :    0.313024
  15 C :    0.324175
  16 C :   -0.484735
  17 C :   -0.471071
  18 C :   -0.464823
  19 C :   -0.479664
  20 C :   -0.260632
  21 C :   -0.272066
  22 C :   -0.271525
  23 C :   -0.267065
  24 H :    0.133335
  25 H :    0.115908
  26 H :    0.131691
  27 H :    0.118835
  28 H :    0.118414
  29 H :    0.131692
  30 H :    0.117616
  31 H :    0.132502
  32 H :    0.140270
  33 H :    0.142026
  34 H :    0.141646
  35 H :    0.142149
  36 H :    0.142682
  37 H :    0.142470
  38 H :    0.142478
  39 H :    0.142497
  40 Mg:    0.594891
  41 O :   -0.464246
  42 C :   -0.232126
  43 H :    0.159012
  44 H :    0.143476
  45 H :    0.159002
  46 H :    0.377671
Sum of atomic charges:   -0.0000000

--------------------------------
MULLIKEN REDUCED ORBITAL CHARGES
--------------------------------
  0 N s       :     3.641093  s :     3.641093
      pz      :     1.247830  p :     3.565432
      px      :     1.302634
      py      :     1.014968
      dz2     :     0.004420  d :     0.064057
      dxz     :     0.006519
      dyz     :     0.016287
      dx2y2   :     0.017473
      dxy     :     0.019357
      f0      :     0.000639  f :     0.003645
      f+1     :     0.000245
      f-1     :     0.000385
      f+2     :     0.000110
      f-2     :     0.000573
      f+3     :     0.000643
      f-3     :     0.001049

  1 N s       :     3.649227  s :     3.649227
      pz      :     1.250821  p :     3.557668
      px      :     1.291273
      py      :     1.015574
      dz2     :     0.004373  d :     0.063976
      dxz     :     0.006284
      dyz     :     0.016461
      dx2y2   :     0.017675
      dxy     :     0.019183
      f0      :     0.000632  f :     0.003646
      f+1     :     0.000252
      f-1     :     0.000381
      f+2     :     0.000112
      f-2     :     0.000572
      f+3     :     0.000640
      f-3     :     0.001057

  2 N s       :     3.643379  s :     3.643379
      pz      :     1.367273  p :     3.630861
      px      :     1.015315
      py      :     1.248273
      dz2     :     0.004659  d :     0.059992
      dxz     :     0.014135
      dyz     :     0.006065
      dx2y2   :     0.017134
      dxy     :     0.017999
      f0      :     0.000646  f :     0.003654
      f+1     :     0.000426
      f-1     :     0.000315
      f+2     :     0.000089
      f-2     :     0.000625
      f+3     :     0.000938
      f-3     :     0.000616

  3 N s       :     3.648273  s :     3.648273
      pz      :     1.367487  p :     3.638893
      px      :     1.016210
      py      :     1.255196
      dz2     :     0.004547  d :     0.059974
      dxz     :     0.014267
      dyz     :     0.006050
      dx2y2   :     0.016970
      dxy     :     0.018139
      f0      :     0.000639  f :     0.003645
      f+1     :     0.000419
      f-1     :     0.000315
      f+2     :     0.000086
      f-2     :     0.000627
      f+3     :     0.000940
      f-3     :     0.000619

  4 C s       :     3.108010  s :     3.108010
      pz      :     1.054592  p :     2.963752
      px      :     0.945378
      py      :     0.963782
      dz2     :     0.007002  d :     0.085238
      dxz     :     0.017070
      dyz     :     0.017983
      dx2y2   :     0.017785
      dxy     :     0.025399
      f0      :     0.000735  f :     0.005761
      f+1     :     0.000628
      f-1     :     0.000529
      f+2     :     0.000815
      f-2     :     0.000411
      f+3     :     0.001548
      f-3     :     0.001094

  5 C s       :     3.108480  s :     3.108480
      pz      :     1.057931  p :     2.967331
      px      :     0.944481
      py      :     0.964919
      dz2     :     0.007067  d :     0.085210
      dxz     :     0.016129
      dyz     :     0.018699
      dx2y2   :     0.017942
      dxy     :     0.025373
      f0      :     0.000768  f :     0.005764
      f+1     :     0.000600
      f-1     :     0.000529
      f+2     :     0.000838
      f-2     :     0.000388
      f+3     :     0.001515
      f-3     :     0.001126

  6 C s       :     3.110204  s :     3.110204
      pz      :     1.058200  p :     2.967638
      px      :     0.944638
      py      :     0.964800
      dz2     :     0.006622  d :     0.085154
      dxz     :     0.017275
      dyz     :     0.018083
      dx2y2   :     0.017910
      dxy     :     0.025265
      f0      :     0.000667  f :     0.005764
      f+1     :     0.000663
      f-1     :     0.000573
      f+2     :     0.000836
      f-2     :     0.000383
      f+3     :     0.001540
      f-3     :     0.001101

  7 C s       :     3.107371  s :     3.107371
      pz      :     1.056566  p :     2.967477
      px      :     0.947910
      py      :     0.963000
      dz2     :     0.005533  d :     0.085228
      dxz     :     0.017746
      dyz     :     0.018963
      dx2y2   :     0.017932
      dxy     :     0.025054
      f0      :     0.000593  f :     0.005767
      f+1     :     0.000743
      f-1     :     0.000582
      f+2     :     0.000855
      f-2     :     0.000352
      f+3     :     0.001566
      f-3     :     0.001077

  8 C s       :     3.146907  s :     3.146907
      pz      :     0.905465  p :     2.495157
      px      :     0.860928
      py      :     0.728764
      dz2     :     0.004058  d :     0.164946
      dxz     :     0.022329
      dyz     :     0.042252
      dx2y2   :     0.052248
      dxy     :     0.044060
      f0      :     0.001934  f :     0.013976
      f+1     :     0.000914
      f-1     :     0.000942
      f+2     :     0.001225
      f-2     :     0.001556
      f+3     :     0.002653
      f-3     :     0.004753

  9 C s       :     3.147878  s :     3.147878
      pz      :     0.902694  p :     2.488500
      px      :     0.861960
      py      :     0.723846
      dz2     :     0.004321  d :     0.165830
      dxz     :     0.022269
      dyz     :     0.042382
      dx2y2   :     0.052188
      dxy     :     0.044671
      f0      :     0.001909  f :     0.014015
      f+1     :     0.000947
      f-1     :     0.000956
      f+2     :     0.001261
      f-2     :     0.001553
      f+3     :     0.002500
      f-3     :     0.004890

 10 C s       :     3.148999  s :     3.148999
      pz      :     0.901997  p :     2.488042
      px      :     0.861558
      py      :     0.724488
      dz2     :     0.003190  d :     0.164619
      dxz     :     0.022336
      dyz     :     0.042262
      dx2y2   :     0.052434
      dxy     :     0.044397
      f0      :     0.001939  f :     0.013941
      f+1     :     0.000884
      f-1     :     0.000949
      f+2     :     0.001252
      f-2     :     0.001522
      f+3     :     0.002512
      f-3     :     0.004883

 11 C s       :     3.144006  s :     3.144006
      pz      :     0.904593  p :     2.485424
      px      :     0.850435
      py      :     0.730396
      dz2     :     0.002968  d :     0.165893
      dxz     :     0.022912
      dyz     :     0.042249
      dx2y2   :     0.053282
      dxy     :     0.044482
      f0      :     0.001953  f :     0.014004
      f+1     :     0.000891
      f-1     :     0.000935
      f+2     :     0.001249
      f-2     :     0.001562
      f+3     :     0.002648
      f-3     :     0.004767

 12 C s       :     3.108042  s :     3.108042
      pz      :     0.921129  p :     2.404695
      px      :     0.696966
      py      :     0.786600
      dz2     :     0.004684  d :     0.168705
      dxz     :     0.040020
      dyz     :     0.030769
      dx2y2   :     0.050590
      dxy     :     0.042641
      f0      :     0.002086  f :     0.014405
      f+1     :     0.001082
      f-1     :     0.000855
      f+2     :     0.000902
      f-2     :     0.002115
      f+3     :     0.004575
      f-3     :     0.002789

 13 C s       :     3.107878  s :     3.107878
      pz      :     0.913670  p :     2.388835
      px      :     0.700845
      py      :     0.774320
      dz2     :     0.004666  d :     0.168869
      dxz     :     0.039545
      dyz     :     0.030628
      dx2y2   :     0.051009
      dxy     :     0.043022
      f0      :     0.002041  f :     0.014380
      f+1     :     0.001110
      f-1     :     0.000869
      f+2     :     0.000865
      f-2     :     0.002156
      f+3     :     0.004403
      f-3     :     0.002936

 14 C s       :     3.104147  s :     3.104147
      pz      :     0.920969  p :     2.401095
      px      :     0.699160
      py      :     0.780965
      dz2     :     0.004158  d :     0.167395
      dxz     :     0.039885
      dyz     :     0.030469
      dx2y2   :     0.050318
      dxy     :     0.042564
      f0      :     0.002072  f :     0.014340
      f+1     :     0.001052
      f-1     :     0.000868
      f+2     :     0.000838
      f-2     :     0.002151
      f+3     :     0.004426
      f-3     :     0.002932

 15 C s       :     3.104104  s :     3.104104
      pz      :     0.917421  p :     2.389158
      px      :     0.698269
      py      :     0.773469
      dz2     :     0.004341  d :     0.168220
      dxz     :     0.039886
      dyz     :     0.030344
      dx2y2   :     0.050454
      dxy     :     0.043194
      f0      :     0.002058  f :     0.014344
      f+1     :     0.001087
      f-1     :     0.000858
      f+2     :     0.000905
      f-2     :     0.002097
      f+3     :     0.004556
      f-3     :     0.002783

 16 C s       :     3.409569  s :     3.409569
      pz      :     1.071906  p :     2.992443
      px      :     0.949655
      py      :     0.970881
      dz2     :     0.002425  d :     0.075461
      dxz     :     0.014949
      dyz     :     0.016124
      dx2y2   :     0.008262
      dxy     :     0.033700
      f0      :     0.001454  f :     0.007262
      f+1     :     0.000689
      f-1     :     0.000663
      f+2     :     0.000834
      f-2     :     0.000430
      f+3     :     0.001545
      f-3     :     0.001646

 17 C s       :     3.388748  s :     3.388748
      pz      :     1.073583  p :     2.999183
      px      :     0.952726
      py      :     0.972874
      dz2     :     0.002813  d :     0.075875
      dxz     :     0.015265
      dyz     :     0.015667
      dx2y2   :     0.008388
      dxy     :     0.033742
      f0      :     0.001428  f :     0.007265
      f+1     :     0.000719
      f-1     :     0.000667
      f+2     :     0.000832
      f-2     :     0.000443
      f+3     :     0.001477
      f-3     :     0.001700

 18 C s       :     3.387279  s :     3.387279
      pz      :     1.074373  p :     2.994176
      px      :     0.948466
      py      :     0.971337
      dz2     :     0.002618  d :     0.076108
      dxz     :     0.015599
      dyz     :     0.015602
      dx2y2   :     0.008384
      dxy     :     0.033905
      f0      :     0.001447  f :     0.007260
      f+1     :     0.000687
      f-1     :     0.000682
      f+2     :     0.000833
      f-2     :     0.000420
      f+3     :     0.001480
      f-3     :     0.001712

 19 C s       :     3.394553  s :     3.394553
      pz      :     1.074255  p :     3.001741
      px      :     0.952647
      py      :     0.974839
      dz2     :     0.002493  d :     0.076108
      dxz     :     0.015097
      dyz     :     0.016221
      dx2y2   :     0.008494
      dxy     :     0.033804
      f0      :     0.001459  f :     0.007262
      f+1     :     0.000687
      f-1     :     0.000665
      f+2     :     0.000833
      f-2     :     0.000426
      f+3     :     0.001547
      f-3     :     0.001646

 20 C s       :     3.276844  s :     3.276844
      pz      :     1.025465  p :     2.888858
      px      :     0.949463
      py      :     0.913931
      dz2     :     0.005161  d :     0.087211
      dxz     :     0.019269
      dyz     :     0.011363
      dx2y2   :     0.019087
      dxy     :     0.032331
      f0      :     0.001435  f :     0.007719
      f+1     :     0.000651
      f-1     :     0.000744
      f+2     :     0.001187
      f-2     :     0.000224
      f+3     :     0.001231
      f-3     :     0.002248

 21 C s       :     3.283664  s :     3.283664
      pz      :     1.024939  p :     2.893277
      px      :     0.950522
      py      :     0.917816
      dz2     :     0.005224  d :     0.087403
      dxz     :     0.019604
      dyz     :     0.011247
      dx2y2   :     0.019110
      dxy     :     0.032218
      f0      :     0.001436  f :     0.007722
      f+1     :     0.000644
      f-1     :     0.000752
      f+2     :     0.001151
      f-2     :     0.000265
      f+3     :     0.001198
      f-3     :     0.002276

 22 C s       :     3.282122  s :     3.282122
      pz      :     1.026960  p :     2.894077
      px      :     0.949092
      py      :     0.918025
      dz2     :     0.005206  d :     0.087598
      dxz     :     0.019753
      dyz     :     0.011036
      dx2y2   :     0.019113
      dxy     :     0.032490
      f0      :     0.001447  f :     0.007728
      f+1     :     0.000606
      f-1     :     0.000774
      f+2     :     0.001170
      f-2     :     0.000246
      f+3     :     0.001204
      f-3     :     0.002280

 23 C s       :     3.279632  s :     3.279632
      pz      :     1.025535  p :     2.892184
      px      :     0.949277
      py      :     0.917372
      dz2     :     0.004980  d :     0.087522
      dxz     :     0.019604
      dyz     :     0.011488
      dx2y2   :     0.019127
      dxy     :     0.032324
      f0      :     0.001458  f :     0.007727
      f+1     :     0.000612
      f-1     :     0.000749
      f+2     :     0.001210
      f-2     :     0.000222
      f+3     :     0.001220
      f-3     :     0.002256

 24 H s       :     0.844900  s :     0.844900
      pz      :     0.007877  p :     0.021765
      px      :     0.007303
      py      :     0.006585

 25 H s       :     0.862182  s :     0.862182
      pz      :     0.011246  p :     0.021910
      px      :     0.005767
      py      :     0.004897

 26 H s       :     0.846541  s :     0.846541
      pz      :     0.007796  p :     0.021768
      px      :     0.007528
      py      :     0.006444

 27 H s       :     0.859263  s :     0.859263
      pz      :     0.011361  p :     0.021902
      px      :     0.005402
      py      :     0.005139

 28 H s       :     0.859676  s :     0.859676
      pz      :     0.010942  p :     0.021910
      px      :     0.006032
      py      :     0.004935

 29 H s       :     0.846551  s :     0.846551
      pz      :     0.008173  p :     0.021757
      px      :     0.006874
      py      :     0.006710

 30 H s       :     0.860484  s :     0.860484
      pz      :     0.010339  p :     0.021900
      px      :     0.006476
      py      :     0.005085

 31 H s       :     0.845739  s :     0.845739
      pz      :     0.008852  p :     0.021759
      px      :     0.006588
      py      :     0.006318

 32 H s       :     0.837142  s :     0.837142
      pz      :     0.005584  p :     0.022588
      px      :     0.008450
      py      :     0.008555

 33 H s       :     0.835397  s :     0.835397
      pz      :     0.005576  p :     0.022577
      px      :     0.008211
      py      :     0.008789

 34 H s       :     0.835779  s :     0.835779
      pz      :     0.005556  p :     0.022575
      px      :     0.008267
      py      :     0.008752

 35 H s       :     0.835283  s :     0.835283
      pz      :     0.005572  p :     0.022568
      px      :     0.008454
      py      :     0.008541

 36 H s       :     0.834954  s :     0.834954
      pz      :     0.005063  p :     0.022364
      px      :     0.007449
      py      :     0.009852

 37 H s       :     0.835168  s :     0.835168
      pz      :     0.005072  p :     0.022362
      px      :     0.007233
      py      :     0.010056

 38 H s       :     0.835160  s :     0.835160
      pz      :     0.005070  p :     0.022362
      px      :     0.007261
      py      :     0.010032

 39 H s       :     0.835144  s :     0.835144
      pz      :     0.005109  p :     0.022359
      px      :     0.007422
      py      :     0.009829

 40 Mgs       :     4.546583  s :     4.546583
      pz      :     2.155126  p :     6.539038
      px      :     2.178597
      py      :     2.205315
      dz2     :     0.047344  d :     0.319488
      dxz     :     0.028327
      dyz     :     0.040982
      dx2y2   :     0.172140
      dxy     :     0.030695

 41 O s       :     3.759093  s :     3.759093
      pz      :     1.625549  p :     4.676746
      px      :     1.745146
      py      :     1.306051
      dz2     :     0.005281  d :     0.026886
      dxz     :     0.004394
      dyz     :     0.005142
      dx2y2   :     0.007255
      dxy     :     0.004813
      f0      :     0.000162  f :     0.001522
      f+1     :     0.000122
      f-1     :     0.000166
      f+2     :     0.000243
      f-2     :     0.000239
      f+3     :     0.000253
      f-3     :     0.000337

 42 C s       :     3.239910  s :     3.239910
      pz      :     0.969350  p :     2.890538
      px      :     0.993024
      py      :     0.928164
      dz2     :     0.029290  d :     0.094039
      dxz     :     0.010377
      dyz     :     0.013082
      dx2y2   :     0.028827
      dxy     :     0.012463
      f0      :     0.000901  f :     0.007639
      f+1     :     0.001109
      f-1     :     0.001284
      f+2     :     0.001413
      f-2     :     0.000919
      f+3     :     0.000943
      f-3     :     0.001070

 43 H s       :     0.820834  s :     0.820834
      pz      :     0.012038  p :     0.020154
      px      :     0.004508
      py      :     0.003609

 44 H s       :     0.836324  s :     0.836324
      pz      :     0.003723  p :     0.020200
      px      :     0.012820
      py      :     0.003656

 45 H s       :     0.820038  s :     0.820038
      pz      :     0.004616  p :     0.020960
      px      :     0.004389
      py      :     0.011955

 46 H s       :     0.575814  s :     0.575814
      pz      :     0.012727  p :     0.046515
      px      :     0.013707
      py      :     0.020081



                     *******************************
                     * LOEWDIN POPULATION ANALYSIS *
                     *******************************

----------------------
LOEWDIN ATOMIC CHARGES
----------------------
   0 N :    0.210436
   1 N :    0.209659
   2 N :    0.168648
   3 N :    0.164157
   4 C :   -0.198279
   5 C :   -0.197548
   6 C :   -0.198089
   7 C :   -0.197589
   8 C :   -0.209474
   9 C :   -0.206606
  10 C :   -0.208434
  11 C :   -0.206865
  12 C :   -0.224261
  13 C :   -0.221450
  14 C :   -0.223564
  15 C :   -0.222856
  16 C :   -0.133257
  17 C :   -0.131836
  18 C :   -0.133358
  19 C :   -0.132560
  20 C :   -0.140310
  21 C :   -0.139665
  22 C :   -0.141659
  23 C :   -0.141131
  24 H :    0.147597
  25 H :    0.149818
  26 H :    0.147643
  27 H :    0.150583
  28 H :    0.150541
  29 H :    0.147118
  30 H :    0.150361
  31 H :    0.147608
  32 H :    0.164877
  33 H :    0.165117
  34 H :    0.164845
  35 H :    0.164993
  36 H :    0.144253
  37 H :    0.144275
  38 H :    0.144055
  39 H :    0.144098
  40 Mg:    0.118939
  41 O :    0.050684
  42 C :   -0.317438
  43 H :    0.113376
  44 H :    0.118012
  45 H :    0.130781
  46 H :    0.213755

-------------------------------
LOEWDIN REDUCED ORBITAL CHARGES
-------------------------------
  0 N s       :     2.977349  s :     2.977349
      pz      :     1.105674  p :     3.577773
      px      :     1.352060
      py      :     1.120039
      dz2     :     0.016610  d :     0.215658
      dxz     :     0.010094
      dyz     :     0.049825
      dx2y2   :     0.064242
      dxy     :     0.074887
      f0      :     0.001122  f :     0.018784
      f+1     :     0.000781
      f-1     :     0.001791
      f+2     :     0.000337
      f-2     :     0.003495
      f+3     :     0.003883
      f-3     :     0.007376

  1 N s       :     2.976661  s :     2.976661
      pz      :     1.109714  p :     3.578824
      px      :     1.348206
      py      :     1.120904
      dz2     :     0.016498  d :     0.216028
      dxz     :     0.009935
      dyz     :     0.050210
      dx2y2   :     0.064523
      dxy     :     0.074861
      f0      :     0.001123  f :     0.018828
      f+1     :     0.000760
      f-1     :     0.001819
      f+2     :     0.000342
      f-2     :     0.003547
      f+3     :     0.003854
      f-3     :     0.007384

  2 N s       :     2.974022  s :     2.974022
      pz      :     1.206006  p :     3.635569
      px      :     1.103535
      py      :     1.326028
      dz2     :     0.016625  d :     0.203217
      dxz     :     0.044182
      dyz     :     0.011850
      dx2y2   :     0.061076
      dxy     :     0.069484
[...]
  0-1A  ->  1-1A    1.885034   15203.8   657.7   0.420354529   0.04368   0.00168   0.20893  -0.00513
  0-1A  ->  2-1A    2.440733   19685.8   508.0   0.107521974   0.01447  -0.12000   0.00153   0.00796
  0-1A  ->  3-1A    3.431299   27675.3   361.3   0.002041873   0.00039   0.01963  -0.00029   0.00096
  0-1A  ->  4-1A    3.485938   28116.0   355.7   0.867290978   0.16666  -0.40739   0.00351   0.02611
  0-1A  ->  5-1A    3.691649   29775.2   335.9   0.371385277   0.07558   0.27439  -0.00288  -0.01664
  0-1A  ->  6-1A    3.979834   32099.5   311.5   0.957394433   0.21004  -0.00545  -0.45812   0.01145
  0-1A  ->  7-1A    4.126872   33285.5   300.4   0.000171254   0.00004  -0.00048  -0.00144   0.00605
  0-1A  ->  8-1A    4.272175   34457.4   290.2   0.000119048   0.00003   0.00192   0.00489   0.00070
  0-1A  ->  9-1A    4.283161   34546.0   289.5   0.003294006   0.00078  -0.01353   0.02438   0.00050
  0-1A  -> 10-1A    4.517130   36433.1   274.5   0.000046046   0.00001  -0.00080  -0.00248  -0.00217
  0-1A  -> 11-1A    4.717788   38051.5   262.8   0.000576385   0.00015   0.00398  -0.00217   0.01137
  0-1A  -> 12-1A    4.724508   38105.7   262.4   0.000024897   0.00001  -0.00158   0.00033   0.00197
  0-1A  -> 13-1A    4.952415   39943.9   250.4   0.001526284   0.00042   0.00743   0.00331   0.01872
  0-1A  -> 14-1A    4.996757   40301.6   248.1   0.001285485   0.00035   0.00171  -0.00755   0.01715
  0-1A  -> 15-1A    5.054960   40771.0   245.3   0.000046322   0.00001   0.00186   0.00146  -0.00271
  0-1A  -> 16-1A    5.120723   41301.4   242.1   0.019459871   0.00549   0.00105  -0.07403  -0.00329
  0-1A  -> 17-1A    5.125102   41336.7   241.9   0.018961552   0.00536   0.00047   0.07284  -0.00712
  0-1A  -> 18-1A    5.140255   41459.0   241.2   0.000702263   0.00020   0.00003   0.01334  -0.00459
  0-1A  -> 19-1A    5.182416   41799.0   239.2   0.000762521   0.00022   0.00272   0.01433   0.00226
  0-1A  -> 20-1A    5.316021   42876.6   233.2   0.085249356   0.02498   0.00356  -0.15794   0.00472
  0-1A  -> 21-1A    5.397916   43537.1   229.7   0.000405821   0.00012  -0.00099   0.00675   0.00861
  0-1A  -> 22-1A    5.409934   43634.1   229.2   0.282867798   0.08436  -0.00696  -0.29032   0.00468
  0-1A  -> 23-1A    5.500506   44364.6   225.4   0.000131776   0.00004  -0.00140  -0.00431   0.00441
  0-1A  -> 24-1A    5.563915   44876.0   222.8   0.001635712   0.00050   0.00321  -0.01973   0.01010
  0-1A  -> 25-1A    5.566772   44899.0   222.7   0.007828790   0.00240   0.02042  -0.04283   0.01229
  0-1A  -> 26-1A    5.732794   46238.1   216.3   0.000026242   0.00001  -0.00249   0.00038  -0.00139
  0-1A  -> 27-1A    5.753150   46402.3   215.5   0.000035928   0.00001  -0.00124   0.00186   0.00253
  0-1A  -> 28-1A    5.764622   46494.8   215.1   0.003398116   0.00108   0.01173   0.03066  -0.00154
  0-1A  -> 29-1A    5.831612   47035.1   212.6   0.037571112   0.01208  -0.10981   0.00215   0.00378
  0-1A  -> 30-1A    5.877890   47408.4   210.9   0.000106518   0.00003   0.00081   0.00035  -0.00581

------------------------------------------------------------------------------------------
                     CD SPECTRUM VIA TRANSITION ELECTRIC DIPOLE MOMENTS    
------------------------------------------------------------------------------------------
     Transition      Energy     Energy  Wavelength    R        MX        MY        MZ   
                      (eV)      (cm-1)    (nm)   (1e40*cgs)   (au)      (au)      (au)  
------------------------------------------------------------------------------------------
  0-1A  ->  1-1A    1.885034   15203.8   657.7   12.93186   0.05558   0.00874   0.00313
  0-1A  ->  2-1A    2.440733   19685.8   508.0    4.57964  -0.00761   0.03839  -0.01308
  0-1A  ->  3-1A    3.431299   27675.3   361.3    1.42147   0.01188  -0.00091   0.16202
  0-1A  ->  4-1A    3.485938   28116.0   355.7   32.12482  -0.01868   0.11166   0.02597
  0-1A  ->  5-1A    3.691649   29775.2   335.9   19.60403   0.01886  -0.10684  -0.00917
  0-1A  ->  6-1A    3.979834   32099.5   311.5    4.58093  -0.14711  -0.00156  -0.00830
  0-1A  ->  7-1A    4.126872   33285.5   300.4  -16.34010  -0.05690  -0.01958  -0.91872
  0-1A  ->  8-1A    4.272175   34457.4   290.2   -0.52134  -0.01168  -0.00534  -0.14825
  0-1A  ->  9-1A    4.283161   34546.0   289.5  -19.86365   0.00412  -0.27197   0.00845
  0-1A  -> 10-1A    4.517130   36433.1   274.5    0.12491  -0.00575  -0.00258  -0.01437
  0-1A  -> 11-1A    4.717788   38051.5   262.8  -35.30864  -0.06797  -0.02231  -1.11739
  0-1A  -> 12-1A    4.724508   38105.7   262.4   -1.70350  -0.02737  -0.01265  -0.37112
  0-1A  -> 13-1A    4.952415   39943.9   250.4    3.65684   0.00443  -0.00285   0.08026
  0-1A  -> 14-1A    4.996757   40301.6   248.1   -0.24159   0.03350  -0.00729  -0.01325
  0-1A  -> 15-1A    5.054960   40771.0   245.3   -0.04085  -0.00110  -0.00364   0.00381
  0-1A  -> 16-1A    5.120723   41301.4   242.1    0.15101  -0.03173  -0.00122   0.00140
  0-1A  -> 17-1A    5.125102   41336.7   241.9    0.76137   0.03202   0.00412   0.00223
  0-1A  -> 18-1A    5.140255   41459.0   241.2    0.81173  -0.01893   0.00134  -0.05724
  0-1A  -> 19-1A    5.182416   41799.0   239.2   -0.85925  -0.00783  -0.02884   0.04120
  0-1A  -> 20-1A    5.316021   42876.6   233.2    3.26087  -0.00470  -0.00880  -0.00606
  0-1A  -> 21-1A    5.397916   43537.1   229.7    4.55925  -0.00014   0.02431   0.20552
  0-1A  -> 22-1A    5.409934   43634.1   229.2  -12.87162  -0.06269   0.01991  -0.00766
  0-1A  -> 23-1A    5.500506   44364.6   225.4   -0.00195   0.01916  -0.00451   0.00224
  0-1A  -> 24-1A    5.563915   44876.0   222.8   -5.02799  -0.00729   0.08448  -0.03215
  0-1A  -> 25-1A    5.566772   44899.0   222.7    8.23927  -0.00949  -0.08255   0.01756
  0-1A  -> 26-1A    5.732794   46238.1   216.3   -0.11767   0.02233   0.03261   0.00480
  0-1A  -> 27-1A    5.753150   46402.3   215.5    0.27094  -0.03055   0.07296   0.02044
  0-1A  -> 28-1A    5.764622   46494.8   215.1    5.41023   0.21041  -0.00009  -0.01206
  0-1A  -> 29-1A    5.831612   47035.1   212.6   -4.10858   0.01790   0.00841   0.00744
  0-1A  -> 30-1A    5.877890   47408.4   210.9    0.38721   0.09590   0.13218  -0.00089

------------------------------------------------------------------------------------------
                     CD SPECTRUM VIA TRANSITION VELOCITY DIPOLE MOMENTS    
------------------------------------------------------------------------------------------
     Transition      Energy     Energy  Wavelength    R        MX        MY        MZ   
                      (eV)      (cm-1)    (nm)   (1e40*cgs)   (au)      (au)      (au)  
------------------------------------------------------------------------------------------
  0-1A  ->  1-1A    1.885034   15203.8   657.7   12.94749   0.05558   0.00874   0.00313
  0-1A  ->  2-1A    2.440733   19685.8   508.0    4.56253  -0.00761   0.03839  -0.01308
  0-1A  ->  3-1A    3.431299   27675.3   361.3    1.45385   0.01188  -0.00091   0.16202
  0-1A  ->  4-1A    3.485938   28116.0   355.7   31.94404  -0.01868   0.11166   0.02597
  0-1A  ->  5-1A    3.691649   29775.2   335.9   19.58514   0.01886  -0.10684  -0.00917
  0-1A  ->  6-1A    3.979834   32099.5   311.5    4.58113  -0.14711  -0.00156  -0.00830
  0-1A  ->  7-1A    4.126872   33285.5   300.4  -17.11573  -0.05690  -0.01958  -0.91872
  0-1A  ->  8-1A    4.272175   34457.4   290.2   -0.45685  -0.01168  -0.00534  -0.14825
  0-1A  ->  9-1A    4.283161   34546.0   289.5  -20.01285   0.00412  -0.27197   0.00845
  0-1A  -> 10-1A    4.517130   36433.1   274.5    0.11960  -0.00575  -0.00258  -0.01437
  0-1A  -> 11-1A    4.717788   38051.5   262.8  -35.15792  -0.06797  -0.02231  -1.11739
  0-1A  -> 12-1A    4.724508   38105.7   262.4   -1.88012  -0.02737  -0.01265  -0.37112
  0-1A  -> 13-1A    4.952415   39943.9   250.4    3.95360   0.00443  -0.00285   0.08026
  0-1A  -> 14-1A    4.996757   40301.6   248.1   -0.29486   0.03350  -0.00729  -0.01325
  0-1A  -> 15-1A    5.054960   40771.0   245.3   -0.04488  -0.00110  -0.00364   0.00381
  0-1A  -> 16-1A    5.120723   41301.4   242.1    0.13149  -0.03173  -0.00122   0.00140
  0-1A  -> 17-1A    5.125102   41336.7   241.9    0.74838   0.03202   0.00412   0.00223
  0-1A  -> 18-1A    5.140255   41459.0   241.2    0.69925  -0.01893   0.00134  -0.05724
  0-1A  -> 19-1A    5.182416   41799.0   239.2   -0.84506  -0.00783  -0.02884   0.04120
  0-1A  -> 20-1A    5.316021   42876.6   233.2    3.24392  -0.00470  -0.00880  -0.00606
  0-1A  -> 21-1A    5.397916   43537.1   229.7    4.59802  -0.00014   0.02431   0.20552
  0-1A  -> 22-1A    5.409934   43634.1   229.2  -12.75470  -0.06269   0.01991  -0.00766
  0-1A  -> 23-1A    5.500506   44364.6   225.4    0.00571   0.01916  -0.00451   0.00224
  0-1A  -> 24-1A    5.563915   44876.0   222.8   -4.64633  -0.00729   0.08448  -0.03215
  0-1A  -> 25-1A    5.566772   44899.0   222.7    8.19881  -0.00949  -0.08255   0.01756
  0-1A  -> 26-1A    5.732794   46238.1   216.3   -0.11218   0.02233   0.03261   0.00480
  0-1A  -> 27-1A    5.753150   46402.3   215.5    0.50193  -0.03055   0.07296   0.02044
  0-1A  -> 28-1A    5.764622   46494.8   215.1    5.52573   0.21041  -0.00009  -0.01206
  0-1A  -> 29-1A    5.831612   47035.1   212.6   -4.22234   0.01790   0.00841   0.00744
  0-1A  -> 30-1A    5.877890   47408.4   210.9    0.28221   0.09590   0.13218  -0.00089

Total run time:    10887.017 sec

           *** ORCA-CIS/TD-DFT FINISHED WITHOUT ERROR ***
-----------------------
CIS/TD-DFT TOTAL ENERGY
-----------------------

    E(SCF)  =  -1305.768655218 Eh
    DE(CIS) =      0.069273738 Eh (Root  1)
    ----------------------------- ---------
    E(tot)  =  -1305.699381480 Eh


Maximum memory used throughout the entire CIS-calculation: 2679.6 MB
=> NOW LEAVING ORCA_CIS

-------------------------   --------------------
FINAL SINGLE POINT ENERGY     -1305.699381479591
-------------------------   --------------------



           ************************************************************
           *        Program running with 4 parallel MPI-processes     *
           *              working on a common directory               *
           ************************************************************

------------------------------------------------------------------------------
                              ORCA PROPERTY CALCULATIONS
------------------------------------------------------------------------------

GBWName                                 ... tddft.gbw
Number of atoms                         ...     47
Number of basis functions               ...    958
Max core memory                         ...   3000 MB

Electric properties:
Dipole moment                           ... YES
Quadrupole moment                       ...  NO
Static polarizability (Dipole/Dipole)   ...  NO
Static polarizability (Dipole/Quad.)    ...  NO
Static polarizability (Quad./Quad.)     ...  NO
Static polarizability (Velocity)        ...  NO
Static hyperpolarizability              ...  NO

Atomic electric properties:
Dipole moment                           ...  NO
Quadrupole moment                       ...  NO
Static polarizability                   ...  NO

Choice of electric origin               ... Center of mass
Position of electric origin             ...     0.080723     0.037241     0.572833

General magnetic properties:
Magnetizability                         ...  NO

EPR properties:
g-Tensor (aka g-matrix)                 ...  NO
Zero-Field splitting spin-orbit         ...  NO
Zero-field splitting spin-spin          ...  NO
Hyperfine couplings                     ...  NO (   0 nuclei)
Quadrupole couplings                    ...  NO (   0 nuclei)
Contact density                         ...  NO (   0 nuclei)

NMR properties:
Chemical shifts                         ...  NO (   0 nuclei)
Spin-rotation constants                 ...  NO (   0 nuclei)
Spin-spin couplings                     ...  NO (   0 nuclei,    0 pairs)

Choice of magnetic origin               ... GIAO
Position of magnetic origin             ...     0.000000     0.000000     0.000000

Properties with geometric perturbations:
SCF Hessian                             ...  NO
IR spectrum                             ...  NO
VCD spectrum                            ...  NO
X-ray spectroscopy properties:
SCF XES/XAS/RIXS spectra                ...  NO

SCF SOC stabilization energy            ...  NO
Diagonal Born-Oppenheimer correction    ...  NO

-------------
DIPOLE MOMENT
-------------

Method             : SCF
Type of density    : Electron Density
Multiplicity       :   1
Irrep              :   0
Energy             : -1305.7686552175553061 Eh
Basis              : AO
                                X                 Y                 Z
Electronic contribution:      1.600328161       1.485190786      -5.193237543
Nuclear contribution   :     -2.062435013      -1.335381725       6.629363071
                        -----------------------------------------
Total Dipole Moment    :     -0.462106852       0.149809061       1.436125528
                        -----------------------------------------
Magnitude (a.u.)       :      1.516061354
Magnitude (Debye)      :      3.853521719



--------------------
Rotational spectrum 
--------------------
 
Rotational constants in cm-1:             0.007897             0.007332             0.004249 
Rotational constants in MHz :           236.759888           219.807638           127.395342 

Dipole components along the rotational axes: 
x,y,z [a.u.] :    -0.570629    -0.130029     1.398541 
x,y,z [Debye]:    -1.450424    -0.330509     3.554809 

 

Dipole moment calculation done in   0.1 sec 

Maximum memory used throughout the entire PROP-calculation: 109.7 MB

--------------------------------
SUGGESTED CITATIONS FOR THIS RUN
--------------------------------

Below you find a list of papers that are relevant to this ORCA run
We neither can nor want to force you to cite these papers, but we appreciate if you do
You receive ORCA, which is the product of decades of hard work by many enthusiastic individuals, for free
The only thing we kindly ask in return is that you cite our papers,
We deeply appreciate it, if you show your appreciation for ORCA by not just citing the generic ORCA reference.

Please note that relegating all ORCA citations to the supporting information does *not* help us.
SI sections are not indexed - citations you put there will not count into any citation statistics
But we need these citations in order to attract the funding resources that allow us to do what we are doing

Therefore, if you are a happy ORCA user, please consider citing a few of the papers listed below in the main body of your paper

In addition to the list printed below, the program has created the file tddft.bibtex that contains the list in bibtex format
You can import this file easily into all common literature databanks and citation aid programs

It goes without saying that in many instances, there are alternative algorithms to achieve similar
results as the ones you have gotten from ORCA. It is, of course, also the case that in some instances
ORCA just re-implements algorithms worked out by others. We are fully aware of that and we are also
fully appreciative of our colleagues work. Hence this citation list should not be read as indicating
that the listed papers, which are focused on our own work, are the only ones worth citing. It simply
meant to make it easier for users to cite ORCA specific papers. It is not a substitute for doing your
own literature research and citing the relevant literature in a scientifically appropriate manner.

List of essential papers. We consider these as the minimum necessary citations

  1. Neese, F.
     Software update: the ORCA program system, version 6.0
     WIRES Comput. Molec. Sci. 2025 15(1), e70019
     doi.org/10.1002/wcms.70019

List of papers to cite with high priority. The work reported in these papers was absolutely
necessary for this run to complete.
Our perspective: the developers of density functionals and basis sets usually get cited in chemistry papers
Good! But without the algorithms to do something with them, the functionals or basis sets would not do anything.
Hence, in our opinion, the algorithm design and method developments papers are equally worthy of getting cited

  1. Neese, F.; Olbrich, G.
     Efficient use of the resolution of the identity approximation in time-dependent density functional calculations with hybrid density functionals
     Chem. Phys. Lett. 2002 362 , 170-178
     doi.org/10.1016/s0009-2614(02)01053-9
  2. Neese, F.
     An improvement of the resolution of the identity approximation for the formation of the Coulomb matrix
     J. Comp. Chem. 2003 24(14), 1740-1747
     doi.org/10.1002/jcc.10318
  3. Neese, F.; Wennmohs, F.; Hansen, A.; Becker, U.
     Efficient, approximate and parallel Hartree-Fock and hybrid DFT calculations. A 'chain-of-spheres' algorithm for the Hartree-Fock exchange
     Chem. Phys. 2009 356(1-3), 98-109
     doi.org/10.1016/j.chemphys.2008.10.036
  4. Garcia-Rates, M.; Neese, F.
     Effect of the Solute Cavity on the Solvation Energy and its Derivatives within the Framework of the Gaussian Charge Scheme
     J. Comput. Chem. 2020 41 , 922-939
     doi.org/10.1002/jcc.26139
  5. Helmich-Paris, B.; de Souza, B.; Neese, F.; Izsák, R.
     An improved chain of spheres for exchange algorithm
     J. Chem. Phys. 2021 155(10), 104109
     doi.org/10.1063/5.0058766
  6. Neese, F.
     The SHARK Integral Generation and Digestion System
     J. Comp. Chem. 2022 44(3), 381
     doi.org/10.1002/jcc.26942

List of suggested additional citations. These are papers that are important in the 'surrounding' of 
of this run, or papers that preceded the highly important papers. If you like your results we are grateful for a citation.

  1. Izsak, R.; Neese, F.
     An overlap fitted chain of spheres exchange method
     J. Chem. Phys. 2011 135 , 144105
     doi.org/10.1063/1.3646921
  2. Izsak, R.; Hansen, A.; Neese, F.
     The resolution of identity and chain of spheres approximations for the LPNO-CCSD singles Fock term
     Molec. Phys. 2012 110 , 2413-2417
     doi.org/10.1080/00268976.2012.687466
  3. Neese, F.
     The ORCA program system
     WIRES Comput. Molec. Sci. 2012 2(1), 73-78
     doi.org/10.1002/wcms.81
  4. Izsak, R.; Neese, F.; Klopper, W.
     Robust fitting techniques in the chain of spheres approximation to the Fock exchange: The role of the complementary space
     J. Chem. Phys. 2013 139 , 
     doi.org/10.1063/1.4819264
  5. Neese, F.
     Software update: the ORCA program system, version 4.0
     WIRES Comput. Molec. Sci. 2018 8(1), 1-6
     doi.org/10.1002/wcms.1327
  6. Neese, F.; Wennmohs, F.; Becker, U.; Riplinger, C.
     The ORCA quantum chemistry program package
     J. Chem. Phys. 2020 152(22), 224108
     doi.org/10.1063/5.0004608
  7. Neese, F.
     Software update: The ORCA program system—Version 5.0
     WIRES Comput. Molec. Sci. 2022 12(1), e1606
     doi.org/10.1002/wcms.1606

List of optional additional citations

  1. Neese, F.
     Approximate second-order SCF convergence for spin unrestricted wavefunctions
     Chem. Phys. Lett. 2000 325(1-3), 93-98
     doi.org/10.1016/s0009-2614(00)00662-x

Timings for individual modules:

Sum of individual times          ...    12194.794 sec (= 203.247 min)
Startup calculation              ...       20.317 sec (=   0.339 min)   0.2 %
SCF iterations                   ...     1284.184 sec (=  21.403 min)  10.5 %
Property integrals               ...        1.884 sec (=   0.031 min)   0.0 %
Property calculations            ...        0.828 sec (=   0.014 min)   0.0 %
CIS module                       ...    10887.582 sec (= 181.460 min)  89.3 %
                             ****ORCA TERMINATED NORMALLY****
TOTAL RUN TIME: 0 days 3 hours 23 minutes 15 seconds 231 msec
