
                                 *****************
                                 * O   R   C   A *
                                 *****************

                                            #,                                       
                                            ###                                      
                                            ####                                     
                                            #####                                    
                                            ######                                   
                                           ########,                                 
                                     ,,################,,,,,                         
                               ,,#################################,,                 
                          ,,##########################################,,             
                       ,#########################################, ''#####,          
                    ,#############################################,,   '####,        
                  ,##################################################,,,,####,       
                ,###########''''           ''''###############################       
              ,#####''   ,,,,##########,,,,          '''####'''          '####       
            ,##' ,,,,###########################,,,                        '##       
           ' ,,###''''                  '''############,,,                           
         ,,##''                                '''############,,,,        ,,,,,,###''
      ,#''                                            '''#######################'''  
     '                                                          ''''####''''         
             ,#######,   #######,   ,#######,      ##                                
            ,#'     '#,  ##    ##  ,#'     '#,    #''#        ,####,    ,#,          
            ##       ##  ##   ,#'  ##            #'  '#       #'       ,# #          
            ##       ##  #######   ##           ,######,      #####,      #          
            '#,     ,#'  ##    ##  '#,     ,#' ,#      #,     #,   #      #          
             '#######'   ##     ##  '#######'  #'      '#     '####' #    #          



                #########################################################
                #                        -***-                          #
                #          Department of theory and spectroscopy        #
                #                                                       #
                #                      Frank Neese                      #
                #                                                       #
                #     Directorship, Architecture, Infrastructure        #
                #                    SHARK, DRIVERS                     #
                #        Core code/Algorithms in most modules           #
                #                                                       #
                #        Max Planck Institute fuer Kohlenforschung      #
                #                Kaiser Wilhelm Platz 1                 #
                #                 D-45470 Muelheim/Ruhr                 #
                #                      Germany                          #
                #                                                       #
                #                  All rights reserved                  #
                #                        -***-                          #
                #########################################################


                         Program Version 6.1.1  -  RELEASE   -
                                (GIT: $487d211c$)
                          ($2025-11-21 10:33:24 +0100$)


 With contributions from (in alphabetic order):
[Max-Planck-Institut fuer Kohlenforschung]                               
  Daniel Aravena         : Magnetic Suceptibility                        
  Michael Atanasov       : Ab Initio Ligand Field Theory (pilot matlab implementation)
  Alexander A. Auer      : GIAO ZORA, VPT2 properties, NMR spectrum      
  Ute Becker             : All parallelization in ORCA, NUMFREQ, NUMCALC 
  Giovanni Bistoni       : ED, misc. LED, open-shell LED, HFLD           
  Dmytro Bykov           : pre 5.0 version of the SCF Hessian            
  Marcos Casanova-Páez   : Triplet and SCS-CIS(D). UHF-(DLPNO)-IP/EA/STEOM-CCSD. UHF-CVS-IP/STEOM-CCSD   
  Vijay G. Chilkuri      : MRCI spin determinant printing, contributions to CSF-ICE 
  Pauline Colinet        : FMM embedding                                 
  Dipayan Datta          : RHF DLPNO-CCSD density                        
  Achintya Kumar Dutta   : EOM-CC, STEOM-CC                              
  Nicolas Foglia         : Exact transition moments, OPA infrastructure, MCD improvements    
  Dmitry Ganyushin       : Spin-Orbit,Spin-Spin,Magnetic field MRCI      
  Miquel Garcia-Rates    : C-PCM and meta-GGA Hessian, CCSD/C-PCM, Gaussian charge scheme 
  Tiago L. C. Gouveia    : GS-ROHF, GS-ROCIS                             
  Yang Guo               : DLPNO-NEVPT2, F12-NEVPT2, CIM, IAO-localization        
  Andreas Hansen         : Spin unrestricted coupled pair/coupled cluster methods 
  Ingolf Harden          : AUTO-CI MPn and infrastructure                
  Benjamin Helmich-Paris : MC-RPA, TRAH-(SCF,CASSCF), AVAS, COSX integrals, SCF dyn. polar., MC-PDFT, srDFT 
  Lee Huntington         : MR-EOM, pCC                                   
  Robert Izsak           : Overlap fitted RIJCOSX, COSX-SCS-MP3, EOM     
  Riya Kayal             : Wick's Theorem for AUTO-CI, AUTO-CI UHF-CCSDT 
  Emily Kempfer          : AUTO-CI RHF CISDT and CCSDT, approximate NEVPT4
  Christian Kollmar      : KDIIS, OOCD, Brueckner-CCSD(T), CCSD density, CASPT2, CASPT2-K, improved NEVPT2 
  Axel Koslowski         : Symmetry handling                             
  Simone Kossmann        : meta-GGA functionals, TD-DFT gradient, OOMP2, (MP2 Hessian; deprecated post 5.0) 
  Lucas Lang             : DCDCAS, Hyperfine gauge corrections, ICE-SOC+SSC
  Marvin Lechner         : AUTO-CI (C++ implementation), FIC-MRCC        
  Spencer Leger          : CASSCF response                               
  Dagmar Lenk            : GEPOL surface, SMD, ORCA-2-JSON               
  Dimitrios Liakos       : Extrapolation schemes; Compound Job, Property file
  Dimitrios Manganas     : Further ROCIS development; embedding schemes. LFT, Crystal Embedding 
  Dimitrios Pantazis     : SARC Basis sets                               
  Anastasios Papadopoulos: AUTO-CI, single reference methods and gradients 
  Taras Petrenko         : pre 6.0 DFT Hessian and TD-DFT gradient,  ECA, NRVS 
  Petra Pikulova         : Analytic Raman intensities                    
  Peter Pinski           : DLPNO-MP2, DLPNO-MP2 Gradient                 
  Shashank Vittal Rao    : ES-AILFT, MagRelax                            
  Christoph Reimann      : Effective Core Potentials                     
  Marius Retegan         : Local ZFS, SOC                                
  Christoph Riplinger    : Optimizer, TS searches, QM/MM, DLPNO-CCSD(T), (RO)-DLPNO pert. Triples 
  Michael Roemelt        : Original ROCIS implementation, recursive CI coupling coefficients
  Masaaki Saitow         : Open-shell DLPNO-CCSD energy and density      
  Barbara Sandhoefer     : DKH picture change effects                    
  Yorick L. A. Schmerwitz: GMF and freeze-and-release deltaSCF, NEB S-IDPP initial path                    
  Kantharuban Sivalingam : CASSCF convergence/infrastructure, NEVPT2, NEVPT3, NEVPT4(SD), FIC-MRCI and CEPA variants
  Bernardo de Souza      : ESD, SOC TD-DFT                               
  Georgi L. Stoychev     : AutoAux, RI-MP2 NMR, DLPNO-MP2 response, X2C  
  Van Anh Tran           : RI-MP2 g-tensors                              
  Willem Van den Heuvel  : Paramagnetic NMR                              
  Zikuan Wang            : NOTCH, Electric field optimization            
  Frank Wennmohs         : Technical directorship and infrastructure     
  Hang Xu                : AUTO-CI-Response properties                   
                                                                         
[FACCTs GmbH]                                                            
  Markus Bursch, Nicolas Foglia, Miquel Garcia-Rates, Ingolf Harden, Hagen Neugebauer, Anastasios Papadopoulos, 
  Christoph Riplinger, Bernardo de Souza, Georgi L. Stoychev                                                    
                                                                 
  APM, various basis sets, CI-OPT, improved COSX, DLPNO-Multilevel,           
  DOCKER, DRACO, updates on ESD, Fragmentator, GOAT, IRC, LR-CPCM, L-BFGS, MBIS, meta-GGA TD-DFT gradient, ML-optimized integration grids, 
  MM, NACMEs, nearIR, NEB, NEB-TS, NL-DFT gradient (VV10), 2- and 3-layer-ONIOM, interface openCOSMO-RS, QMMM,   
  Crystal-QMMM, RESP, rigid body optimization, SF, symmetry and pop. for TD-DFT, various functionals, SOLVATOR                                   
                                                                         
[Other institutions]                                                     
  V. Asgeirsson          : NEB                                           
  Christoph Bannwarth    : sTDA-DFT, sTD-DFT, PBEh-3c, B97-3c, D3        
  Giovanni Bistoni       : ETS/NOCV, ADLD/ADEX, COVALED                  
  Martin Brehm           : Molecular dynamics                            
  Ronald Cardenas        : ETS/NOCV                                      
  Martina Colucci        : COVALED                                       
  Sebastian Ehlert       : rSCAN, r2SCAN, r2SCAN-3c, D4, dhf basis sets  
  Marvin Friede          : D4 for Fr, Ra, Ac-Lr                          
  Lars Goerigk           : TD-DFT with DH, B97 family of functionals     
  Stefan Grimme          : VdW corrections, initial TS optimization, DFT functionals, gCP, sTDA/sTD-DF 
  Waldemar Hujo          : DFT-NL                                        
  H. Jonsson             : NEB                                           
  Holger Kruse           : gCP                                           
  Marcel Mueller         : wB97X-3c, vDZP basis set                      
  Hagen Neugebauer       : wr2SCAN, Native XTB                           
  Gianluca Regni         : ADLD/ADEX                                     
  Tobias Risthaus        : pre 6.0 range-separated hybrid DFT and stability analysis
  Lukas Wittmann         : regularized MP2, r2SCAN double-hybrids, wr2SCAN        
                                                                         
We gratefully acknowledge several colleagues who have allowed us to      
interface, adapt or use parts of their codes:                            
  Ed Valeev, F. Pavosevic, A. Kumar             : LibInt (2-el integral package), F12 methods 
  Garnet Chan, S. Sharma, J. Yang, R. Olivares  : DMRG                   
  Ulf Ekstrom                                   : XCFun DFT Library      
  Mihaly Kallay                                 : mrcc  (arbitrary order and MRCC methods)
  Frank Weinhold                                : gennbo (NPA and NBO analysis)           
  Simon Mueller                                 : openCOSMO-RS                            
  Christopher J. Cramer and Donald G. Truhlar   : smd solvation model                     
  S Lehtola, MJT Oliveira, MAL Marques          : LibXC Library                           
  Liviu Ungur et al                             : ANISO software                          


 Your calculation uses the libint2 library for the computation of 2-el integrals
 For citations please refer to: http://libint.valeyev.net

 Your ORCA version has been built with support for libXC version: 7.0.0
 For citations please refer to: https://libxc.gitlab.io

 This ORCA versions uses:
   CBLAS   interface :  Fast vector & matrix operations
   LAPACKE interface :  Fast linear algebra routines
   SCALAPACK package :  Parallel linear algebra routines
   Shared memory     :  Shared parallel matrices
   BLAS/LAPACK       :  OpenBLAS 0.3.29  USE64BITINT DYNAMIC_ARCH NO_AFFINITY Haswell SINGLE_THREADED
        Core in use  :  Haswell
   Copyright (c) 2011-2014, The OpenBLAS Project


  ***********************************
  * Starting time: Tue Jul  7 19:47:10 2026
  * Host name:     steezy
  * Process ID:    1593010
  * Working dir.:  /home/jannes/chlorophyll-ladder/008-mgbacteriochlorin-axial-ligation/mgbacteriochlorin_h2o/03_tddft_ch2cl2/camb3lyp
  ***********************************

NOTE: MaxCore=3000 MB was set to SCF,MP2,MDCI,CIPSI,MRCI,RASCI and CIS
      => If you want to overwrite this, your respective input block should be placed after the MaxCore statement


***************************************
The coordinates will be read from file: /home/jannes/chlorophyll-ladder/008-mgbacteriochlorin-axial-ligation/mgbacteriochlorin_h2o/01_opt/mgbacteriochlorin_h2o_opt_b3lypd4_tzvp.xyz
***************************************


XCFun DFT library Copyright 2009-2010 Ulf Ekstrom and contributors.
See http://admol.org/xcfun for more information.
This is free software; see the source code for copying conditions.
There is ABSOLUTELY NO WARRANTY; not even for MERCHANTABILITY or FITNESS FOR A PARTICULAR PURPOSE.
For details see the documentation.
Scientific users of this library should cite U. Ekstrom, L. Visscher, R. Bast, A. J. Thorvaldsen and K. Ruud;
J.Chem.Theor.Comp. 2010, DOI: 10.1021/ct100117s
XCFun Version 0.99 

================================================================================

----- Orbital basis set information -----
Your calculation utilizes the basis: def2-TZVP
   F. Weigend and R. Ahlrichs, Phys. Chem. Chem. Phys. 7, 3297 (2005).

----- AuxJ basis set information -----
Your calculation utilizes the auxiliary basis: def2/J
   H-Rn: F. Weigend, Phys. Chem. Chem. Phys. 8, 1057 (2006).
   Fr-Lr: K. Eichkorn, F. Weigend, O. Treutler, R. Ahlrichs; Theor. Chem. Acc. 97, 119 (1997).

================================================================================
                                        WARNINGS
                       Please study these warnings very carefully!
================================================================================


WARNING: CIS/ROCIS methods need fully converged wavefunctions
  ===> : Setting SCFConvForced true
         You can overwrite this default with %scf ConvForced false 


================================================================================
                                       INPUT FILE
================================================================================
NAME = tddft.inp
|  1> %pal nprocs 4 end
|  2> %maxcore 3000
|  3> ! CAM-B3LYP def2-TZVP def2/J RIJCOSX DefGrid3 TightSCF CPCM(CH2Cl2)
|  4> %tddft
|  5>   nroots 30
|  6>   tda false
|  7>   triplets false
|  8> end
|  9> * xyzfile 0 1 /home/jannes/chlorophyll-ladder/008-mgbacteriochlorin-axial-ligation/mgbacteriochlorin_h2o/01_opt/mgbacteriochlorin_h2o_opt_b3lypd4_tzvp.xyz
| 10> 
| 11>                          ****END OF INPUT****
================================================================================

                       ****************************
                       * Single Point Calculation *
                       ****************************

---------------------------------
CARTESIAN COORDINATES (ANGSTROEM)
---------------------------------
  N     -2.156179    0.006114    0.036878
  N      2.102580   -0.004526    0.102992
  N     -0.032041   -2.040000    0.093616
  N     -0.018741    2.039836    0.083219
  C     -4.393036   -0.746615   -0.166870
  C      4.344044   -0.771023    0.178652
  C     -4.396683    0.774170    0.045307
  C      4.343804    0.743748   -0.070389
  C     -2.923497   -1.105288   -0.039037
  C      2.866903   -1.121763    0.137973
  C     -2.919147    1.121999    0.041477
  C      2.872913    1.105503    0.034517
  C     -1.133006   -2.850018    0.024587
  C      1.065546   -2.857221    0.116587
  C     -1.117205    2.855485    0.060628
  C      1.082524    2.850275    0.041163
  C     -2.460552   -2.404500   -0.034933
  C      2.397316   -2.418293    0.158356
  C     -2.448219    2.419005    0.059809
  C      2.411636    2.405893    0.022346
  C     -0.719897   -4.221529    0.011968
  C      0.646521   -4.226206    0.072013
  C     -0.697606    4.225313    0.015128
  C      0.669055    4.222145    0.001449
  H     -4.759027   -1.019902   -1.160331
  H     -5.005958   -1.284365    0.557426
  H      4.761766   -1.022683    1.157974
  H      4.915452   -1.329919   -0.562975
  H     -4.942672    1.315486   -0.728128
  H     -4.842336    1.051574    1.004576
  H      4.954192    1.300480    0.641562
  H      4.714943    0.989813   -1.069247
  H     -3.213681   -3.181014   -0.098020
  H      3.148300   -3.199118    0.182678
  H     -3.198630    3.200610    0.053346
  H      3.166310    3.181733   -0.029250
  H     -1.384098   -5.070165   -0.043494
  H      1.307513   -5.079195    0.074080
  H     -1.359495    5.077053   -0.013993
  H      1.334322    5.070706   -0.041147
  Mg    -0.040363    0.003360    0.290590
  O      0.028812   -0.090701    2.428612
  H      0.570655    0.585984    2.851620
  H      0.372811   -0.949552    2.705244

----------------------------
CARTESIAN COORDINATES (A.U.)
----------------------------
  NO LB      ZA    FRAG     MASS         X           Y           Z
   0 N     7.0000    0    14.007   -4.074588    0.011554    0.069689
   1 N     7.0000    0    14.007    3.973300   -0.008554    0.194628
   2 N     7.0000    0    14.007   -0.060548   -3.855042    0.176908
   3 N     7.0000    0    14.007   -0.035416    3.854732    0.157261
   4 C     6.0000    0    12.011   -8.301635   -1.410897   -0.315338
   5 C     6.0000    0    12.011    8.209054   -1.457022    0.337604
   6 C     6.0000    0    12.011   -8.308527    1.462969    0.085618
   7 C     6.0000    0    12.011    8.208601    1.405479   -0.133016
   8 C     6.0000    0    12.011   -5.524610   -2.088692   -0.073769
   9 C     6.0000    0    12.011    5.417661   -2.119826    0.260732
  10 C     6.0000    0    12.011   -5.516389    2.120272    0.078381
  11 C     6.0000    0    12.011    5.429018    2.089098    0.065227
  12 C     6.0000    0    12.011   -2.141070   -5.385753    0.046463
  13 C     6.0000    0    12.011    2.013591   -5.399366    0.220317
  14 C     6.0000    0    12.011   -2.111211    5.396084    0.114570
  15 C     6.0000    0    12.011    2.045674    5.386240    0.077788
  16 C     6.0000    0    12.011   -4.649769   -4.543847   -0.066014
  17 C     6.0000    0    12.011    4.530270   -4.569911    0.299249
  18 C     6.0000    0    12.011   -4.626464    4.571257    0.113022
  19 C     6.0000    0    12.011    4.557331    4.546479    0.042228
  20 C     6.0000    0    12.011   -1.360407   -7.977534    0.022616
  21 C     6.0000    0    12.011    1.221748   -7.986372    0.136085
  22 C     6.0000    0    12.011   -1.318284    7.984684    0.028587
  23 C     6.0000    0    12.011    1.264331    7.978698    0.002737
  24 H     1.0000    0     1.008   -8.993258   -1.927336   -2.192707
  25 H     1.0000    0     1.008   -9.459889   -2.427098    1.053383
  26 H     1.0000    0     1.008    8.998434   -1.932590    2.188254
  27 H     1.0000    0     1.008    9.288858   -2.513182   -1.063869
  28 H     1.0000    0     1.008   -9.340296    2.485908   -1.375963
  29 H     1.0000    0     1.008   -9.150688    1.987186    1.898373
  30 H     1.0000    0     1.008    9.362067    2.457550    1.212376
  31 H     1.0000    0     1.008    8.909951    1.870475   -2.020583
  32 H     1.0000    0     1.008   -6.072977   -6.011245   -0.185232
  33 H     1.0000    0     1.008    5.949425   -6.045457    0.345212
  34 H     1.0000    0     1.008   -6.044536    6.048277    0.100809
  35 H     1.0000    0     1.008    5.983459    6.012604   -0.055274
  36 H     1.0000    0     1.008   -2.615566   -9.581222   -0.082191
  37 H     1.0000    0     1.008    2.470842   -9.598288    0.139991
  38 H     1.0000    0     1.008   -2.569074    9.594239   -0.026442
  39 H     1.0000    0     1.008    2.521504    9.582246   -0.077757
  40 Mg   12.0000    0    24.305   -0.076275    0.006349    0.549136
  41 O     8.0000    0    15.999    0.054446   -0.171401    4.589411
  42 H     1.0000    0     1.008    1.078383    1.107349    5.388782
  43 H     1.0000    0     1.008    0.704511   -1.794393    5.112171

--------------------------------
INTERNAL COORDINATES (ANGSTROEM)
--------------------------------
 N      0   0   0     0.000000000000     0.00000000     0.00000000
 N      1   0   0     4.259285829235     0.00000000     0.00000000
 N      2   1   0     2.949550369100    43.78457817     0.00000000
 N      2   1   3     2.946152376679    43.79838596   181.03669561
 C      1   2   3     2.368890537971   160.85438094   346.76925813
 C      2   1   3     2.370106324845   161.24635194   357.59335046
 C      5   1   2     1.535518542595    71.07386358   184.88469291
 C      6   2   1     1.535106411509    71.06808885   173.37883935
 C      1   2   3     1.352684496835   124.47205820   356.04317936
 C      2   1   3     1.354116544231   124.52989936   359.47985145
 C      1   2   3     1.351791916111   124.49621974   178.48738058
 C      2   1   3     1.352873575595   124.50645671   176.53011320
 C      3   2   1     1.368582006516   172.22153724    19.35498761
 C      3   2   1     1.368603548823    80.30628569   179.84920352
 C      4   2   1     1.368362098294   172.63267473   356.47709650
 C      4   2   1     1.367978468433    80.30841674   182.73698194
 C      9   1   2     1.379234208357   125.68919730     3.65507770
 C     10   2   1     1.379099740346   125.72217239   359.96022644
 C     11   1   2     1.379975901185   125.68221746     0.41613129
 C     12   2   1     1.379832763259   125.68670198     4.54099452
 C     13   3  14     1.432432135038   109.58081178     0.37123379
 C     21  13   3     1.367744202265   106.91809471   359.89479433
 C     15   4  16     1.433374681345   109.58339486   359.46208186
 C     23  15   4     1.366732810082   106.90721094     0.40366842
 H      5   1   2     1.093435256433   118.26984707   290.10139938
 H      5   1   2     1.090620064460   129.06674261    79.82521641
 H      6   2   1     1.094027077664   117.64966573   278.72183082
 H      6   2   1     1.090358882379   129.76699462    68.39427391
 H      7   5   1     1.090563856191   113.25301698   125.44994526
 H      7   5   1     1.093506087998   111.92751164   246.50090329
 H      8   6   2     1.090595237110   113.43627246   126.32484931
 H      8   6   2     1.093621602711   111.72423857   247.29927140
 H     17   9   1     1.083585621267   116.20429390   179.71961492
 H     18  10   2     1.083631421493   116.21724037   179.80230125
 H     19  11   1     1.083542978229   116.20300698   179.55103495
 H     20  12   2     1.083569967529   116.25523453   179.58467236
 H     21  13   3     1.079083581233   125.16490024   180.35946823
 H     22  21  13     1.079122759318   127.93158749   180.52927258
 H     23  15   4     1.079076840007   125.14351488   179.74624991
 H     24  23  15     1.079097217377   127.95509224   179.30511111
 Mg     4   2   1     2.047122040207    46.89198746     8.49657532
 O     41   4   2     2.141207087278    98.30876720    93.03965604
 H     42  41   4     0.964590073126   115.16428813   323.59763969
 H     42  41   4     0.965652962433   109.67138309   202.41045368

---------------------------
INTERNAL COORDINATES (A.U.)
---------------------------
 N      0   0   0     0.000000000000     0.00000000     0.00000000
 N      1   0   0     8.048883743346     0.00000000     0.00000000
 N      2   1   0     5.573842415805    43.78457817     0.00000000
 N      2   1   3     5.567421140724    43.79838596   181.03669561
 C      1   2   3     4.476554358002   160.85438094   346.76925813
 C      2   1   3     4.478851862231   161.24635194   357.59335046
 C      5   1   2     2.901709519062    71.07386358   184.88469291
 C      6   2   1     2.900930704179    71.06808885   173.37883935
 C      1   2   3     2.556203244620   124.47205820   356.04317936
 C      2   1   3     2.558909422008   124.52989936   359.47985145
 C      1   2   3     2.554516511499   124.49621974   178.48738058
 C      2   1   3     2.556560551694   124.50645671   176.53011320
 C      3   2   1     2.586245184128   172.22153724    19.35498761
 C      3   2   1     2.586285893188    80.30628569   179.84920352
 C      4   2   1     2.585829617813   172.63267473   356.47709650
 C      4   2   1     2.585104662439    80.30841674   182.73698194
 C      9   1   2     2.606374928330   125.68919730     3.65507770
 C     10   2   1     2.606120820617   125.72217239   359.96022644
 C     11   1   2     2.607776524652   125.68221746     0.41613129
 C     12   2   1     2.607506033171   125.68670198     4.54099452
 C     13   3  14     2.706904440650   109.58081178     0.37123379
 C     21  13   3     2.584661963539   106.91809471   359.89479433
 C     15   4  16     2.708685595039   109.58339486   359.46208186
 C     23  15   4     2.582750709299   106.90721094     0.40366842
 H      5   1   2     2.066293179833   118.26984707   290.10139938
 H      5   1   2     2.060973237989   129.06674261    79.82521641
 H      6   2   1     2.067411559879   117.64966573   278.72183082
 H      6   2   1     2.060479675386   129.76699462    68.39427391
 H      7   5   1     2.060867019754   113.25301698   125.44994526
 H      7   5   1     2.066427032092   111.92751164   246.50090329
 H      8   6   2     2.060926321097   113.43627246   126.32484931
 H      8   6   2     2.066645323265   111.72423857   247.29927140
 H     17   9   1     2.047680066850   116.20429390   179.71961492
 H     18  10   2     2.047766616733   116.21724037   179.80230125
 H     19  11   1     2.047599483185   116.20300698   179.55103495
 H     20  12   2     2.047650485571   116.25523453   179.58467236
 H     21  13   3     2.039172444141   125.16490024   180.35946823
 H     22  21  13     2.039246479993   127.93158749   180.52927258
 H     23  15   4     2.039159705070   125.14351488   179.74624991
 H     24  23  15     2.039198212719   127.95509224   179.30511111
 Mg     4   2   1     3.868500018706    46.89198746     8.49657532
 O     41   4   2     4.046294990966    98.30876720    93.03965604
 H     42  41   4     1.822811069707   115.16428813   323.59763969
 H     42  41   4     1.824819639409   109.67138309   202.41045368

---------------------
BASIS SET INFORMATION
---------------------
There are 5 groups of distinct atoms

 Group   1 Type N   : 11s6p2d1f contracted to 5s3p2d1f pattern {62111/411/11/1}
 Group   2 Type C   : 11s6p2d1f contracted to 5s3p2d1f pattern {62111/411/11/1}
 Group   3 Type H   : 5s1p contracted to 3s1p pattern {311/1}
 Group   4 Type Mg  : 14s8p3d contracted to 5s4p3d pattern {73211/5111/111}
 Group   5 Type O   : 11s6p2d1f contracted to 5s3p2d1f pattern {62111/411/11/1}

Atom   0N    basis set group =>   1
Atom   1N    basis set group =>   1
Atom   2N    basis set group =>   1
Atom   3N    basis set group =>   1
Atom   4C    basis set group =>   2
Atom   5C    basis set group =>   2
Atom   6C    basis set group =>   2
Atom   7C    basis set group =>   2
Atom   8C    basis set group =>   2
Atom   9C    basis set group =>   2
Atom  10C    basis set group =>   2
Atom  11C    basis set group =>   2
Atom  12C    basis set group =>   2
Atom  13C    basis set group =>   2
Atom  14C    basis set group =>   2
Atom  15C    basis set group =>   2
Atom  16C    basis set group =>   2
Atom  17C    basis set group =>   2
Atom  18C    basis set group =>   2
Atom  19C    basis set group =>   2
Atom  20C    basis set group =>   2
Atom  21C    basis set group =>   2
Atom  22C    basis set group =>   2
Atom  23C    basis set group =>   2
Atom  24H    basis set group =>   3
Atom  25H    basis set group =>   3
Atom  26H    basis set group =>   3
Atom  27H    basis set group =>   3
Atom  28H    basis set group =>   3
Atom  29H    basis set group =>   3
Atom  30H    basis set group =>   3
Atom  31H    basis set group =>   3
Atom  32H    basis set group =>   3
Atom  33H    basis set group =>   3
Atom  34H    basis set group =>   3
Atom  35H    basis set group =>   3
Atom  36H    basis set group =>   3
Atom  37H    basis set group =>   3
Atom  38H    basis set group =>   3
Atom  39H    basis set group =>   3
Atom  40Mg   basis set group =>   4
Atom  41O    basis set group =>   5
Atom  42H    basis set group =>   3
Atom  43H    basis set group =>   3
---------------------------------
AUXILIARY/J BASIS SET INFORMATION
---------------------------------
There are 5 groups of distinct atoms

 Group   1 Type N   : 12s5p4d2f1g contracted to 6s4p3d1f1g pattern {711111/2111/211/2/1}
 Group   2 Type C   : 12s5p4d2f1g contracted to 6s4p3d1f1g pattern {711111/2111/211/2/1}
 Group   3 Type H   : 5s2p1d contracted to 3s1p1d pattern {311/2/1}
 Group   4 Type Mg  : 14s5p5d2f1g contracted to 8s4p4d1f1g pattern {71111111/2111/2111/2/1}
 Group   5 Type O   : 12s5p4d2f1g contracted to 6s4p3d1f1g pattern {711111/2111/211/2/1}

Atom   0N    basis set group =>   1
Atom   1N    basis set group =>   1
Atom   2N    basis set group =>   1
Atom   3N    basis set group =>   1
Atom   4C    basis set group =>   2
Atom   5C    basis set group =>   2
Atom   6C    basis set group =>   2
Atom   7C    basis set group =>   2
Atom   8C    basis set group =>   2
Atom   9C    basis set group =>   2
Atom  10C    basis set group =>   2
Atom  11C    basis set group =>   2
Atom  12C    basis set group =>   2
Atom  13C    basis set group =>   2
Atom  14C    basis set group =>   2
Atom  15C    basis set group =>   2
Atom  16C    basis set group =>   2
Atom  17C    basis set group =>   2
Atom  18C    basis set group =>   2
Atom  19C    basis set group =>   2
Atom  20C    basis set group =>   2
Atom  21C    basis set group =>   2
Atom  22C    basis set group =>   2
Atom  23C    basis set group =>   2
Atom  24H    basis set group =>   3
Atom  25H    basis set group =>   3
Atom  26H    basis set group =>   3
Atom  27H    basis set group =>   3
Atom  28H    basis set group =>   3
Atom  29H    basis set group =>   3
Atom  30H    basis set group =>   3
Atom  31H    basis set group =>   3
Atom  32H    basis set group =>   3
Atom  33H    basis set group =>   3
Atom  34H    basis set group =>   3
Atom  35H    basis set group =>   3
Atom  36H    basis set group =>   3
Atom  37H    basis set group =>   3
Atom  38H    basis set group =>   3
Atom  39H    basis set group =>   3
Atom  40Mg   basis set group =>   4
Atom  41O    basis set group =>   5
Atom  42H    basis set group =>   3
Atom  43H    basis set group =>   3


           ************************************************************
           *        Program running with 4 parallel MPI-processes     *
           *              working on a common directory               *
           ************************************************************
------------------------------------------------------------------------------
                             ORCA STARTUP CALCULATIONS
                           -- RI-GTO INTEGRALS CHOSEN --
------------------------------------------------------------------------------
------------------------------------------------------------------------------
                   ___                                                        
                  /   \      - P O W E R E D   B Y -                         
                 /     \                                                     
                 |  |  |   _    _      __       _____    __    __             
                 |  |  |  | |  | |    /  \     |  _  \  |  |  /  |          
                  \  \/   | |  | |   /    \    | | | |  |  | /  /          
                 / \  \   | |__| |  /  /\  \   | |_| |  |  |/  /          
                |  |  |   |  __  | /  /__\  \  |    /   |      \           
                |  |  |   | |  | | |   __   |  |    \   |  |\   \          
                \     /   | |  | | |  |  |  |  | |\  \  |  | \   \       
                 \___/    |_|  |_| |__|  |__|  |_| \__\ |__|  \__/        
                                                                              
                      - O R C A' S   B I G   F R I E N D -                    
                                      &                                       
                       - I N T E G R A L  F E E D E R -                       
                                                                              
 v1 FN, 2020, v2 2021, v3 2022-2024                                           
------------------------------------------------------------------------------


----------------------
SHARK INTEGRAL PACKAGE
----------------------

Number of atoms                             ...     44
Number of basis functions                   ...    915
Number of shells                            ...    359
Maximum angular momentum                    ...      3
Integral batch strategy                     ... SHARK/LIBINT Hybrid
RI-J (if used) integral strategy            ... SPLIT-RIJ (Revised 2003 algorithm where possible)
Printlevel                                  ...      1
Contraction scheme used                     ... SEGMENTED contraction
Prescreening option                         ... SCHWARTZ
   Thresh                                   ... 2.500e-11
   Tcut                                     ... 2.500e-12
   Tpresel                                  ... 2.500e-12 
Coulomb Range Separation                    ... NOT USED
Exchange Range Separation                   ... Long Range
   Mu parameter                             ... 3.300e-01
   Scaling (regular/separated)              ... 1.900e-01 4.600e-01
Robust (split-)RI terms used:
  metric    (central integrals)             ... YES
  density   (r.h.s.  integrals)             ... YES
  potential (l.h.s.  integrals)             ... YES
Multipole approximations                    ... NOT USED
Finite Nucleus Model                        ... NOT USED
CABS basis                                  ... NOT available
Auxiliary Coulomb fitting basis             ... AVAILABLE
   # of basis functions in Aux-J            ...   1479
   # of shells in Aux-J                     ...    483
   Maximum angular momentum in Aux-J        ...      4
Auxiliary J/K fitting basis                 ... NOT available
Auxiliary Correlation fitting basis         ... NOT available
Auxiliary 'external' fitting basis          ... NOT available

Checking pre-screening integrals            ... done (  0.0 sec) Dimension = 359
   => SHARK Basis and OBASIS are compatible. Storing Pre-screening
Shell pair information
Shell pair cut-off parameter TPreSel        ...   2.5e-12
Total number of shell pairs                 ...     64620
Shell pairs after pre-screening             ...     45394
Total number of primitive shell pairs       ...    201300
Primitive shell pairs kept                  ...     92130
          la=0 lb=0:  11348 shell pairs
          la=1 lb=0:  13107 shell pairs
          la=1 lb=1:   3774 shell pairs
          la=2 lb=0:   6618 shell pairs
          la=2 lb=1:   3900 shell pairs
          la=2 lb=2:   1045 shell pairs
          la=3 lb=0:   2836 shell pairs
          la=3 lb=1:   1724 shell pairs
          la=3 lb=2:    855 shell pairs
          la=3 lb=3:    187 shell pairs

Checking whether 4 symmetric matrices of dimension 915 fit in memory
:Max Core in MB      =   3000.00
 MB in use           =     58.25
 MB left             =   2941.75
 MB needed           =     12.79
 Data fit in memory  = YES
Calculating RI/J V-Matrix + Cholesky decomp.... done (  0.2 sec)
Calculating Nuclear repulsion               ... done (  0.0 sec) ENN=   2431.746330796860 Eh

Diagonalization of the overlap matrix:
Smallest eigenvalue                        ... 1.028e-05
Time for diagonalization                   ...    0.243 sec
Threshold for overlap eigenvalues          ... 1.000e-07
Number of eigenvalues below threshold      ... 0
Time for construction of square roots      ...    0.134 sec
Total time needed                          ...    0.387 sec

-------------------
DFT GRID GENERATION
-------------------

General Integration Accuracy     IntAcc      ... 4.959
Radial Grid Type                 RadialGrid  ... OptM3 with GC (2021)
Angular Grid (max. ang.)         AngularGrid ... 6 (Lebedev-590)
Angular grid pruning method      GridPruning ... 4 (adaptive)
Weight generation scheme         WeightScheme... mBecke (2022)
Basis function cutoff            BFCut       ... 1.0000e-11
Integration weight cutoff        WCut        ... 1.0000e-14
Partially contracted basis set               ... off
Rotationally invariant grid construction     ... off
Angular grids for H and He will be reduced by one unit

Total number of grid points                  ...   520431
Total number of batches                      ...     8155
Average number of points per batch           ...       63
Average number of grid points per atom       ...    11828

--------------------
COSX GRID GENERATION
--------------------

GRIDX 1
-------
General Integration Accuracy     IntAcc      ... 4.020
Radial Grid Type                 RadialGrid  ... OptM3 with GC (2021)
Angular Grid (max. ang.)         AngularGrid ... 2 (Lebedev-110)
Angular grid pruning method      GridPruning ... 4 (adaptive)
Weight generation scheme         WeightScheme... mBecke (2022)
Basis function cutoff            BFCut       ... 1.0000e-11
Integration weight cutoff        WCut        ... 1.0000e-14
Partially contracted basis set               ... on
Rotationally invariant grid construction     ... off
Angular grids for H and He will be reduced by one unit

Total number of grid points                  ...    58501
Total number of batches                      ...      479
Average number of points per batch           ...      122
Average number of grid points per atom       ...     1330
UseSFitting                                  ... on

GRIDX 2
-------
General Integration Accuracy     IntAcc      ... 4.338
Radial Grid Type                 RadialGrid  ... OptM3 with GC (2021)
Angular Grid (max. ang.)         AngularGrid ... 3 (Lebedev-194)
Angular grid pruning method      GridPruning ... 4 (adaptive)
Weight generation scheme         WeightScheme... mBecke (2022)
Basis function cutoff            BFCut       ... 1.0000e-11
Integration weight cutoff        WCut        ... 1.0000e-14
Partially contracted basis set               ... on
Rotationally invariant grid construction     ... off
Angular grids for H and He will be reduced by one unit

Total number of grid points                  ...   128370
Total number of batches                      ...     1025
Average number of points per batch           ...      125
Average number of grid points per atom       ...     2918
UseSFitting                                  ... on

GRIDX 3
-------
General Integration Accuracy     IntAcc      ... 4.871
Radial Grid Type                 RadialGrid  ... OptM3 with GC (2021)
Angular Grid (max. ang.)         AngularGrid ... 4 (Lebedev-302)
Angular grid pruning method      GridPruning ... 4 (adaptive)
Weight generation scheme         WeightScheme... mBecke (2022)
Basis function cutoff            BFCut       ... 1.0000e-11
Integration weight cutoff        WCut        ... 1.0000e-14
Partially contracted basis set               ... on
Rotationally invariant grid construction     ... off
Angular grids for H and He will be reduced by one unit

Total number of grid points                  ...   238296
Total number of batches                      ...     1884
Average number of points per batch           ...      126
Average number of grid points per atom       ...     5416
UseSFitting                                  ... on
Grids setup in  16.8 sec
Initializing property integral containers    ... done (  0.0 sec)

SHARK setup successfully completed in  18.4 seconds

Maximum memory used throughout the entire STARTUP-calculation: 172.9 MB


           ************************************************************
           *        Program running with 4 parallel MPI-processes     *
           *              working on a common directory               *
           ************************************************************
-------------------------------------------------------------------------------
                                 ORCA GUESS
                   Start orbitals & Density for SCF / CASSCF
-------------------------------------------------------------------------------

------------
SCF SETTINGS
------------
Hamiltonian:
 Density Functional     Method          .... DFT(GTOs)
 Exchange Functional    Exchange        .... WB88
 Correlation Functional Correlation     .... LYP
 LDA part of GGA corr.  LDAOpt          .... VWN-5
 Gradients option       PostSCFGGA      .... off
 Hybrid DFT is turned on
   Fraction HF Exchange ScalHFX         ....  0.190000
   Scaling of DF-GGA-X  ScalDFX         ....  0.350000
   Scaling of DF-GGA-C  ScalDFC         ....  0.810000
   Scaling of DF-LDA-C  ScalLDAC        ....  1.000000
   Perturbative correction              ....  0.000000
 Long-range corrected/Screened/Range-Separated Hybrid DFT is turned on
   Amount of maximum screened exact exchange              ....  0.460000
   Range separation parameter mu (erf(mu*r12)/r12)        ....  0.330000
 RI-approximation to the Coulomb term is turned on
   Number of AuxJ basis functions       .... 1479
   RIJ-COSX (HFX calculated with COS-X)).... on


General Settings:
 Integral files         IntName         .... tddft
 Hartree-Fock type      HFTyp           .... RHF
 Total Charge           Charge          ....    0
 Multiplicity           Mult            ....    1
 Number of Electrons    NEL             ....  186
 Basis Dimension        Dim             ....  915
 Nuclear Repulsion      ENuc            ....   2431.7463307969 Eh

Convergence Acceleration:
 AO-DIIS                CNVDIIS         .... on
   Start iteration      DIISMaxIt       ....    12
   Startup error        DIISStart       ....  0.200000
   # of expansion vecs  DIISMaxEq       ....     5
   Bias factor          DIISBfac        ....   1.050
   Max. coefficient     DIISMaxC        ....  10.000
 MO-DIIS                CNVKDIIS        .... off
 Trust-Rad. Augm. Hess. CNVTRAH         .... auto
   Auto Start mean grad. ratio tolernc. ....  1.125000
   Auto Start start iteration           ....    50
   Auto Start num. interpolation iter.  ....    10
   Max. Number of Micro iterations      ....    24
   Max. Number of Macro iterations      .... Maxiter - #DIIS iter
   Number of Davidson start vectors     ....     2
   Converg. threshold    (grad. norm)   ....   1.000e-05
   Grad. Scal. Fac. for Micro threshold ....   0.100
   Minimum threshold for Micro iter.    ....   1.000e-02
   NR start threshold (gradient norm)   ....   1.000e-04
   Initial trust radius                 ....   0.400
   Minimum AH scaling param. (alpha)    ....   1.000
   Maximum AH scaling param. (alpha)    .... 1000.000
   Quad. conv. algorithm                .... NR
   White noise on init. David. guess    .... on
   Maximum white noise                  ....   0.010
   Pseudo random numbers                .... off
   Inactive MOs                         .... canonical
   Orbital update algorithm             .... Taylor
   Preconditioner                       .... Diag
   Full preconditioner red. dimension   ....   250
 SOSCF                 CNVSOSCF           .... on
   Start iteration     SOSCFMaxIt         ....   150
   Startup grad/error  SOSCFStart         ....  0.003300
   Hessian update      SOSCFHessUp        .... L-BFGS
   Autom. constraints  SOSCFAutoConstrain .... off
 Level Shifting         CNVShift        .... on
   Level shift para.    LevelShift      ....    0.2500
   Turn off err/grad.   ShiftErr        ....    0.0010
 Zerner damping         CNVZerner       .... off
 Static damping         CNVDamp         .... on
   Fraction old density DampFac         ....    0.7000
   Max. Damping (<1)    DampMax         ....    0.9800
   Min. Damping (>=0)   DampMin         ....    0.0000
   Turn off err/grad.   DampErr         ....    0.1000

SCF Procedure:
 Maximum # iterations   MaxIter         ....   125
 SCF integral mode      SCFMode         .... Direct
   Integral package                     .... SHARK and LIBINT hybrid scheme
 Reset frequency        DirectResetFreq ....    20
 Integral Threshold     Thresh          ....  2.500e-11 Eh
 Primitive CutOff       TCut            ....  2.500e-12 Eh

Convergence Tolerance:
 Convergence Check Mode ConvCheckMode   .... Total+1el-Energy
 Convergence forced     ConvForced      .... 1
 Energy Change          TolE            ....  1.000e-08 Eh
 1-El. energy change                    ....  1.000e-05 Eh
 Orbital Gradient       TolG            ....  1.000e-05
 Orbital Rotation angle TolX            ....  1.000e-05
 DIIS Error             TolErr          ....  5.000e-07

------------------------------
INITIAL GUESS: MODEL POTENTIAL
------------------------------
Loading Hartree-Fock densities                     ... done
Calculating cut-offs                               ... done
Initializing the effective Hamiltonian             ... done
Setting up the integral package (SHARK)            ... done
Starting the Coulomb interaction                   ... done (   2.0 sec)
Making the grid                                    ... done (   0.7 sec)
Mapping shells                                     ... done
Starting the XC term evaluation                    ... done (   1.0 sec)
  promolecular density results
     # of electrons  =    186.019238533
     EX              =   -158.078320827
     EC              =     -6.314627460
     EX+EC           =   -164.392948287
Transforming the Hamiltonian                       ... done (   0.1 sec)
Diagonalizing the Hamiltonian                      ... done (   0.2 sec)
Back transforming the eigenvectors                 ... done (   0.1 sec)
Now organizing SCF variables                       ... done
                      ------------------
                      INITIAL GUESS DONE (   4.3 sec)
                      ------------------
             **** ENERGY FILE WAS UPDATED (tddft.en.tmp) ****
Finished Guess after   4.8 sec
Maximum memory used throughout the entire GUESS-calculation: 97.3 MB


           ************************************************************
           *        Program running with 4 parallel MPI-processes     *
           *              working on a common directory               *
           ************************************************************

-------------------------------------------------------------------------------------------
                                      ORCA LEAN-SCF
                              memory conserving SCF solver
-------------------------------------------------------------------------------------------

--------------------
CPCM SOLVATION MODEL
--------------------
CPCM parameters:
  Epsilon                                         ...       8.9990
  Refrac                                          ...       1.4242
  Rsolv                                           ...       1.3000
  Surface type                                    ... GAUSSIAN VDW
  Discretization scheme                           ... Constant charge density
    Threshold for H atoms                         ...       5.0000 (charges/Ang^2)
    Threshold for non-H atoms                     ...       5.0000 (charges/Ang^2)
  Epsilon function type                           ...         CPCM
Solvent:                                          ... DICHLOROMETHANE
Radii:
  Scheme                                          ... Element-dependent radii
  Radius for N  used is    3.5149 Bohr (=   1.8600 Ang.)
  Radius for C  used is    3.8550 Bohr (=   2.0400 Ang.)
  Radius for H  used is    2.4944 Bohr (=   1.3200 Ang.)
  Radius for Mg used is    3.9231 Bohr (=   2.0760 Ang.)
  Radius for O  used is    3.4469 Bohr (=   1.8240 Ang.)
Calculating surface                               ...        done! (  0.0s)
Cavity surface points                             ...         3858
Cavity Volume                                     ...    2687.3554
Cavity Surface-area                               ...    1293.8355
Calculating surface distance matrix               ...        done! (  0.3s)
Performing Cholesky decomposition & store         ...        done! (  1.0s)
Overall time for CPCM initialization              ...                 1.3s

----------------------------------------D-I-I-S--------------------------------------------
Iteration    Energy (Eh)           Delta-E    RMSDP     MaxDP     DIISErr   Damp  Time(sec)
-------------------------------------------------------------------------------------------
               ***  Starting incremental Fock matrix formation  ***
    1    -1266.6876569762307554     0.00e+00  2.18e-03  4.39e-02  2.74e-01  0.700 171.7
    2    -1266.9367558439262211    -2.49e-01  1.67e-03  3.07e-02  1.25e-01  0.700  75.6
                               ***Turning on AO-DIIS***
    3    -1267.0578847486372069    -1.21e-01  9.57e-04  2.37e-02  4.56e-02  0.700  73.7
    4    -1267.1295531840723925    -7.17e-02  2.05e-03  5.51e-02  3.00e-02  0.000  97.1
    5    -1267.2828817206213898    -1.53e-01  2.06e-04  4.22e-03  3.95e-03  0.000  74.0
                              *** Initializing SOSCF ***
---------------------------------------S-O-S-C-F--------------------------------------
Iteration    Energy (Eh)           Delta-E    RMSDP     MaxDP     MaxGrad    Time(sec)
--------------------------------------------------------------------------------------
    6    -1267.2833430198393216    -4.61e-04  8.97e-05  2.04e-03  2.58e-03    90.3
               *** Restarting incremental Fock matrix formation ***
    7    -1267.2834086724778899    -6.57e-05  6.96e-05  1.31e-03  6.14e-04   206.0
    8    -1267.2834246364441242    -1.60e-05  4.33e-05  9.18e-04  2.70e-04   122.8
    9    -1267.2834258015564046    -1.17e-06  2.19e-05  3.71e-04  1.44e-04   139.3
   10    -1267.2834278631767120    -2.06e-06  5.43e-06  1.27e-04  1.70e-05   133.6
   11    -1267.2834278794794045    -1.63e-08  4.26e-06  1.36e-04  1.20e-05    85.3
   12    -1267.2834279128337585    -3.34e-08  5.57e-06  1.53e-04  9.42e-06   116.0
   13    -1267.2834279400858577    -2.73e-08  5.48e-06  2.03e-04  4.83e-06    95.6
   14    -1267.2834279388562209     1.23e-09  3.43e-06  1.24e-04  2.78e-06   119.6
                 **** Energy Check signals convergence ****

               *****************************************************
               *                     SUCCESS                       *
               *           SCF CONVERGED AFTER  14 CYCLES          *
               *****************************************************

Recomputing exchange energy using gridx3       ... done (  408.839 sec)
Old exchange energy                            :    -45.168707229 Eh
New exchange energy                            :    -45.168696414 Eh
Exchange energy change after final integration :      0.000010815 Eh
Total energy after final integration           :  -1267.283417102 Eh
             **** ENERGY FILE WAS UPDATED (tddft.en.tmp) ****

----------------
TOTAL SCF ENERGY
----------------

Total Energy       :      -1267.28341710230188 Eh          -34484.53494 eV

Components:
Nuclear Repulsion  :       2431.74633079685964 Eh           66171.18174 eV
Electronic Energy  :      -3699.00768914257469 Eh         -100655.11643 eV
One Electron Energy:      -6567.88876776109282 Eh         -178721.33939 eV
Two Electron Energy:       2868.88107861851813 Eh           78066.22296 eV
CPCM Dielectric    :         -0.02206957179350 Eh              -0.60054 eV

Virial components:
Potential Energy   :      -2529.00467045871028 Eh          -68817.71571 eV
Kinetic Energy     :       1261.72125335640840 Eh           34333.18077 eV
Virial Ratio       :          2.00440839347922

DFT components:
N(Alpha)           :       93.000029300804 electrons
N(Beta)            :       93.000029300804 electrons
N(Total)           :      186.000058601608 electrons
E(XC)              :     -122.792249721660 Eh       

CPCM Solvation Model Properties:
Surface-charge          :         -0.04150955086041
Corrected charge        :         -0.00000000000000
Outlying charge corr.   :          0.00008040410957 Eh               0.00219 eV
Free-energy (cav+disp)  :  This term is not implemented in the current solvation scheme

---------------
SCF CONVERGENCE
---------------

  Last Energy change         ...   -1.2296e-09  Tolerance :   1.0000e-08
  Last MAX-Density change    ...    1.2359e-04  Tolerance :   1.0000e-07
  Last RMS-Density change    ...    3.4334e-06  Tolerance :   5.0000e-09
  Last DIIS Error            ...    2.5797e-03  Tolerance :   5.0000e-07
  Last Orbital Gradient      ...    2.7844e-06  Tolerance :   1.0000e-05
  Last Orbital Rotation      ...    2.7725e-05  Tolerance :   1.0000e-05


----------------
ORBITAL ENERGIES
----------------

  NO   OCC          E(Eh)            E(eV) 
   0   2.0000     -46.822215     -1274.0972 
   1   2.0000     -19.234150      -523.3878 
   2   2.0000     -14.389606      -391.5611 
   3   2.0000     -14.389175      -391.5494 
   4   2.0000     -14.362355      -390.8195 
   5   2.0000     -14.361808      -390.8047 
   6   2.0000     -10.279767      -279.7267 
   7   2.0000     -10.279713      -279.7252 
   8   2.0000     -10.279325      -279.7147 
   9   2.0000     -10.279197      -279.7112 
  10   2.0000     -10.269233      -279.4400 
  11   2.0000     -10.268983      -279.4332 
  12   2.0000     -10.268483      -279.4196 
  13   2.0000     -10.268124      -279.4099 
  14   2.0000     -10.243155      -278.7304 
  15   2.0000     -10.242952      -278.7249 
  16   2.0000     -10.242630      -278.7161 
  17   2.0000     -10.242412      -278.7102 
  18   2.0000     -10.236911      -278.5605 
  19   2.0000     -10.236902      -278.5603 
  20   2.0000     -10.236593      -278.5519 
  21   2.0000     -10.236417      -278.5471 
  22   2.0000     -10.234983      -278.5080 
  23   2.0000     -10.234320      -278.4900 
  24   2.0000     -10.234281      -278.4890 
  25   2.0000     -10.233621      -278.4710 
  26   2.0000      -3.109663       -84.6182 
  27   2.0000      -1.855661       -50.4951 
  28   2.0000      -1.852708       -50.4148 
  29   2.0000      -1.851822       -50.3906 
  30   2.0000      -1.125550       -30.6278 
  31   2.0000      -1.040166       -28.3043 
  32   2.0000      -1.034566       -28.1520 
  33   2.0000      -1.026730       -27.9387 
  34   2.0000      -1.020120       -27.7589 
  35   2.0000      -0.890195       -24.2234 
  36   2.0000      -0.866522       -23.5793 
  37   2.0000      -0.858222       -23.3534 
  38   2.0000      -0.847259       -23.0551 
  39   2.0000      -0.845722       -23.0133 
  40   2.0000      -0.834463       -22.7069 
  41   2.0000      -0.833669       -22.6853 
  42   2.0000      -0.807977       -21.9862 
  43   2.0000      -0.792271       -21.5588 
  44   2.0000      -0.731793       -19.9131 
  45   2.0000      -0.723385       -19.6843 
  46   2.0000      -0.687758       -18.7148 
  47   2.0000      -0.666676       -18.1412 
  48   2.0000      -0.638196       -17.3662 
  49   2.0000      -0.637990       -17.3606 
  50   2.0000      -0.635514       -17.2932 
  51   2.0000      -0.634848       -17.2751 
  52   2.0000      -0.624757       -17.0005 
  53   2.0000      -0.599705       -16.3188 
  54   2.0000      -0.586250       -15.9527 
  55   2.0000      -0.573554       -15.6072 
  56   2.0000      -0.568769       -15.4770 
  57   2.0000      -0.562226       -15.2989 
  58   2.0000      -0.550937       -14.9918 
  59   2.0000      -0.542670       -14.7668 
  60   2.0000      -0.540298       -14.7022 
  61   2.0000      -0.514532       -14.0011 
  62   2.0000      -0.502115       -13.6633 
  63   2.0000      -0.499383       -13.5889 
  64   2.0000      -0.480803       -13.0833 
  65   2.0000      -0.479775       -13.0554 
  66   2.0000      -0.479593       -13.0504 
  67   2.0000      -0.465898       -12.6777 
  68   2.0000      -0.465676       -12.6717 
  69   2.0000      -0.463375       -12.6091 
  70   2.0000      -0.448284       -12.1984 
  71   2.0000      -0.445192       -12.1143 
  72   2.0000      -0.440460       -11.9855 
  73   2.0000      -0.438664       -11.9367 
  74   2.0000      -0.434112       -11.8128 
  75   2.0000      -0.430505       -11.7146 
  76   2.0000      -0.425619       -11.5817 
  77   2.0000      -0.421774       -11.4770 
  78   2.0000      -0.419703       -11.4207 
  79   2.0000      -0.418813       -11.3965 
  80   2.0000      -0.415901       -11.3172 
  81   2.0000      -0.411262       -11.1910 
  82   2.0000      -0.406993       -11.0749 
  83   2.0000      -0.369492       -10.0544 
  84   2.0000      -0.365341        -9.9414 
  85   2.0000      -0.364623        -9.9219 
  86   2.0000      -0.338725        -9.2172 
  87   2.0000      -0.326336        -8.8801 
  88   2.0000      -0.313713        -8.5366 
  89   2.0000      -0.303809        -8.2671 
  90   2.0000      -0.294577        -8.0158 
  91   2.0000      -0.233379        -6.3506 
  92   2.0000      -0.197505        -5.3744 
  93   0.0000      -0.066782        -1.8172 
  94   0.0000      -0.001056        -0.0287 
  95   0.0000       0.034149         0.9293 
  96   0.0000       0.065842         1.7916 
  97   0.0000       0.068882         1.8744 
  98   0.0000       0.076133         2.0717 
  99   0.0000       0.080916         2.2018 
 100   0.0000       0.087536         2.3820 
 101   0.0000       0.093833         2.5533 
 102   0.0000       0.095033         2.5860 
 103   0.0000       0.105023         2.8578 
*Only the first 10 virtual orbitals were printed.

                    ********************************
                    * MULLIKEN POPULATION ANALYSIS *
                    ********************************

-----------------------
MULLIKEN ATOMIC CHARGES
-----------------------
   0 N :   -0.309945
   1 N :   -0.307416
   2 N :   -0.382787
   3 N :   -0.371950
   4 C :   -0.198490
   5 C :   -0.198957
   6 C :   -0.196429
   7 C :   -0.200771
   8 C :    0.146391
   9 C :    0.147128
  10 C :    0.146914
  11 C :    0.144915
  12 C :    0.232294
  13 C :    0.220526
  14 C :    0.232435
  15 C :    0.215497
  16 C :   -0.324085
  17 C :   -0.324610
  18 C :   -0.330940
  19 C :   -0.313662
  20 C :   -0.254300
  21 C :   -0.253905
  22 C :   -0.250647
  23 C :   -0.255215
  24 H :    0.123142
  25 H :    0.134611
  26 H :    0.121474
  27 H :    0.135457
  28 H :    0.134920
  29 H :    0.122808
  30 H :    0.134895
  31 H :    0.123028
  32 H :    0.146946
  33 H :    0.146719
  34 H :    0.147339
  35 H :    0.147143
  36 H :    0.150825
  37 H :    0.150899
  38 H :    0.151637
  39 H :    0.151464
  40 Mg:    0.624362
  41 O :   -0.626116
  42 H :    0.382329
  43 H :    0.384127
Sum of atomic charges:   -0.0000000

--------------------------------
MULLIKEN REDUCED ORBITAL CHARGES
--------------------------------
  0 N s       :     3.681206  s :     3.681206
      pz      :     1.258999  p :     3.567654
      px      :     1.306215
      py      :     1.002441
      dz2     :     0.003768  d :     0.057588
      dxz     :     0.006056
      dyz     :     0.016013
      dx2y2   :     0.015637
      dxy     :     0.016113
      f0      :     0.000633  f :     0.003496
      f+1     :     0.000241
      f-1     :     0.000337
      f+2     :     0.000103
      f-2     :     0.000558
      f+3     :     0.000594
      f-3     :     0.001029

  1 N s       :     3.673142  s :     3.673142
      pz      :     1.252884  p :     3.573139
      px      :     1.318161
      py      :     1.002094
      dz2     :     0.003830  d :     0.057647
      dxz     :     0.006282
      dyz     :     0.015838
      dx2y2   :     0.015342
      dxy     :     0.016355
      f0      :     0.000630  f :     0.003489
      f+1     :     0.000240
      f-1     :     0.000338
      f+2     :     0.000104
      f-2     :     0.000558
      f+3     :     0.000598
      f-3     :     0.001021

  2 N s       :     3.682642  s :     3.682642
      pz      :     1.380152  p :     3.642572
      px      :     1.001459
      py      :     1.260961
      dz2     :     0.003989  d :     0.054056
      dxz     :     0.013819
      dyz     :     0.005558
      dx2y2   :     0.015226
      dxy     :     0.015465
      f0      :     0.000635  f :     0.003516
      f+1     :     0.000378
      f-1     :     0.000307
      f+2     :     0.000076
      f-2     :     0.000618
      f+3     :     0.000923
      f-3     :     0.000579

  3 N s       :     3.682571  s :     3.682571
      pz      :     1.379264  p :     3.631906
      px      :     0.998971
      py      :     1.253671
      dz2     :     0.003916  d :     0.053956
      dxz     :     0.013777
      dyz     :     0.005509
      dx2y2   :     0.015336
      dxy     :     0.015417
      f0      :     0.000639  f :     0.003517
      f+1     :     0.000376
      f-1     :     0.000309
      f+2     :     0.000074
      f-2     :     0.000613
      f+3     :     0.000928
      f-3     :     0.000579

  4 C s       :     3.220471  s :     3.220471
      pz      :     1.056214  p :     2.898022
      px      :     0.909576
      py      :     0.932232
      dz2     :     0.004717  d :     0.074124
      dxz     :     0.014782
      dyz     :     0.016018
      dx2y2   :     0.015534
      dxy     :     0.023074
      f0      :     0.000784  f :     0.005873
      f+1     :     0.000693
      f-1     :     0.000556
      f+2     :     0.000778
      f-2     :     0.000365
      f+3     :     0.001538
      f-3     :     0.001160

  5 C s       :     3.222599  s :     3.222599
      pz      :     1.054535  p :     2.896151
      px      :     0.908369
      py      :     0.933246
      dz2     :     0.004732  d :     0.074330
      dxz     :     0.015364
      dyz     :     0.015629
      dx2y2   :     0.015487
      dxy     :     0.023118
      f0      :     0.000707  f :     0.005877
      f+1     :     0.000735
      f-1     :     0.000589
      f+2     :     0.000792
      f-2     :     0.000361
      f+3     :     0.001549
      f-3     :     0.001144

  6 C s       :     3.220108  s :     3.220108
      pz      :     1.054730  p :     2.896258
      px      :     0.908269
      py      :     0.933259
      dz2     :     0.003999  d :     0.074190
      dxz     :     0.015532
      dyz     :     0.016138
      dx2y2   :     0.015526
      dxy     :     0.022994
      f0      :     0.000648  f :     0.005873
      f+1     :     0.000779
      f-1     :     0.000615
      f+2     :     0.000807
      f-2     :     0.000333
      f+3     :     0.001550
      f-3     :     0.001141

  7 C s       :     3.224295  s :     3.224295
      pz      :     1.055656  p :     2.896254
      px      :     0.908781
      py      :     0.931817
      dz2     :     0.005231  d :     0.074349
      dxz     :     0.014776
      dyz     :     0.015593
      dx2y2   :     0.015518
      dxy     :     0.023231
      f0      :     0.000797  f :     0.005874
      f+1     :     0.000678
      f-1     :     0.000548
      f+2     :     0.000772
      f-2     :     0.000377
      f+3     :     0.001545
      f-3     :     0.001157

  8 C s       :     3.181295  s :     3.181295
      pz      :     0.902729  p :     2.503191
      px      :     0.846207
      py      :     0.754256
      dz2     :     0.003512  d :     0.154982
      dxz     :     0.021416
      dyz     :     0.041676
      dx2y2   :     0.045629
      dxy     :     0.042749
      f0      :     0.001934  f :     0.014140
      f+1     :     0.000908
      f-1     :     0.000910
      f+2     :     0.001246
      f-2     :     0.001557
      f+3     :     0.002818
      f-3     :     0.004767

  9 C s       :     3.177344  s :     3.177344
      pz      :     0.905543  p :     2.507455
      px      :     0.846663
      py      :     0.755249
      dz2     :     0.002983  d :     0.154002
      dxz     :     0.021330
      dyz     :     0.041784
      dx2y2   :     0.045281
      dxy     :     0.042624
      f0      :     0.001947  f :     0.014072
      f+1     :     0.000871
      f-1     :     0.000896
      f+2     :     0.001242
      f-2     :     0.001537
      f+3     :     0.002789
      f-3     :     0.004790

 10 C s       :     3.178206  s :     3.178206
      pz      :     0.902194  p :     2.505207
      px      :     0.845512
      py      :     0.757501
      dz2     :     0.002747  d :     0.155514
      dxz     :     0.021822
      dyz     :     0.041821
      dx2y2   :     0.046254
      dxy     :     0.042869
      f0      :     0.001967  f :     0.014159
      f+1     :     0.000865
      f-1     :     0.000897
      f+2     :     0.001252
      f-2     :     0.001552
      f+3     :     0.002796
      f-3     :     0.004830

 11 C s       :     3.183422  s :     3.183422
      pz      :     0.901423  p :     2.503287
      px      :     0.847293
      py      :     0.754571
      dz2     :     0.003417  d :     0.154286
      dxz     :     0.021315
      dyz     :     0.041721
      dx2y2   :     0.045239
      dxy     :     0.042595
      f0      :     0.001928  f :     0.014090
      f+1     :     0.000898
      f-1     :     0.000905
      f+2     :     0.001235
      f-2     :     0.001553
      f+3     :     0.002823
      f-3     :     0.004748

 12 C s       :     3.158892  s :     3.158892
      pz      :     0.916667  p :     2.439482
      px      :     0.734020
      py      :     0.788795
      dz2     :     0.004130  d :     0.154875
      dxz     :     0.038934
      dyz     :     0.029593
      dx2y2   :     0.042467
      dxy     :     0.039750
      f0      :     0.002079  f :     0.014457
      f+1     :     0.001037
      f-1     :     0.000795
      f+2     :     0.000879
      f-2     :     0.002128
      f+3     :     0.004486
      f-3     :     0.003052

 13 C s       :     3.160359  s :     3.160359
      pz      :     0.919666  p :     2.450036
      px      :     0.734458
      py      :     0.795911
      dz2     :     0.003920  d :     0.154646
      dxz     :     0.039040
      dyz     :     0.029742
      dx2y2   :     0.042435
      dxy     :     0.039509
      f0      :     0.002089  f :     0.014433
      f+1     :     0.001012
      f-1     :     0.000798
      f+2     :     0.000853
      f-2     :     0.002141
      f+3     :     0.004452
      f-3     :     0.003087

 14 C s       :     3.160649  s :     3.160649
      pz      :     0.915671  p :     2.436434
      px      :     0.736797
      py      :     0.783966
      dz2     :     0.003937  d :     0.156002
      dxz     :     0.039706
      dyz     :     0.029757
      dx2y2   :     0.042670
      dxy     :     0.039932
      f0      :     0.002104  f :     0.014480
      f+1     :     0.001007
      f-1     :     0.000798
      f+2     :     0.000853
      f-2     :     0.002150
      f+3     :     0.004477
      f-3     :     0.003092

 15 C s       :     3.160755  s :     3.160755
      pz      :     0.916880  p :     2.453858
      px      :     0.734134
      py      :     0.802844
      dz2     :     0.003939  d :     0.155408
      dxz     :     0.039596
      dyz     :     0.029678
      dx2y2   :     0.042685
      dxy     :     0.039510
      f0      :     0.002098  f :     0.014482
      f+1     :     0.001015
      f-1     :     0.000798
      f+2     :     0.000867
      f-2     :     0.002140
      f+3     :     0.004508
      f-3     :     0.003056

 16 C s       :     3.298842  s :     3.298842
      pz      :     1.073642  p :     2.951451
      px      :     0.926730
      py      :     0.951078
      dz2     :     0.003180  d :     0.066720
      dxz     :     0.014892
      dyz     :     0.015778
      dx2y2   :     0.007740
      dxy     :     0.025130
      f0      :     0.001433  f :     0.007072
      f+1     :     0.000574
      f-1     :     0.000544
      f+2     :     0.000830
      f-2     :     0.000419
      f+3     :     0.001575
      f-3     :     0.001697

 17 C s       :     3.304179  s :     3.304179
      pz      :     1.074982  p :     2.946573
      px      :     0.922106
      py      :     0.949484
      dz2     :     0.003164  d :     0.066794
      dxz     :     0.015019
      dyz     :     0.015635
      dx2y2   :     0.007691
      dxy     :     0.025284
      f0      :     0.001432  f :     0.007064
      f+1     :     0.000569
      f-1     :     0.000550
      f+2     :     0.000829
      f-2     :     0.000406
      f+3     :     0.001565
      f-3     :     0.001712

 18 C s       :     3.302942  s :     3.302942
      pz      :     1.075171  p :     2.954518
      px      :     0.924302
      py      :     0.955046
      dz2     :     0.003155  d :     0.066409
      dxz     :     0.015009
      dyz     :     0.015492
      dx2y2   :     0.007550
      dxy     :     0.025203
      f0      :     0.001442  f :     0.007071
      f+1     :     0.000564
      f-1     :     0.000553
      f+2     :     0.000827
      f-2     :     0.000402
      f+3     :     0.001567
      f-3     :     0.001715

 19 C s       :     3.293879  s :     3.293879
      pz      :     1.075702  p :     2.946057
      px      :     0.924048
      py      :     0.946308
      dz2     :     0.003140  d :     0.066661
      dxz     :     0.014822
      dyz     :     0.015653
      dx2y2   :     0.007737
      dxy     :     0.025309
      f0      :     0.001437  f :     0.007066
      f+1     :     0.000562
      f-1     :     0.000549
      f+2     :     0.000830
      f-2     :     0.000409
      f+3     :     0.001579
      f-3     :     0.001700

 20 C s       :     3.276767  s :     3.276767
      pz      :     1.026267  p :     2.893881
      px      :     0.942933
      py      :     0.924681
      dz2     :     0.004796  d :     0.075967
      dxz     :     0.019569
      dyz     :     0.010734
      dx2y2   :     0.014224
      dxy     :     0.026644
      f0      :     0.001440  f :     0.007685
      f+1     :     0.000507
      f-1     :     0.000669
      f+2     :     0.001187
      f-2     :     0.000224
      f+3     :     0.001391
      f-3     :     0.002266

 21 C s       :     3.276287  s :     3.276287
      pz      :     1.027243  p :     2.893947
      px      :     0.942982
      py      :     0.923722
      dz2     :     0.004893  d :     0.075986
      dxz     :     0.019571
      dyz     :     0.010553
      dx2y2   :     0.014207
      dxy     :     0.026762
      f0      :     0.001435  f :     0.007685
      f+1     :     0.000506
      f-1     :     0.000680
      f+2     :     0.001175
      f-2     :     0.000226
      f+3     :     0.001393
      f-3     :     0.002269

 22 C s       :     3.275439  s :     3.275439
      pz      :     1.023879  p :     2.891678
      px      :     0.943027
      py      :     0.924773
      dz2     :     0.004781  d :     0.075852
      dxz     :     0.019644
      dyz     :     0.010551
      dx2y2   :     0.014123
      dxy     :     0.026753
      f0      :     0.001449  f :     0.007677
      f+1     :     0.000484
      f-1     :     0.000681
      f+2     :     0.001176
      f-2     :     0.000221
      f+3     :     0.001387
      f-3     :     0.002279

 23 C s       :     3.278168  s :     3.278168
      pz      :     1.025057  p :     2.893418
      px      :     0.943331
      py      :     0.925029
      dz2     :     0.004758  d :     0.075954
      dxz     :     0.019594
      dyz     :     0.010595
      dx2y2   :     0.014223
      dxy     :     0.026783
      f0      :     0.001450  f :     0.007677
      f+1     :     0.000485
      f-1     :     0.000677
      f+2     :     0.001185
      f-2     :     0.000216
      f+3     :     0.001388
      f-3     :     0.002276

 24 H s       :     0.855480  s :     0.855480
      pz      :     0.011377  p :     0.021378
      px      :     0.005329
      py      :     0.004673

 25 H s       :     0.844139  s :     0.844139
      pz      :     0.007752  p :     0.021249
      px      :     0.007168
      py      :     0.006329

 26 H s       :     0.857172  s :     0.857172
      pz      :     0.011114  p :     0.021354
      px      :     0.005659
      py      :     0.004581

 27 H s       :     0.843288  s :     0.843288
      pz      :     0.007945  p :     0.021254
      px      :     0.006797
      py      :     0.006512

 28 H s       :     0.843829  s :     0.843829
      pz      :     0.008310  p :     0.021251
      px      :     0.006582
      py      :     0.006359

 29 H s       :     0.855815  s :     0.855815
      pz      :     0.010834  p :     0.021377
      px      :     0.005850
      py      :     0.004693

 30 H s       :     0.843867  s :     0.843867
      pz      :     0.007603  p :     0.021238
      px      :     0.007149
      py      :     0.006486

 31 H s       :     0.855582  s :     0.855582
      pz      :     0.011466  p :     0.021390
      px      :     0.005365
      py      :     0.004560

 32 H s       :     0.830849  s :     0.830849
      pz      :     0.005360  p :     0.022205
      px      :     0.008286
      py      :     0.008560

 33 H s       :     0.831069  s :     0.831069
      pz      :     0.005349  p :     0.022211
      px      :     0.008247
      py      :     0.008615

 34 H s       :     0.830446  s :     0.830446
      pz      :     0.005340  p :     0.022215
      px      :     0.008242
      py      :     0.008633

 35 H s       :     0.830640  s :     0.830640
      pz      :     0.005370  p :     0.022217
      px      :     0.008296
      py      :     0.008550

 36 H s       :     0.827221  s :     0.827221
      pz      :     0.004861  p :     0.021954
      px      :     0.007201
      py      :     0.009892

 37 H s       :     0.827146  s :     0.827146
      pz      :     0.004841  p :     0.021955
      px      :     0.007159
      py      :     0.009955

 38 H s       :     0.826417  s :     0.826417
      pz      :     0.004824  p :     0.021946
      px      :     0.007173
      py      :     0.009949

 39 H s       :     0.826587  s :     0.826587
      pz      :     0.004838  p :     0.021948
      px      :     0.007210
      py      :     0.009901

 40 Mgs       :     4.562057  s :     4.562057
      pz      :     2.137156  p :     6.527111
      px      :     2.188120
      py      :     2.201835
      dz2     :     0.049499  d :     0.286470
      dxz     :     0.027057
      dyz     :     0.034851
      dx2y2   :     0.162897
      dxy     :     0.012165

 41 O s       :     3.764799  s :     3.764799
      pz      :     1.762753  p :     4.843297
      px      :     1.738443
      py      :     1.342101
      dz2     :     0.001551  d :     0.016770
      dxz     :     0.003470
      dyz     :     0.003136
      dx2y2   :     0.001417
      dxy     :     0.007198
      f0      :     0.000237  f :     0.001249
      f+1     :     0.000039
      f-1     :     0.000098
      f+2     :     0.000095
      f-2     :     0.000319
      f+3     :     0.000364
      f-3     :     0.000099

 42 H s       :     0.572015  s :     0.572015
      pz      :     0.015098  p :     0.045655
      px      :     0.015465
      py      :     0.015092

 43 H s       :     0.570277  s :     0.570277
      pz      :     0.013490  p :     0.045596
      px      :     0.013475
      py      :     0.018631



                     *******************************
                     * LOEWDIN POPULATION ANALYSIS *
                     *******************************

----------------------
LOEWDIN ATOMIC CHARGES
----------------------
   0 N :    0.208573
   1 N :    0.205016
   2 N :    0.161036
   3 N :    0.163269
   4 C :   -0.194642
   5 C :   -0.195553
   6 C :   -0.194411
   7 C :   -0.195456
   8 C :   -0.202437
   9 C :   -0.204731
  10 C :   -0.201549
  11 C :   -0.203856
  12 C :   -0.217434
  13 C :   -0.218629
  14 C :   -0.215390
  15 C :   -0.216409
  16 C :   -0.131940
  17 C :   -0.133728
  18 C :   -0.131632
  19 C :   -0.133348
  20 C :   -0.139988
  21 C :   -0.140690
  22 C :   -0.137996
  23 C :   -0.138576
  24 H :    0.147872
  25 H :    0.144998
  26 H :    0.147250
  27 H :    0.144792
  28 H :    0.145141
  29 H :    0.147890
  30 H :    0.144446
  31 H :    0.148182
  32 H :    0.162940
  33 H :    0.162652
  34 H :    0.163062
  35 H :    0.162726
  36 H :    0.143279
  37 H :    0.143218
  38 H :    0.143621
  39 H :    0.143547
  40 Mg:    0.115220
  41 O :   -0.111417
  42 H :    0.204954
  43 H :    0.206130

-------------------------------
LOEWDIN REDUCED ORBITAL CHARGES
-------------------------------
  0 N s       :     2.971937  s :     2.971937
      pz      :     1.110046  p :     3.588523
      px      :     1.355632
      py      :     1.122845
      dz2     :     0.016154  d :     0.212129
      dxz     :     0.009434
      dyz     :     0.049408
      dx2y2   :     0.063440
      dxy     :     0.073691
      f0      :     0.001096  f :     0.018838
      f+1     :     0.000781
      f-1     :     0.001840
      f+2     :     0.000327
      f-2     :     0.003462
      f+3     :     0.003948
      f-3     :     0.007384

  1 N s       :     2.975301  s :     2.975301
      pz      :     1.108825  p :     3.589468
      px      :     1.358714
      py      :     1.121929
      dz2     :     0.016183  d :     0.211454
      dxz     :     0.009693
      dyz     :     0.049051
      dx2y2   :     0.062872
      dxy     :     0.073655
      f0      :     0.001088  f :     0.018760
      f+1     :     0.000785
      f-1     :     0.001825
      f+2     :     0.000326
      f-2     :     0.003434
      f+3     :     0.003961
      f-3     :     0.007342

  2 N s       :     2.971574  s :     2.971574
      pz      :     1.212528  p :     3.649952
      px      :     1.104535
      py      :     1.332889
      dz2     :     0.015893  d :     0.198921
      dxz     :     0.043837
      dyz     :     0.010931
      dx2y2   :     0.059720
      dxy     :     0.068540
      f0      :     0.001074  f :     0.018517
      f+1     :     0.001758
      f-1     :     0.000853
      f+2     :     0.000206
      f-2     :     0.003738
      f+3     :     0.006836
      f-3     :     0.004051

  3 N s       :     2.970798  s :     2.970798
      pz      :     1.212325  p :     3.648538
      px      :     1.104303
      py      :     1.331910
      dz2     :     0.015833  d :     0.198860
      dxz     :     0.043598
      dyz     :     0.010838
      dx2y2   :     0.059886
      dxy     :     0.068705
      f0      :     0.001077  f :     0.018534
      f+1     :     0.001774
      f-1     :     0.000846
      f+2     :     0.000197
      f-2     :     0.003726
      f+3     :     0.006861
      f-3     :     0.004053

  4 C s       :     2.764479  s :     2.764479
      pz      :     1.037597  p :     3.028849
      px      :     0.992078
      py      :     0.999174
      dz2     :     0.048286  d :     0.360984
      dxz     :     0.069091
      dyz     :     0.067705
      dx2y2   :     0.085628
      dxy     :     0.090274
      f0      :     0.004486  f :     0.040330
      f+1     :     0.003534
      f-1     :     0.003486
      f+2     :     0.005514
      f-2     :     0.004753
      f+3     :     0.011110
      f-3     :     0.007447

  5 C s       :     2.764755  s :     2.764755
      pz      :     1.037509  p :     3.028923
      px      :     0.991670
[...]
  0-1A  ->  1-1A    1.676088   13518.6   739.7   0.436903111   0.04037   0.00072   0.20091  -0.00089
  0-1A  ->  2-1A    2.368333   19101.9   523.5   0.107592293   0.01405  -0.11850   0.00032  -0.00219
  0-1A  ->  3-1A    3.556096   28681.8   348.7   1.158345799   0.22707  -0.47645   0.00208  -0.00744
  0-1A  ->  4-1A    3.736783   30139.2   331.8   0.000069481   0.00001   0.00119  -0.00015  -0.00359
  0-1A  ->  5-1A    4.014089   32375.8   308.9   0.156088698   0.03454  -0.18579  -0.00340  -0.00279
  0-1A  ->  6-1A    4.116692   33203.4   301.2   1.045553795   0.23727  -0.00021   0.48709  -0.00226
  0-1A  ->  7-1A    4.128183   33296.0   300.3   0.001567130   0.00036   0.01056   0.01563  -0.00095
  0-1A  ->  8-1A    4.545321   36660.5   272.8   0.000457477   0.00011  -0.00065   0.00065   0.01067
  0-1A  ->  9-1A    4.597114   37078.2   269.7   0.004111482   0.00104  -0.01597  -0.02805  -0.00013
  0-1A  -> 10-1A    4.882674   39381.4   253.9   0.000044279   0.00001   0.00118   0.00217  -0.00241
  0-1A  -> 11-1A    4.958690   39994.5   250.0   0.000277222   0.00008  -0.00177   0.00270  -0.00808
  0-1A  -> 12-1A    4.978020   40150.4   249.1   0.001293493   0.00035   0.00617  -0.00644  -0.01660
  0-1A  -> 13-1A    5.059021   40803.8   245.1   0.000036397   0.00001   0.00050  -0.00286   0.00132
  0-1A  -> 14-1A    5.234699   42220.7   236.9   0.000067602   0.00002  -0.00411   0.00111  -0.00117
  0-1A  -> 15-1A    5.348454   43138.2   231.8   0.001345679   0.00040   0.00396  -0.00089  -0.01950
  0-1A  -> 16-1A    5.400574   43558.6   229.6   0.000051151   0.00002   0.00155   0.00240   0.00266
  0-1A  -> 17-1A    5.415747   43680.9   228.9   0.000139722   0.00004   0.00211  -0.00572  -0.00213
  0-1A  -> 18-1A    5.524803   44560.5   224.4   0.107158643   0.03264   0.00007  -0.18065   0.00018
  0-1A  -> 19-1A    5.652459   45590.2   219.3   0.000622467   0.00019  -0.00125   0.01085   0.00864
  0-1A  -> 20-1A    5.812301   46879.4   213.3   0.000375300   0.00012   0.00315  -0.01050   0.00004
  0-1A  -> 21-1A    5.827960   47005.7   212.7   0.000375938   0.00012  -0.00631  -0.00844  -0.00313
  0-1A  -> 22-1A    5.884497   47461.7   210.7   0.000657240   0.00021   0.00035  -0.00421   0.01398
  0-1A  -> 23-1A    5.908278   47653.5   209.8   0.018580630   0.00605   0.00095   0.07778   0.00120
  0-1A  -> 24-1A    5.932301   47847.2   209.0   0.000163072   0.00005   0.00168  -0.00595  -0.00388
  0-1A  -> 25-1A    5.945967   47957.5   208.5   0.332904420   0.10911  -0.00257  -0.33031   0.00174
  0-1A  -> 26-1A    6.123920   49392.8   202.5   0.000174686   0.00006  -0.00689  -0.00262  -0.00217
  0-1A  -> 27-1A    6.203301   50033.0   199.9   0.011066821   0.00378   0.00947  -0.06078  -0.00041
  0-1A  -> 28-1A    6.278736   50641.4   197.5   0.000644941   0.00022  -0.00356   0.01386   0.00429
  0-1A  -> 29-1A    6.306040   50861.6   196.6   0.001732574   0.00060   0.00080  -0.01180   0.02151
  0-1A  -> 30-1A    6.355662   51261.9   195.1   0.023580728   0.00826   0.09075  -0.00099   0.00505

------------------------------------------------------------------------------------------
                     CD SPECTRUM VIA TRANSITION ELECTRIC DIPOLE MOMENTS    
------------------------------------------------------------------------------------------
     Transition      Energy     Energy  Wavelength    R        MX        MY        MZ   
                      (eV)      (cm-1)    (nm)   (1e40*cgs)   (au)      (au)      (au)  
------------------------------------------------------------------------------------------
  0-1A  ->  1-1A    1.676088   13518.6   739.7  -11.75276   0.02470  -0.00774   0.00092
  0-1A  ->  2-1A    2.368333   19101.9   523.5   -6.84818   0.01018   0.02287   0.02532
  0-1A  ->  3-1A    3.556096   28681.8   348.7  -58.99404   0.03456   0.06671  -0.00594
  0-1A  ->  4-1A    3.736783   30139.2   331.8   -1.75656  -0.00314   0.00032   0.14692
  0-1A  ->  5-1A    4.014089   32375.8   308.9  -16.16908   0.02604   0.06201   0.00752
  0-1A  ->  6-1A    4.116692   33203.4   301.2    8.04415   0.08573   0.00534  -0.00098
  0-1A  ->  7-1A    4.128183   33296.0   300.3    0.25247   0.00579   0.00364   0.04740
  0-1A  ->  8-1A    4.545321   36660.5   272.8   33.97202  -0.01979   0.02161   1.16967
  0-1A  ->  9-1A    4.597114   37078.2   269.7   23.83328  -0.00345  -0.30471   0.06160
  0-1A  -> 10-1A    4.882674   39381.4   253.9   -0.05829   0.00063  -0.00127   0.00768
  0-1A  -> 11-1A    4.958690   39994.5   250.0   19.28962   0.01284  -0.00745  -0.86413
  0-1A  -> 12-1A    4.978020   40150.4   249.1   18.74983   0.00875   0.02755  -0.44124
  0-1A  -> 13-1A    5.059021   40803.8   245.1   -0.10490  -0.00072  -0.00304  -0.03509
  0-1A  -> 14-1A    5.234699   42220.7   236.9   -0.13636   0.02187  -0.01582  -0.40439
  0-1A  -> 15-1A    5.348454   43138.2   231.8   -3.28131  -0.00227   0.00032   0.07729
  0-1A  -> 16-1A    5.400574   43558.6   229.6   -0.13817  -0.00248  -0.00186  -0.02060
  0-1A  -> 17-1A    5.415747   43680.9   228.9   -0.18601   0.06716   0.00616   0.04615
  0-1A  -> 18-1A    5.524803   44560.5   224.4    0.95066  -0.03178  -0.00225   0.00043
  0-1A  -> 19-1A    5.652459   45590.2   219.3   -0.42487  -0.00455  -0.01425  -0.00401
  0-1A  -> 20-1A    5.812301   46879.4   213.3    3.68699  -0.00430  -0.12941  -0.00532
  0-1A  -> 21-1A    5.827960   47005.7   212.7    2.05500  -0.01434  -0.09406   0.01273
  0-1A  -> 22-1A    5.884497   47461.7   210.7   -7.59704   0.00049  -0.01534  -0.24924
  0-1A  -> 23-1A    5.908278   47653.5   209.8   -3.03549  -0.02189  -0.01714  -0.04355
  0-1A  -> 24-1A    5.932301   47847.2   209.0   -0.73500   0.01127  -0.01697   0.12999
  0-1A  -> 25-1A    5.945967   47957.5   208.5   -5.68535   0.01703   0.00776  -0.00424
  0-1A  -> 26-1A    6.123920   49392.8   202.5    0.83437  -0.01452  -0.10368  -0.00763
  0-1A  -> 27-1A    6.203301   50033.0   199.9   -4.91342  -0.26001  -0.00072  -0.00431
  0-1A  -> 28-1A    6.278736   50641.4   197.5   -7.34337   0.01600  -0.23901  -0.03662
  0-1A  -> 29-1A    6.306040   50861.6   196.6   -7.57866  -0.03014   0.22447  -0.04870
  0-1A  -> 30-1A    6.355662   51261.9   195.1    9.61158   0.05361  -0.04613   0.00208

------------------------------------------------------------------------------------------
                     CD SPECTRUM VIA TRANSITION VELOCITY DIPOLE MOMENTS    
------------------------------------------------------------------------------------------
     Transition      Energy     Energy  Wavelength    R        MX        MY        MZ   
                      (eV)      (cm-1)    (nm)   (1e40*cgs)   (au)      (au)      (au)  
------------------------------------------------------------------------------------------
  0-1A  ->  1-1A    1.676088   13518.6   739.7  -11.77405   0.02470  -0.00774   0.00092
  0-1A  ->  2-1A    2.368333   19101.9   523.5   -6.79521   0.01018   0.02287   0.02532
  0-1A  ->  3-1A    3.556096   28681.8   348.7  -58.74158   0.03456   0.06671  -0.00594
  0-1A  ->  4-1A    3.736783   30139.2   331.8   -1.82231  -0.00314   0.00032   0.14692
  0-1A  ->  5-1A    4.014089   32375.8   308.9  -16.20309   0.02604   0.06201   0.00752
  0-1A  ->  6-1A    4.116692   33203.4   301.2    8.05771   0.08573   0.00534  -0.00098
  0-1A  ->  7-1A    4.128183   33296.0   300.3    0.22631   0.00579   0.00364   0.04740
  0-1A  ->  8-1A    4.545321   36660.5   272.8   35.28878  -0.01979   0.02161   1.16967
  0-1A  ->  9-1A    4.597114   37078.2   269.7   23.98501  -0.00345  -0.30471   0.06160
  0-1A  -> 10-1A    4.882674   39381.4   253.9   -0.05393   0.00063  -0.00127   0.00768
  0-1A  -> 11-1A    4.958690   39994.5   250.0   17.96059   0.01284  -0.00745  -0.86413
  0-1A  -> 12-1A    4.978020   40150.4   249.1   18.55628   0.00875   0.02755  -0.44124
  0-1A  -> 13-1A    5.059021   40803.8   245.1   -0.09666  -0.00072  -0.00304  -0.03509
  0-1A  -> 14-1A    5.234699   42220.7   236.9    0.89438   0.02187  -0.01582  -0.40439
  0-1A  -> 15-1A    5.348454   43138.2   231.8   -3.63718  -0.00227   0.00032   0.07729
  0-1A  -> 16-1A    5.400574   43558.6   229.6   -0.14997  -0.00248  -0.00186  -0.02060
  0-1A  -> 17-1A    5.415747   43680.9   228.9    0.01903   0.06716   0.00616   0.04615
  0-1A  -> 18-1A    5.524803   44560.5   224.4    0.93868  -0.03178  -0.00225   0.00043
  0-1A  -> 19-1A    5.652459   45590.2   219.3   -0.41665  -0.00455  -0.01425  -0.00401
  0-1A  -> 20-1A    5.812301   46879.4   213.3    2.96977  -0.00430  -0.12941  -0.00532
  0-1A  -> 21-1A    5.827960   47005.7   212.7    1.85879  -0.01434  -0.09406   0.01273
  0-1A  -> 22-1A    5.884497   47461.7   210.7   -7.45303   0.00049  -0.01534  -0.24924
  0-1A  -> 23-1A    5.908278   47653.5   209.8   -3.05349  -0.02189  -0.01714  -0.04355
  0-1A  -> 24-1A    5.932301   47847.2   209.0   -0.83132   0.01127  -0.01697   0.12999
  0-1A  -> 25-1A    5.945967   47957.5   208.5   -5.64046   0.01703   0.00776  -0.00424
  0-1A  -> 26-1A    6.123920   49392.8   202.5    0.81232  -0.01452  -0.10368  -0.00763
  0-1A  -> 27-1A    6.203301   50033.0   199.9   -4.99800  -0.26001  -0.00072  -0.00431
  0-1A  -> 28-1A    6.278736   50641.4   197.5   -7.20720   0.01600  -0.23901  -0.03662
  0-1A  -> 29-1A    6.306040   50861.6   196.6   -7.56635  -0.03014   0.22447  -0.04870
  0-1A  -> 30-1A    6.355662   51261.9   195.1    9.93377   0.05361  -0.04613   0.00208

Total run time:    14650.918 sec

           *** ORCA-CIS/TD-DFT FINISHED WITHOUT ERROR ***
-----------------------
CIS/TD-DFT TOTAL ENERGY
-----------------------

    E(SCF)  =  -1267.283417102 Eh
    DE(CIS) =      0.061595088 Eh (Root  1)
    ----------------------------- ---------
    E(tot)  =  -1267.221822014 Eh


Maximum memory used throughout the entire CIS-calculation: 2693.1 MB
=> NOW LEAVING ORCA_CIS

-------------------------   --------------------
FINAL SINGLE POINT ENERGY     -1267.221822014111
-------------------------   --------------------



           ************************************************************
           *        Program running with 4 parallel MPI-processes     *
           *              working on a common directory               *
           ************************************************************

------------------------------------------------------------------------------
                              ORCA PROPERTY CALCULATIONS
------------------------------------------------------------------------------

GBWName                                 ... tddft.gbw
Number of atoms                         ...     44
Number of basis functions               ...    915
Max core memory                         ...   3000 MB

Electric properties:
Dipole moment                           ... YES
Quadrupole moment                       ...  NO
Static polarizability (Dipole/Dipole)   ...  NO
Static polarizability (Dipole/Quad.)    ...  NO
Static polarizability (Quad./Quad.)     ...  NO
Static polarizability (Velocity)        ...  NO
Static hyperpolarizability              ...  NO

Atomic electric properties:
Dipole moment                           ...  NO
Quadrupole moment                       ...  NO
Static polarizability                   ...  NO

Choice of electric origin               ... Center of mass
Position of electric origin             ...    -0.040203    -0.009067     0.343195

General magnetic properties:
Magnetizability                         ...  NO

EPR properties:
g-Tensor (aka g-matrix)                 ...  NO
Zero-Field splitting spin-orbit         ...  NO
Zero-field splitting spin-spin          ...  NO
Hyperfine couplings                     ...  NO (   0 nuclei)
Quadrupole couplings                    ...  NO (   0 nuclei)
Contact density                         ...  NO (   0 nuclei)

NMR properties:
Chemical shifts                         ...  NO (   0 nuclei)
Spin-rotation constants                 ...  NO (   0 nuclei)
Spin-spin couplings                     ...  NO (   0 nuclei,    0 pairs)

Choice of magnetic origin               ... GIAO
Position of magnetic origin             ...     0.000000     0.000000     0.000000

Properties with geometric perturbations:
SCF Hessian                             ...  NO
IR spectrum                             ...  NO
VCD spectrum                            ...  NO
X-ray spectroscopy properties:
SCF XES/XAS/RIXS spectra                ...  NO

SCF SOC stabilization energy            ...  NO
Diagonal Born-Oppenheimer correction    ...  NO

-------------
DIPOLE MOMENT
-------------

Method             : SCF
Type of density    : Electron Density
Multiplicity       :   1
Irrep              :   0
Energy             : -1267.2834171023018826 Eh
Basis              : AO
                                X                 Y                 Z
Electronic contribution:     -0.235037333       0.183917428      -0.775815215
Nuclear contribution   :      0.871965853      -0.262371262       2.077979131
                        -----------------------------------------
Total Dipole Moment    :      0.636928520      -0.078453835       1.302163916
                        -----------------------------------------
Magnitude (a.u.)       :      1.451710649
Magnitude (Debye)      :      3.689955223



--------------------
Rotational spectrum 
--------------------
 
Rotational constants in cm-1:             0.008440             0.007806             0.004278 
Rotational constants in MHz :           253.032612           234.030468           128.263522 

Dipole components along the rotational axes: 
x,y,z [a.u.] :    -0.659980    -0.081334     1.290455 
x,y,z [Debye]:    -1.677535    -0.206734     3.280077 

 

Dipole moment calculation done in   0.0 sec 

Maximum memory used throughout the entire PROP-calculation: 100.1 MB

--------------------------------
SUGGESTED CITATIONS FOR THIS RUN
--------------------------------

Below you find a list of papers that are relevant to this ORCA run
We neither can nor want to force you to cite these papers, but we appreciate if you do
You receive ORCA, which is the product of decades of hard work by many enthusiastic individuals, for free
The only thing we kindly ask in return is that you cite our papers,
We deeply appreciate it, if you show your appreciation for ORCA by not just citing the generic ORCA reference.

Please note that relegating all ORCA citations to the supporting information does *not* help us.
SI sections are not indexed - citations you put there will not count into any citation statistics
But we need these citations in order to attract the funding resources that allow us to do what we are doing

Therefore, if you are a happy ORCA user, please consider citing a few of the papers listed below in the main body of your paper

In addition to the list printed below, the program has created the file tddft.bibtex that contains the list in bibtex format
You can import this file easily into all common literature databanks and citation aid programs

It goes without saying that in many instances, there are alternative algorithms to achieve similar
results as the ones you have gotten from ORCA. It is, of course, also the case that in some instances
ORCA just re-implements algorithms worked out by others. We are fully aware of that and we are also
fully appreciative of our colleagues work. Hence this citation list should not be read as indicating
that the listed papers, which are focused on our own work, are the only ones worth citing. It simply
meant to make it easier for users to cite ORCA specific papers. It is not a substitute for doing your
own literature research and citing the relevant literature in a scientifically appropriate manner.

List of essential papers. We consider these as the minimum necessary citations

  1. Neese, F.
     Software update: the ORCA program system, version 6.0
     WIRES Comput. Molec. Sci. 2025 15(1), e70019
     doi.org/10.1002/wcms.70019

List of papers to cite with high priority. The work reported in these papers was absolutely
necessary for this run to complete.
Our perspective: the developers of density functionals and basis sets usually get cited in chemistry papers
Good! But without the algorithms to do something with them, the functionals or basis sets would not do anything.
Hence, in our opinion, the algorithm design and method developments papers are equally worthy of getting cited

  1. Neese, F.; Olbrich, G.
     Efficient use of the resolution of the identity approximation in time-dependent density functional calculations with hybrid density functionals
     Chem. Phys. Lett. 2002 362 , 170-178
     doi.org/10.1016/s0009-2614(02)01053-9
  2. Neese, F.
     An improvement of the resolution of the identity approximation for the formation of the Coulomb matrix
     J. Comp. Chem. 2003 24(14), 1740-1747
     doi.org/10.1002/jcc.10318
  3. Neese, F.; Wennmohs, F.; Hansen, A.; Becker, U.
     Efficient, approximate and parallel Hartree-Fock and hybrid DFT calculations. A 'chain-of-spheres' algorithm for the Hartree-Fock exchange
     Chem. Phys. 2009 356(1-3), 98-109
     doi.org/10.1016/j.chemphys.2008.10.036
  4. Garcia-Rates, M.; Neese, F.
     Effect of the Solute Cavity on the Solvation Energy and its Derivatives within the Framework of the Gaussian Charge Scheme
     J. Comput. Chem. 2020 41 , 922-939
     doi.org/10.1002/jcc.26139
  5. Helmich-Paris, B.; de Souza, B.; Neese, F.; Izsák, R.
     An improved chain of spheres for exchange algorithm
     J. Chem. Phys. 2021 155(10), 104109
     doi.org/10.1063/5.0058766
  6. Neese, F.
     The SHARK Integral Generation and Digestion System
     J. Comp. Chem. 2022 44(3), 381
     doi.org/10.1002/jcc.26942

List of suggested additional citations. These are papers that are important in the 'surrounding' of 
of this run, or papers that preceded the highly important papers. If you like your results we are grateful for a citation.

  1. Izsak, R.; Neese, F.
     An overlap fitted chain of spheres exchange method
     J. Chem. Phys. 2011 135 , 144105
     doi.org/10.1063/1.3646921
  2. Izsak, R.; Hansen, A.; Neese, F.
     The resolution of identity and chain of spheres approximations for the LPNO-CCSD singles Fock term
     Molec. Phys. 2012 110 , 2413-2417
     doi.org/10.1080/00268976.2012.687466
  3. Neese, F.
     The ORCA program system
     WIRES Comput. Molec. Sci. 2012 2(1), 73-78
     doi.org/10.1002/wcms.81
  4. Izsak, R.; Neese, F.; Klopper, W.
     Robust fitting techniques in the chain of spheres approximation to the Fock exchange: The role of the complementary space
     J. Chem. Phys. 2013 139 , 
     doi.org/10.1063/1.4819264
  5. Neese, F.
     Software update: the ORCA program system, version 4.0
     WIRES Comput. Molec. Sci. 2018 8(1), 1-6
     doi.org/10.1002/wcms.1327
  6. Neese, F.; Wennmohs, F.; Becker, U.; Riplinger, C.
     The ORCA quantum chemistry program package
     J. Chem. Phys. 2020 152(22), 224108
     doi.org/10.1063/5.0004608
  7. Neese, F.
     Software update: The ORCA program system—Version 5.0
     WIRES Comput. Molec. Sci. 2022 12(1), e1606
     doi.org/10.1002/wcms.1606

List of optional additional citations

  1. Neese, F.
     Approximate second-order SCF convergence for spin unrestricted wavefunctions
     Chem. Phys. Lett. 2000 325(1-3), 93-98
     doi.org/10.1016/s0009-2614(00)00662-x

Timings for individual modules:

Sum of individual times          ...    16788.376 sec (= 279.806 min)
Startup calculation              ...       18.677 sec (=   0.311 min)   0.1 %
SCF iterations                   ...     2116.499 sec (=  35.275 min)  12.6 %
Property integrals               ...        1.194 sec (=   0.020 min)   0.0 %
Property calculations            ...        0.667 sec (=   0.011 min)   0.0 %
CIS module                       ...    14651.338 sec (= 244.189 min)  87.3 %
                             ****ORCA TERMINATED NORMALLY****
TOTAL RUN TIME: 0 days 4 hours 39 minutes 48 seconds 767 msec
