
                                 *****************
                                 * O   R   C   A *
                                 *****************

                                            #,                                       
                                            ###                                      
                                            ####                                     
                                            #####                                    
                                            ######                                   
                                           ########,                                 
                                     ,,################,,,,,                         
                               ,,#################################,,                 
                          ,,##########################################,,             
                       ,#########################################, ''#####,          
                    ,#############################################,,   '####,        
                  ,##################################################,,,,####,       
                ,###########''''           ''''###############################       
              ,#####''   ,,,,##########,,,,          '''####'''          '####       
            ,##' ,,,,###########################,,,                        '##       
           ' ,,###''''                  '''############,,,                           
         ,,##''                                '''############,,,,        ,,,,,,###''
      ,#''                                            '''#######################'''  
     '                                                          ''''####''''         
             ,#######,   #######,   ,#######,      ##                                
            ,#'     '#,  ##    ##  ,#'     '#,    #''#        ,####,    ,#,          
            ##       ##  ##   ,#'  ##            #'  '#       #'       ,# #          
            ##       ##  #######   ##           ,######,      #####,      #          
            '#,     ,#'  ##    ##  '#,     ,#' ,#      #,     #,   #      #          
             '#######'   ##     ##  '#######'  #'      '#     '####' #    #          



                #########################################################
                #                        -***-                          #
                #          Department of theory and spectroscopy        #
                #                                                       #
                #                      Frank Neese                      #
                #                                                       #
                #     Directorship, Architecture, Infrastructure        #
                #                    SHARK, DRIVERS                     #
                #        Core code/Algorithms in most modules           #
                #                                                       #
                #        Max Planck Institute fuer Kohlenforschung      #
                #                Kaiser Wilhelm Platz 1                 #
                #                 D-45470 Muelheim/Ruhr                 #
                #                      Germany                          #
                #                                                       #
                #                  All rights reserved                  #
                #                        -***-                          #
                #########################################################


                         Program Version 6.1.1  -  RELEASE   -
                                (GIT: $487d211c$)
                          ($2025-11-21 10:33:24 +0100$)


 With contributions from (in alphabetic order):
[Max-Planck-Institut fuer Kohlenforschung]                               
  Daniel Aravena         : Magnetic Suceptibility                        
  Michael Atanasov       : Ab Initio Ligand Field Theory (pilot matlab implementation)
  Alexander A. Auer      : GIAO ZORA, VPT2 properties, NMR spectrum      
  Ute Becker             : All parallelization in ORCA, NUMFREQ, NUMCALC 
  Giovanni Bistoni       : ED, misc. LED, open-shell LED, HFLD           
  Dmytro Bykov           : pre 5.0 version of the SCF Hessian            
  Marcos Casanova-Páez   : Triplet and SCS-CIS(D). UHF-(DLPNO)-IP/EA/STEOM-CCSD. UHF-CVS-IP/STEOM-CCSD   
  Vijay G. Chilkuri      : MRCI spin determinant printing, contributions to CSF-ICE 
  Pauline Colinet        : FMM embedding                                 
  Dipayan Datta          : RHF DLPNO-CCSD density                        
  Achintya Kumar Dutta   : EOM-CC, STEOM-CC                              
  Nicolas Foglia         : Exact transition moments, OPA infrastructure, MCD improvements    
  Dmitry Ganyushin       : Spin-Orbit,Spin-Spin,Magnetic field MRCI      
  Miquel Garcia-Rates    : C-PCM and meta-GGA Hessian, CCSD/C-PCM, Gaussian charge scheme 
  Tiago L. C. Gouveia    : GS-ROHF, GS-ROCIS                             
  Yang Guo               : DLPNO-NEVPT2, F12-NEVPT2, CIM, IAO-localization        
  Andreas Hansen         : Spin unrestricted coupled pair/coupled cluster methods 
  Ingolf Harden          : AUTO-CI MPn and infrastructure                
  Benjamin Helmich-Paris : MC-RPA, TRAH-(SCF,CASSCF), AVAS, COSX integrals, SCF dyn. polar., MC-PDFT, srDFT 
  Lee Huntington         : MR-EOM, pCC                                   
  Robert Izsak           : Overlap fitted RIJCOSX, COSX-SCS-MP3, EOM     
  Riya Kayal             : Wick's Theorem for AUTO-CI, AUTO-CI UHF-CCSDT 
  Emily Kempfer          : AUTO-CI RHF CISDT and CCSDT, approximate NEVPT4
  Christian Kollmar      : KDIIS, OOCD, Brueckner-CCSD(T), CCSD density, CASPT2, CASPT2-K, improved NEVPT2 
  Axel Koslowski         : Symmetry handling                             
  Simone Kossmann        : meta-GGA functionals, TD-DFT gradient, OOMP2, (MP2 Hessian; deprecated post 5.0) 
  Lucas Lang             : DCDCAS, Hyperfine gauge corrections, ICE-SOC+SSC
  Marvin Lechner         : AUTO-CI (C++ implementation), FIC-MRCC        
  Spencer Leger          : CASSCF response                               
  Dagmar Lenk            : GEPOL surface, SMD, ORCA-2-JSON               
  Dimitrios Liakos       : Extrapolation schemes; Compound Job, Property file
  Dimitrios Manganas     : Further ROCIS development; embedding schemes. LFT, Crystal Embedding 
  Dimitrios Pantazis     : SARC Basis sets                               
  Anastasios Papadopoulos: AUTO-CI, single reference methods and gradients 
  Taras Petrenko         : pre 6.0 DFT Hessian and TD-DFT gradient,  ECA, NRVS 
  Petra Pikulova         : Analytic Raman intensities                    
  Peter Pinski           : DLPNO-MP2, DLPNO-MP2 Gradient                 
  Shashank Vittal Rao    : ES-AILFT, MagRelax                            
  Christoph Reimann      : Effective Core Potentials                     
  Marius Retegan         : Local ZFS, SOC                                
  Christoph Riplinger    : Optimizer, TS searches, QM/MM, DLPNO-CCSD(T), (RO)-DLPNO pert. Triples 
  Michael Roemelt        : Original ROCIS implementation, recursive CI coupling coefficients
  Masaaki Saitow         : Open-shell DLPNO-CCSD energy and density      
  Barbara Sandhoefer     : DKH picture change effects                    
  Yorick L. A. Schmerwitz: GMF and freeze-and-release deltaSCF, NEB S-IDPP initial path                    
  Kantharuban Sivalingam : CASSCF convergence/infrastructure, NEVPT2, NEVPT3, NEVPT4(SD), FIC-MRCI and CEPA variants
  Bernardo de Souza      : ESD, SOC TD-DFT                               
  Georgi L. Stoychev     : AutoAux, RI-MP2 NMR, DLPNO-MP2 response, X2C  
  Van Anh Tran           : RI-MP2 g-tensors                              
  Willem Van den Heuvel  : Paramagnetic NMR                              
  Zikuan Wang            : NOTCH, Electric field optimization            
  Frank Wennmohs         : Technical directorship and infrastructure     
  Hang Xu                : AUTO-CI-Response properties                   
                                                                         
[FACCTs GmbH]                                                            
  Markus Bursch, Nicolas Foglia, Miquel Garcia-Rates, Ingolf Harden, Hagen Neugebauer, Anastasios Papadopoulos, 
  Christoph Riplinger, Bernardo de Souza, Georgi L. Stoychev                                                    
                                                                 
  APM, various basis sets, CI-OPT, improved COSX, DLPNO-Multilevel,           
  DOCKER, DRACO, updates on ESD, Fragmentator, GOAT, IRC, LR-CPCM, L-BFGS, MBIS, meta-GGA TD-DFT gradient, ML-optimized integration grids, 
  MM, NACMEs, nearIR, NEB, NEB-TS, NL-DFT gradient (VV10), 2- and 3-layer-ONIOM, interface openCOSMO-RS, QMMM,   
  Crystal-QMMM, RESP, rigid body optimization, SF, symmetry and pop. for TD-DFT, various functionals, SOLVATOR                                   
                                                                         
[Other institutions]                                                     
  V. Asgeirsson          : NEB                                           
  Christoph Bannwarth    : sTDA-DFT, sTD-DFT, PBEh-3c, B97-3c, D3        
  Giovanni Bistoni       : ETS/NOCV, ADLD/ADEX, COVALED                  
  Martin Brehm           : Molecular dynamics                            
  Ronald Cardenas        : ETS/NOCV                                      
  Martina Colucci        : COVALED                                       
  Sebastian Ehlert       : rSCAN, r2SCAN, r2SCAN-3c, D4, dhf basis sets  
  Marvin Friede          : D4 for Fr, Ra, Ac-Lr                          
  Lars Goerigk           : TD-DFT with DH, B97 family of functionals     
  Stefan Grimme          : VdW corrections, initial TS optimization, DFT functionals, gCP, sTDA/sTD-DF 
  Waldemar Hujo          : DFT-NL                                        
  H. Jonsson             : NEB                                           
  Holger Kruse           : gCP                                           
  Marcel Mueller         : wB97X-3c, vDZP basis set                      
  Hagen Neugebauer       : wr2SCAN, Native XTB                           
  Gianluca Regni         : ADLD/ADEX                                     
  Tobias Risthaus        : pre 6.0 range-separated hybrid DFT and stability analysis
  Lukas Wittmann         : regularized MP2, r2SCAN double-hybrids, wr2SCAN        
                                                                         
We gratefully acknowledge several colleagues who have allowed us to      
interface, adapt or use parts of their codes:                            
  Ed Valeev, F. Pavosevic, A. Kumar             : LibInt (2-el integral package), F12 methods 
  Garnet Chan, S. Sharma, J. Yang, R. Olivares  : DMRG                   
  Ulf Ekstrom                                   : XCFun DFT Library      
  Mihaly Kallay                                 : mrcc  (arbitrary order and MRCC methods)
  Frank Weinhold                                : gennbo (NPA and NBO analysis)           
  Simon Mueller                                 : openCOSMO-RS                            
  Christopher J. Cramer and Donald G. Truhlar   : smd solvation model                     
  S Lehtola, MJT Oliveira, MAL Marques          : LibXC Library                           
  Liviu Ungur et al                             : ANISO software                          


 Your calculation uses the libint2 library for the computation of 2-el integrals
 For citations please refer to: http://libint.valeyev.net

 Your ORCA version has been built with support for libXC version: 7.0.0
 For citations please refer to: https://libxc.gitlab.io

 This ORCA versions uses:
   CBLAS   interface :  Fast vector & matrix operations
   LAPACKE interface :  Fast linear algebra routines
   SCALAPACK package :  Parallel linear algebra routines
   Shared memory     :  Shared parallel matrices
   BLAS/LAPACK       :  OpenBLAS 0.3.29  USE64BITINT DYNAMIC_ARCH NO_AFFINITY Haswell SINGLE_THREADED
        Core in use  :  Haswell
   Copyright (c) 2011-2014, The OpenBLAS Project


  ***********************************
  * Starting time: Tue Jul  7 19:47:10 2026
  * Host name:     steezy
  * Process ID:    1593015
  * Working dir.:  /home/jannes/chlorophyll-ladder/008-mgbacteriochlorin-axial-ligation/mgbacteriochlorin_meoh/03_tddft_ch2cl2/camb3lyp
  ***********************************

NOTE: MaxCore=3000 MB was set to SCF,MP2,MDCI,CIPSI,MRCI,RASCI and CIS
      => If you want to overwrite this, your respective input block should be placed after the MaxCore statement


***************************************
The coordinates will be read from file: /home/jannes/chlorophyll-ladder/008-mgbacteriochlorin-axial-ligation/mgbacteriochlorin_meoh/01_opt/mgbacteriochlorin_meoh_opt_b3lypd4_tzvp.xyz
***************************************


XCFun DFT library Copyright 2009-2010 Ulf Ekstrom and contributors.
See http://admol.org/xcfun for more information.
This is free software; see the source code for copying conditions.
There is ABSOLUTELY NO WARRANTY; not even for MERCHANTABILITY or FITNESS FOR A PARTICULAR PURPOSE.
For details see the documentation.
Scientific users of this library should cite U. Ekstrom, L. Visscher, R. Bast, A. J. Thorvaldsen and K. Ruud;
J.Chem.Theor.Comp. 2010, DOI: 10.1021/ct100117s
XCFun Version 0.99 

================================================================================

----- Orbital basis set information -----
Your calculation utilizes the basis: def2-TZVP
   F. Weigend and R. Ahlrichs, Phys. Chem. Chem. Phys. 7, 3297 (2005).

----- AuxJ basis set information -----
Your calculation utilizes the auxiliary basis: def2/J
   H-Rn: F. Weigend, Phys. Chem. Chem. Phys. 8, 1057 (2006).
   Fr-Lr: K. Eichkorn, F. Weigend, O. Treutler, R. Ahlrichs; Theor. Chem. Acc. 97, 119 (1997).

================================================================================
                                        WARNINGS
                       Please study these warnings very carefully!
================================================================================


WARNING: CIS/ROCIS methods need fully converged wavefunctions
  ===> : Setting SCFConvForced true
         You can overwrite this default with %scf ConvForced false 


================================================================================
                                       INPUT FILE
================================================================================
NAME = tddft.inp
|  1> %pal nprocs 4 end
|  2> %maxcore 3000
|  3> ! CAM-B3LYP def2-TZVP def2/J RIJCOSX DefGrid3 TightSCF CPCM(CH2Cl2)
|  4> %tddft
|  5>   nroots 30
|  6>   tda false
|  7>   triplets false
|  8> end
|  9> * xyzfile 0 1 /home/jannes/chlorophyll-ladder/008-mgbacteriochlorin-axial-ligation/mgbacteriochlorin_meoh/01_opt/mgbacteriochlorin_meoh_opt_b3lypd4_tzvp.xyz
| 10> 
| 11>                          ****END OF INPUT****
================================================================================

                       ****************************
                       * Single Point Calculation *
                       ****************************

---------------------------------
CARTESIAN COORDINATES (ANGSTROEM)
---------------------------------
  N     -2.056534    0.064066    0.195273
  N      2.196097    0.017237   -0.055198
  N      0.047142   -1.997678    0.128778
  N      0.092636    2.082294    0.040843
  C     -4.302985   -0.669869    0.375257
  C      4.412842   -0.773036   -0.326220
  C     -4.292762    0.847490    0.140755
  C      4.445514    0.753568   -0.163990
  C     -2.833492   -1.040135    0.275566
  C      2.944418   -1.105549   -0.132262
  C     -2.812309    1.185908    0.158149
  C      2.973747    1.122620   -0.112979
  C     -1.058360   -2.799045    0.207374
  C      1.134821   -2.822845    0.041115
  C     -0.999786    2.906696    0.044591
  C      1.198403    2.882961   -0.052909
  C     -2.381013   -2.343353    0.291686
  C      2.464498   -2.398157   -0.076595
  C     -2.333775    2.478567    0.105930
  C      2.522471    2.425996   -0.106327
  C     -0.658064   -4.175076    0.179954
  C      0.704790   -4.189790    0.074892
  C     -0.572126    4.271379   -0.039540
  C      0.794196    4.256564   -0.099611
  H     -4.907306   -1.213126   -0.352060
  H     -4.689504   -0.928439    1.365281
  H      5.044405   -1.296154    0.392893
  H      4.738481   -1.084172   -1.322516
  H     -4.723657    1.112272   -0.828575
  H     -4.846632    1.405038    0.897142
  H      4.938530    1.055339    0.764181
  H      4.962432    1.261575   -0.978953
  H     -3.140443   -3.113523    0.357172
  H      3.204445   -3.186544   -0.147882
  H     -3.079818    3.264302    0.086697
  H      3.282718    3.195898   -0.165340
  H     -1.329360   -5.018844    0.223576
  H      1.356552   -5.047854    0.016948
  H     -1.227758    5.128250   -0.060576
  H      1.463641    5.099288   -0.177876
  Mg     0.091692    0.043218    0.296571
  O      0.120484    0.213118    2.403881
  C     -0.599692   -0.688622    3.258236
  H     -0.278970   -0.566808    4.294035
  H     -1.676252   -0.529858    3.174387
  H     -0.361741   -1.692255    2.916251
  H     -0.061689    1.129512    2.644354

----------------------------
CARTESIAN COORDINATES (A.U.)
----------------------------
  NO LB      ZA    FRAG     MASS         X           Y           Z
   0 N     7.0000    0    14.007   -3.886287    0.121068    0.369013
   1 N     7.0000    0    14.007    4.150023    0.032574   -0.104310
   2 N     7.0000    0    14.007    0.089085   -3.775065    0.243355
   3 N     7.0000    0    14.007    0.175056    3.934965    0.077182
   4 C     6.0000    0    12.011   -8.131464   -1.265870    0.709133
   5 C     6.0000    0    12.011    8.339063   -1.460826   -0.616467
   6 C     6.0000    0    12.011   -8.112144    1.601524    0.265988
   7 C     6.0000    0    12.011    8.400804    1.424037   -0.309896
   8 C     6.0000    0    12.011   -5.354524   -1.965570    0.520744
   9 C     6.0000    0    12.011    5.564144   -2.089185   -0.249938
  10 C     6.0000    0    12.011   -5.314493    2.241042    0.298858
  11 C     6.0000    0    12.011    5.619568    2.121444   -0.213500
  12 C     6.0000    0    12.011   -2.000011   -5.289428    0.391880
  13 C     6.0000    0    12.011    2.144501   -5.334403    0.077697
  14 C     6.0000    0    12.011   -1.889321    5.492859    0.084264
  15 C     6.0000    0    12.011    2.264653    5.448007   -0.099984
  16 C     6.0000    0    12.011   -4.499463   -4.428295    0.551207
  17 C     6.0000    0    12.011    4.657226   -4.531859   -0.144744
  18 C     6.0000    0    12.011   -4.410196    4.683814    0.200179
  19 C     6.0000    0    12.011    4.766779    4.584468   -0.200928
  20 C     6.0000    0    12.011   -1.243560   -7.889750    0.340063
  21 C     6.0000    0    12.011    1.331861   -7.917555    0.141526
  22 C     6.0000    0    12.011   -1.081161    8.071737   -0.074721
  23 C     6.0000    0    12.011    1.500812    8.043740   -0.188238
  24 H     1.0000    0     1.008   -9.273464   -2.292477   -0.665297
  25 H     1.0000    0     1.008   -8.861879   -1.754495    2.580008
  26 H     1.0000    0     1.008    9.532543   -2.449376    0.742459
  27 H     1.0000    0     1.008    8.954431   -2.048789   -2.499192
  28 H     1.0000    0     1.008   -8.926419    2.101889   -1.565780
  29 H     1.0000    0     1.008   -9.158807    2.655136    1.695353
  30 H     1.0000    0     1.008    9.332468    1.994302    1.444093
  31 H     1.0000    0     1.008    9.377638    2.384031   -1.849953
  32 H     1.0000    0     1.008   -5.934577   -5.883706    0.674957
  33 H     1.0000    0     1.008    6.055524   -6.021695   -0.279457
  34 H     1.0000    0     1.008   -5.820012    6.168637    0.163833
  35 H     1.0000    0     1.008    6.203438    6.039373   -0.312448
  36 H     1.0000    0     1.008   -2.512127   -9.484241    0.422498
  37 H     1.0000    0     1.008    2.563512   -9.539062    0.032028
  38 H     1.0000    0     1.008   -2.320126    9.690988   -0.114473
  39 H     1.0000    0     1.008    2.765881    9.636257   -0.336136
  40 Mg   12.0000    0    24.305    0.173273    0.081670    0.560438
  41 O     8.0000    0    15.999    0.227681    0.402735    4.542677
  42 C     6.0000    0    12.011   -1.133253   -1.301308    6.157174
  43 H     1.0000    0     1.008   -0.527177   -1.071112    8.114549
  44 H     1.0000    0     1.008   -3.167657   -1.001286    5.998721
  45 H     1.0000    0     1.008   -0.683591   -3.197898    5.510916
  46 H     1.0000    0     1.008   -0.116576    2.134469    4.997104

--------------------------------
INTERNAL COORDINATES (ANGSTROEM)
--------------------------------
 N      0   0   0     0.000000000000     0.00000000     0.00000000
 N      1   0   0     4.260258894745     0.00000000     0.00000000
 N      1   2   0     2.946296765579    43.80106352     0.00000000
 N      2   1   3     2.949276643465    43.81765121   180.83025142
 C      1   2   3     2.370147068312   161.29363812     1.97910240
 C      2   1   3     2.368953595941   160.81566609    11.98716236
 C      5   1   2     1.535407035037    71.09939603   185.45256901
 C      6   2   1     1.535547127463    71.10529137   175.50682946
 C      1   2   3     1.352542054615   124.60603460     0.16413444
 C      2   1   3     1.351507461999   124.41522660     3.30288946
 C      1   2   3     1.353182154120   124.40342312   182.57563594
 C      2   1   3     1.352756048920   124.56657717   180.99523417
 C      3   1   2     1.367662238193    80.30439448   180.39971298
 C      3   1   2     1.368075539549   172.38795394   345.16461659
 C      4   2   1     1.368589579090   172.37549225   344.20615026
 C      4   2   1     1.368421955428    80.27810313   180.74371087
 C      9   1   2     1.379628236228   125.69475707     0.12667858
 C     10   2   1     1.379947649131   125.68442486   356.64093580
 C     11   1   2     1.379380053294   125.74628036   356.37373825
 C     12   2   1     1.379305373447   125.72274171   359.69540643
 C     13   3   1     1.433335097275   109.61333506   178.40908255
 C     21  13   3     1.366976549656   106.87220114   359.61581618
 C     15   4  16     1.432596230891   109.59534337   359.56930083
 C     23  15   4     1.367721655999   106.88641971     0.24453404
 H      5   1   2     1.090560446494   128.96368932   290.45525623
 H      5   1   2     1.093802370642   118.48082874    80.13068557
 H      6   2   1     1.090709266808   128.78520442   280.59669948
 H      6   2   1     1.093366821637   118.54666132    70.29334348
 H      7   5   1     1.093334729742   111.84609463   113.61430082
 H      7   5   1     1.090758111885   113.31937997   234.55072544
 H      8   6   2     1.093449775732   111.94074631   113.77029309
 H      8   6   2     1.090614637781   113.21758066   234.79396255
 H     17   9   1     1.083597648587   116.24680465   180.17695538
 H     18  10   2     1.083585492989   116.19193362   180.34640671
 H     19  11   1     1.083664579568   116.18841036   180.30919688
 H     20  12   2     1.083608768782   116.20477021   180.40128664
 H     21  13   3     1.079114567213   125.17964441   180.28034003
 H     22  21  13     1.079085667824   127.94168730   180.66009321
 H     23  15   4     1.079130607038   125.18183288   179.64039125
 H     24  23  15     1.079104640076   127.91285873   179.44393124
 Mg     3   1   2     2.048266466217    46.87629443     8.74969706
 O     41   3   1     2.114344210881    99.32359301    93.32264095
 C     42  41   3     1.435866194424   122.39386503   324.07204090
 H     43  42  41     1.091136517270   110.32208002   167.49410726
 H     43  42  41     1.091429614092   110.95671603   290.01798993
 H     43  42  41     1.086670550185   106.43566245    48.51580145
 H     42  41   3     0.964775500348   108.79470456   192.91255053

---------------------------
INTERNAL COORDINATES (A.U.)
---------------------------
 N      0   0   0     0.000000000000     0.00000000     0.00000000
 N      1   0   0     8.050722570670     0.00000000     0.00000000
 N      1   2   0     5.567693996202    43.80106352     0.00000000
 N      2   1   3     5.573325149319    43.81765121   180.83025142
 C      1   2   3     4.478928856226   161.29363812     1.97910240
 C      2   1   3     4.476673520297   160.81566609    11.98716236
 C      5   1   2     2.901498800316    71.09939603   185.45256901
 C      6   2   1     2.901763536635    71.10529137   175.50682946
 C      1   2   3     2.555934067834   124.60603460     0.16413444
 C      2   1   3     2.553978971130   124.41522660     3.30288946
 C      1   2   3     2.557143680596   124.40342312   182.57563594
 C      2   1   3     2.556338458464   124.56657717   180.99523417
 C      3   1   2     2.584507073890    80.30439448   180.39971298
 C      3   1   2     2.585288100264   172.38795394   345.16461659
 C      4   2   1     2.586259494218   172.37549225   344.20615026
 C      4   2   1     2.585942731405    80.27810313   180.74371087
 C      9   1   2     2.607119533096   125.69475707     0.12667858
 C     10   2   1     2.607723136005   125.68442486   356.64093580
 C     11   1   2     2.606650535319   125.74628036   356.37373825
 C     12   2   1     2.606509410861   125.72274171   359.69540643
 C     13   3   1     2.708610791987   109.61333506   178.40908255
 C     21  13   3     2.583211310342   106.87220114   359.61581618
 C     15   4  16     2.707214536872   109.59534337   359.56930083
 C     23  15   4     2.584619357271   106.88641971     0.24453404
 H      5   1   2     2.060860576361   128.96368932   290.45525623
 H      5   1   2     2.066986925147   118.48082874    80.13068557
 H      6   2   1     2.061141805997   128.78520442   280.59669948
 H      6   2   1     2.066163856809   118.54666132    70.29334348
 H      7   5   1     2.066103211917   111.84609463   113.61430082
 H      7   5   1     2.061234109815   113.31937997   234.55072544
 H      8   6   2     2.066320617332   111.94074631   113.77029309
 H      8   6   2     2.060962983052   113.21758066   234.79396255
 H     17   9   1     2.047702795191   116.24680465   180.17695538
 H     18  10   2     2.047679824439   116.19193362   180.34640671
 H     19  11   1     2.047829276414   116.18841036   180.30919688
 H     20  12   2     2.047723809314   116.20477021   180.40128664
 H     21  13   3     2.039230999157   125.17964441   180.28034003
 H     22  21  13     2.039176387227   127.94168730   180.66009321
 H     23  15   4     2.039261310035   125.18183288   179.64039125
 H     24  23  15     2.039212239588   127.91285873   179.44393124
 Mg     3   1   2     3.870662670445    46.87629443     8.74969706
 O     41   3   1     3.995531511406    99.32359301    93.32264095
 C     42  41   3     2.713393872417   122.39386503   324.07204090
 H     43  42  41     2.061949192361   110.32208002   167.49410726
 H     43  42  41     2.062503065084   110.95671603   290.01798993
 H     43  42  41     2.053509737648   106.43566245    48.51580145
 H     42  41   3     1.823161476375   108.79470456   192.91255053

---------------------
BASIS SET INFORMATION
---------------------
There are 5 groups of distinct atoms

 Group   1 Type N   : 11s6p2d1f contracted to 5s3p2d1f pattern {62111/411/11/1}
 Group   2 Type C   : 11s6p2d1f contracted to 5s3p2d1f pattern {62111/411/11/1}
 Group   3 Type H   : 5s1p contracted to 3s1p pattern {311/1}
 Group   4 Type Mg  : 14s8p3d contracted to 5s4p3d pattern {73211/5111/111}
 Group   5 Type O   : 11s6p2d1f contracted to 5s3p2d1f pattern {62111/411/11/1}

Atom   0N    basis set group =>   1
Atom   1N    basis set group =>   1
Atom   2N    basis set group =>   1
Atom   3N    basis set group =>   1
Atom   4C    basis set group =>   2
Atom   5C    basis set group =>   2
Atom   6C    basis set group =>   2
Atom   7C    basis set group =>   2
Atom   8C    basis set group =>   2
Atom   9C    basis set group =>   2
Atom  10C    basis set group =>   2
Atom  11C    basis set group =>   2
Atom  12C    basis set group =>   2
Atom  13C    basis set group =>   2
Atom  14C    basis set group =>   2
Atom  15C    basis set group =>   2
Atom  16C    basis set group =>   2
Atom  17C    basis set group =>   2
Atom  18C    basis set group =>   2
Atom  19C    basis set group =>   2
Atom  20C    basis set group =>   2
Atom  21C    basis set group =>   2
Atom  22C    basis set group =>   2
Atom  23C    basis set group =>   2
Atom  24H    basis set group =>   3
Atom  25H    basis set group =>   3
Atom  26H    basis set group =>   3
Atom  27H    basis set group =>   3
Atom  28H    basis set group =>   3
Atom  29H    basis set group =>   3
Atom  30H    basis set group =>   3
Atom  31H    basis set group =>   3
Atom  32H    basis set group =>   3
Atom  33H    basis set group =>   3
Atom  34H    basis set group =>   3
Atom  35H    basis set group =>   3
Atom  36H    basis set group =>   3
Atom  37H    basis set group =>   3
Atom  38H    basis set group =>   3
Atom  39H    basis set group =>   3
Atom  40Mg   basis set group =>   4
Atom  41O    basis set group =>   5
Atom  42C    basis set group =>   2
Atom  43H    basis set group =>   3
Atom  44H    basis set group =>   3
Atom  45H    basis set group =>   3
Atom  46H    basis set group =>   3
---------------------------------
AUXILIARY/J BASIS SET INFORMATION
---------------------------------
There are 5 groups of distinct atoms

 Group   1 Type N   : 12s5p4d2f1g contracted to 6s4p3d1f1g pattern {711111/2111/211/2/1}
 Group   2 Type C   : 12s5p4d2f1g contracted to 6s4p3d1f1g pattern {711111/2111/211/2/1}
 Group   3 Type H   : 5s2p1d contracted to 3s1p1d pattern {311/2/1}
 Group   4 Type Mg  : 14s5p5d2f1g contracted to 8s4p4d1f1g pattern {71111111/2111/2111/2/1}
 Group   5 Type O   : 12s5p4d2f1g contracted to 6s4p3d1f1g pattern {711111/2111/211/2/1}

Atom   0N    basis set group =>   1
Atom   1N    basis set group =>   1
Atom   2N    basis set group =>   1
Atom   3N    basis set group =>   1
Atom   4C    basis set group =>   2
Atom   5C    basis set group =>   2
Atom   6C    basis set group =>   2
Atom   7C    basis set group =>   2
Atom   8C    basis set group =>   2
Atom   9C    basis set group =>   2
Atom  10C    basis set group =>   2
Atom  11C    basis set group =>   2
Atom  12C    basis set group =>   2
Atom  13C    basis set group =>   2
Atom  14C    basis set group =>   2
Atom  15C    basis set group =>   2
Atom  16C    basis set group =>   2
Atom  17C    basis set group =>   2
Atom  18C    basis set group =>   2
Atom  19C    basis set group =>   2
Atom  20C    basis set group =>   2
Atom  21C    basis set group =>   2
Atom  22C    basis set group =>   2
Atom  23C    basis set group =>   2
Atom  24H    basis set group =>   3
Atom  25H    basis set group =>   3
Atom  26H    basis set group =>   3
Atom  27H    basis set group =>   3
Atom  28H    basis set group =>   3
Atom  29H    basis set group =>   3
Atom  30H    basis set group =>   3
Atom  31H    basis set group =>   3
Atom  32H    basis set group =>   3
Atom  33H    basis set group =>   3
Atom  34H    basis set group =>   3
Atom  35H    basis set group =>   3
Atom  36H    basis set group =>   3
Atom  37H    basis set group =>   3
Atom  38H    basis set group =>   3
Atom  39H    basis set group =>   3
Atom  40Mg   basis set group =>   4
Atom  41O    basis set group =>   5
Atom  42C    basis set group =>   2
Atom  43H    basis set group =>   3
Atom  44H    basis set group =>   3
Atom  45H    basis set group =>   3
Atom  46H    basis set group =>   3


           ************************************************************
           *        Program running with 4 parallel MPI-processes     *
           *              working on a common directory               *
           ************************************************************
------------------------------------------------------------------------------
                             ORCA STARTUP CALCULATIONS
                           -- RI-GTO INTEGRALS CHOSEN --
------------------------------------------------------------------------------
------------------------------------------------------------------------------
                   ___                                                        
                  /   \      - P O W E R E D   B Y -                         
                 /     \                                                     
                 |  |  |   _    _      __       _____    __    __             
                 |  |  |  | |  | |    /  \     |  _  \  |  |  /  |          
                  \  \/   | |  | |   /    \    | | | |  |  | /  /          
                 / \  \   | |__| |  /  /\  \   | |_| |  |  |/  /          
                |  |  |   |  __  | /  /__\  \  |    /   |      \           
                |  |  |   | |  | | |   __   |  |    \   |  |\   \          
                \     /   | |  | | |  |  |  |  | |\  \  |  | \   \       
                 \___/    |_|  |_| |__|  |__|  |_| \__\ |__|  \__/        
                                                                              
                      - O R C A' S   B I G   F R I E N D -                    
                                      &                                       
                       - I N T E G R A L  F E E D E R -                       
                                                                              
 v1 FN, 2020, v2 2021, v3 2022-2024                                           
------------------------------------------------------------------------------


----------------------
SHARK INTEGRAL PACKAGE
----------------------

Number of atoms                             ...     47
Number of basis functions                   ...    958
Number of shells                            ...    378
Maximum angular momentum                    ...      3
Integral batch strategy                     ... SHARK/LIBINT Hybrid
RI-J (if used) integral strategy            ... SPLIT-RIJ (Revised 2003 algorithm where possible)
Printlevel                                  ...      1
Contraction scheme used                     ... SEGMENTED contraction
Prescreening option                         ... SCHWARTZ
   Thresh                                   ... 2.500e-11
   Tcut                                     ... 2.500e-12
   Tpresel                                  ... 2.500e-12 
Coulomb Range Separation                    ... NOT USED
Exchange Range Separation                   ... Long Range
   Mu parameter                             ... 3.300e-01
   Scaling (regular/separated)              ... 1.900e-01 4.600e-01
Robust (split-)RI terms used:
  metric    (central integrals)             ... YES
  density   (r.h.s.  integrals)             ... YES
  potential (l.h.s.  integrals)             ... YES
Multipole approximations                    ... NOT USED
Finite Nucleus Model                        ... NOT USED
CABS basis                                  ... NOT available
Auxiliary Coulomb fitting basis             ... AVAILABLE
   # of basis functions in Aux-J            ...   1550
   # of shells in Aux-J                     ...    508
   Maximum angular momentum in Aux-J        ...      4
Auxiliary J/K fitting basis                 ... NOT available
Auxiliary Correlation fitting basis         ... NOT available
Auxiliary 'external' fitting basis          ... NOT available

Checking pre-screening integrals            ... done (  0.0 sec) Dimension = 378
   => SHARK Basis and OBASIS are compatible. Storing Pre-screening
Shell pair information
Shell pair cut-off parameter TPreSel        ...   2.5e-12
Total number of shell pairs                 ...     71631
Shell pairs after pre-screening             ...     50412
Total number of primitive shell pairs       ...    222112
Primitive shell pairs kept                  ...    101345
          la=0 lb=0:  12812 shell pairs
          la=1 lb=0:  14597 shell pairs
          la=1 lb=1:   4158 shell pairs
          la=2 lb=0:   7321 shell pairs
          la=2 lb=1:   4254 shell pairs
          la=2 lb=2:   1130 shell pairs
          la=3 lb=0:   3128 shell pairs
          la=3 lb=1:   1876 shell pairs
          la=3 lb=2:    930 shell pairs
          la=3 lb=3:    206 shell pairs

Checking whether 4 symmetric matrices of dimension 958 fit in memory
:Max Core in MB      =   3000.00
 MB in use           =     64.03
 MB left             =   2935.97
 MB needed           =     14.02
 Data fit in memory  = YES
Calculating RI/J V-Matrix + Cholesky decomp.... done (  0.2 sec)
Calculating Nuclear repulsion               ... done (  0.0 sec) ENN=   2623.086717603639 Eh

Diagonalization of the overlap matrix:
Smallest eigenvalue                        ... 1.001e-05
Time for diagonalization                   ...    0.266 sec
Threshold for overlap eigenvalues          ... 1.000e-07
Number of eigenvalues below threshold      ... 0
Time for construction of square roots      ...    0.170 sec
Total time needed                          ...    0.446 sec

-------------------
DFT GRID GENERATION
-------------------

General Integration Accuracy     IntAcc      ... 4.959
Radial Grid Type                 RadialGrid  ... OptM3 with GC (2021)
Angular Grid (max. ang.)         AngularGrid ... 6 (Lebedev-590)
Angular grid pruning method      GridPruning ... 4 (adaptive)
Weight generation scheme         WeightScheme... mBecke (2022)
Basis function cutoff            BFCut       ... 1.0000e-11
Integration weight cutoff        WCut        ... 1.0000e-14
Partially contracted basis set               ... off
Rotationally invariant grid construction     ... off
Angular grids for H and He will be reduced by one unit

Total number of grid points                  ...   550626
Total number of batches                      ...     8629
Average number of points per batch           ...       63
Average number of grid points per atom       ...    11715

--------------------
COSX GRID GENERATION
--------------------

GRIDX 1
-------
General Integration Accuracy     IntAcc      ... 4.020
Radial Grid Type                 RadialGrid  ... OptM3 with GC (2021)
Angular Grid (max. ang.)         AngularGrid ... 2 (Lebedev-110)
Angular grid pruning method      GridPruning ... 4 (adaptive)
Weight generation scheme         WeightScheme... mBecke (2022)
Basis function cutoff            BFCut       ... 1.0000e-11
Integration weight cutoff        WCut        ... 1.0000e-14
Partially contracted basis set               ... on
Rotationally invariant grid construction     ... off
Angular grids for H and He will be reduced by one unit

Total number of grid points                  ...    61520
Total number of batches                      ...      505
Average number of points per batch           ...      121
Average number of grid points per atom       ...     1309
UseSFitting                                  ... on

GRIDX 2
-------
General Integration Accuracy     IntAcc      ... 4.338
Radial Grid Type                 RadialGrid  ... OptM3 with GC (2021)
Angular Grid (max. ang.)         AngularGrid ... 3 (Lebedev-194)
Angular grid pruning method      GridPruning ... 4 (adaptive)
Weight generation scheme         WeightScheme... mBecke (2022)
Basis function cutoff            BFCut       ... 1.0000e-11
Integration weight cutoff        WCut        ... 1.0000e-14
Partially contracted basis set               ... on
Rotationally invariant grid construction     ... off
Angular grids for H and He will be reduced by one unit

Total number of grid points                  ...   134764
Total number of batches                      ...     1074
Average number of points per batch           ...      125
Average number of grid points per atom       ...     2867
UseSFitting                                  ... on

GRIDX 3
-------
General Integration Accuracy     IntAcc      ... 4.871
Radial Grid Type                 RadialGrid  ... OptM3 with GC (2021)
Angular Grid (max. ang.)         AngularGrid ... 4 (Lebedev-302)
Angular grid pruning method      GridPruning ... 4 (adaptive)
Weight generation scheme         WeightScheme... mBecke (2022)
Basis function cutoff            BFCut       ... 1.0000e-11
Integration weight cutoff        WCut        ... 1.0000e-14
Partially contracted basis set               ... on
Rotationally invariant grid construction     ... off
Angular grids for H and He will be reduced by one unit

Total number of grid points                  ...   250831
Total number of batches                      ...     1982
Average number of points per batch           ...      126
Average number of grid points per atom       ...     5337
UseSFitting                                  ... on
Grids setup in  18.3 sec
Initializing property integral containers    ... done (  0.0 sec)

SHARK setup successfully completed in  20.0 seconds

Maximum memory used throughout the entire STARTUP-calculation: 186.4 MB


           ************************************************************
           *        Program running with 4 parallel MPI-processes     *
           *              working on a common directory               *
           ************************************************************
-------------------------------------------------------------------------------
                                 ORCA GUESS
                   Start orbitals & Density for SCF / CASSCF
-------------------------------------------------------------------------------

------------
SCF SETTINGS
------------
Hamiltonian:
 Density Functional     Method          .... DFT(GTOs)
 Exchange Functional    Exchange        .... WB88
 Correlation Functional Correlation     .... LYP
 LDA part of GGA corr.  LDAOpt          .... VWN-5
 Gradients option       PostSCFGGA      .... off
 Hybrid DFT is turned on
   Fraction HF Exchange ScalHFX         ....  0.190000
   Scaling of DF-GGA-X  ScalDFX         ....  0.350000
   Scaling of DF-GGA-C  ScalDFC         ....  0.810000
   Scaling of DF-LDA-C  ScalLDAC        ....  1.000000
   Perturbative correction              ....  0.000000
 Long-range corrected/Screened/Range-Separated Hybrid DFT is turned on
   Amount of maximum screened exact exchange              ....  0.460000
   Range separation parameter mu (erf(mu*r12)/r12)        ....  0.330000
 RI-approximation to the Coulomb term is turned on
   Number of AuxJ basis functions       .... 1550
   RIJ-COSX (HFX calculated with COS-X)).... on


General Settings:
 Integral files         IntName         .... tddft
 Hartree-Fock type      HFTyp           .... RHF
 Total Charge           Charge          ....    0
 Multiplicity           Mult            ....    1
 Number of Electrons    NEL             ....  194
 Basis Dimension        Dim             ....  958
 Nuclear Repulsion      ENuc            ....   2623.0867176036 Eh

Convergence Acceleration:
 AO-DIIS                CNVDIIS         .... on
   Start iteration      DIISMaxIt       ....    12
   Startup error        DIISStart       ....  0.200000
   # of expansion vecs  DIISMaxEq       ....     5
   Bias factor          DIISBfac        ....   1.050
   Max. coefficient     DIISMaxC        ....  10.000
 MO-DIIS                CNVKDIIS        .... off
 Trust-Rad. Augm. Hess. CNVTRAH         .... auto
   Auto Start mean grad. ratio tolernc. ....  1.125000
   Auto Start start iteration           ....    50
   Auto Start num. interpolation iter.  ....    10
   Max. Number of Micro iterations      ....    24
   Max. Number of Macro iterations      .... Maxiter - #DIIS iter
   Number of Davidson start vectors     ....     2
   Converg. threshold    (grad. norm)   ....   1.000e-05
   Grad. Scal. Fac. for Micro threshold ....   0.100
   Minimum threshold for Micro iter.    ....   1.000e-02
   NR start threshold (gradient norm)   ....   1.000e-04
   Initial trust radius                 ....   0.400
   Minimum AH scaling param. (alpha)    ....   1.000
   Maximum AH scaling param. (alpha)    .... 1000.000
   Quad. conv. algorithm                .... NR
   White noise on init. David. guess    .... on
   Maximum white noise                  ....   0.010
   Pseudo random numbers                .... off
   Inactive MOs                         .... canonical
   Orbital update algorithm             .... Taylor
   Preconditioner                       .... Diag
   Full preconditioner red. dimension   ....   250
 SOSCF                 CNVSOSCF           .... on
   Start iteration     SOSCFMaxIt         ....   150
   Startup grad/error  SOSCFStart         ....  0.003300
   Hessian update      SOSCFHessUp        .... L-BFGS
   Autom. constraints  SOSCFAutoConstrain .... off
 Level Shifting         CNVShift        .... on
   Level shift para.    LevelShift      ....    0.2500
   Turn off err/grad.   ShiftErr        ....    0.0010
 Zerner damping         CNVZerner       .... off
 Static damping         CNVDamp         .... on
   Fraction old density DampFac         ....    0.7000
   Max. Damping (<1)    DampMax         ....    0.9800
   Min. Damping (>=0)   DampMin         ....    0.0000
   Turn off err/grad.   DampErr         ....    0.1000

SCF Procedure:
 Maximum # iterations   MaxIter         ....   125
 SCF integral mode      SCFMode         .... Direct
   Integral package                     .... SHARK and LIBINT hybrid scheme
 Reset frequency        DirectResetFreq ....    20
 Integral Threshold     Thresh          ....  2.500e-11 Eh
 Primitive CutOff       TCut            ....  2.500e-12 Eh

Convergence Tolerance:
 Convergence Check Mode ConvCheckMode   .... Total+1el-Energy
 Convergence forced     ConvForced      .... 1
 Energy Change          TolE            ....  1.000e-08 Eh
 1-El. energy change                    ....  1.000e-05 Eh
 Orbital Gradient       TolG            ....  1.000e-05
 Orbital Rotation angle TolX            ....  1.000e-05
 DIIS Error             TolErr          ....  5.000e-07

------------------------------
INITIAL GUESS: MODEL POTENTIAL
------------------------------
Loading Hartree-Fock densities                     ... done
Calculating cut-offs                               ... done
Initializing the effective Hamiltonian             ... done
Setting up the integral package (SHARK)            ... done
Starting the Coulomb interaction                   ... done (   2.3 sec)
Making the grid                                    ... done (   0.8 sec)
Mapping shells                                     ... done
Starting the XC term evaluation                    ... done (   1.4 sec)
  promolecular density results
     # of electrons  =    194.017392037
     EX              =   -163.779439852
     EC              =     -6.578544742
     EX+EC           =   -170.357984595
Transforming the Hamiltonian                       ... done (   0.2 sec)
Diagonalizing the Hamiltonian                      ... done (   0.3 sec)
Back transforming the eigenvectors                 ... done (   0.1 sec)
Now organizing SCF variables                       ... done
                      ------------------
                      INITIAL GUESS DONE (   5.2 sec)
                      ------------------
             **** ENERGY FILE WAS UPDATED (tddft.en.tmp) ****
Finished Guess after   5.7 sec
Maximum memory used throughout the entire GUESS-calculation: 106.7 MB


           ************************************************************
           *        Program running with 4 parallel MPI-processes     *
           *              working on a common directory               *
           ************************************************************

-------------------------------------------------------------------------------------------
                                      ORCA LEAN-SCF
                              memory conserving SCF solver
-------------------------------------------------------------------------------------------

--------------------
CPCM SOLVATION MODEL
--------------------
CPCM parameters:
  Epsilon                                         ...       8.9990
  Refrac                                          ...       1.4242
  Rsolv                                           ...       1.3000
  Surface type                                    ... GAUSSIAN VDW
  Discretization scheme                           ... Constant charge density
    Threshold for H atoms                         ...       5.0000 (charges/Ang^2)
    Threshold for non-H atoms                     ...       5.0000 (charges/Ang^2)
  Epsilon function type                           ...         CPCM
Solvent:                                          ... DICHLOROMETHANE
Radii:
  Scheme                                          ... Element-dependent radii
  Radius for N  used is    3.5149 Bohr (=   1.8600 Ang.)
  Radius for C  used is    3.8550 Bohr (=   2.0400 Ang.)
  Radius for H  used is    2.4944 Bohr (=   1.3200 Ang.)
  Radius for Mg used is    3.9231 Bohr (=   2.0760 Ang.)
  Radius for O  used is    3.4469 Bohr (=   1.8240 Ang.)
Calculating surface                               ...        done! (  0.0s)
Cavity surface points                             ...         4113
Cavity Volume                                     ...    2831.5727
Cavity Surface-area                               ...    1348.4688
Calculating surface distance matrix               ...        done! (  0.3s)
Performing Cholesky decomposition & store         ...        done! (  0.8s)
Overall time for CPCM initialization              ...                 1.2s

----------------------------------------D-I-I-S--------------------------------------------
Iteration    Energy (Eh)           Delta-E    RMSDP     MaxDP     DIISErr   Damp  Time(sec)
-------------------------------------------------------------------------------------------
               ***  Starting incremental Fock matrix formation  ***
    1    -1305.9766588184688771     0.00e+00  2.08e-03  4.36e-02  2.19e-01  0.700 194.8
    2    -1306.2219473518202904    -2.45e-01  1.59e-03  3.12e-02  1.13e-01  0.700  85.6
                               ***Turning on AO-DIIS***
    3    -1306.3429220554085077    -1.21e-01  9.30e-04  2.47e-02  4.54e-02  0.700 110.4
    4    -1306.4144939890097703    -7.16e-02  2.01e-03  5.66e-02  3.03e-02  0.000  79.3
    5    -1306.5673623854841026    -1.53e-01  1.91e-04  4.20e-03  3.69e-03  0.000 111.7
                              *** Initializing SOSCF ***
---------------------------------------S-O-S-C-F--------------------------------------
Iteration    Energy (Eh)           Delta-E    RMSDP     MaxDP     MaxGrad    Time(sec)
--------------------------------------------------------------------------------------
    6    -1306.5678004042379143    -4.38e-04  8.39e-05  1.93e-03  2.58e-03    70.3
               *** Restarting incremental Fock matrix formation ***
    7    -1306.5678684823328695    -6.81e-05  6.62e-05  1.25e-03  6.13e-04   228.5
    8    -1306.5678846065688958    -1.61e-05  4.01e-05  9.24e-04  2.72e-04   161.2
    9    -1306.5678857898933529    -1.18e-06  1.92e-05  3.44e-04  1.44e-04   155.3
   10    -1306.5678877818177170    -1.99e-06  5.55e-06  1.52e-04  1.88e-05   148.4
   11    -1306.5678878143157817    -3.25e-08  4.55e-06  1.48e-04  1.46e-05   115.6
   12    -1306.5678878542998973    -4.00e-08  5.81e-06  2.04e-04  1.08e-05   127.1
   13    -1306.5678879149318163    -6.06e-08  5.07e-06  1.92e-04  5.79e-06   119.5
   14    -1306.5678879085280641     6.40e-09  3.05e-06  1.15e-04  2.95e-06   129.4
                 **** Energy Check signals convergence ****

               *****************************************************
               *                     SUCCESS                       *
               *           SCF CONVERGED AFTER  14 CYCLES          *
               *****************************************************

Recomputing exchange energy using gridx3       ... done (  440.561 sec)
Old exchange energy                            :    -46.910633890 Eh
New exchange energy                            :    -46.910625205 Eh
Exchange energy change after final integration :      0.000008685 Eh
Total energy after final integration           :  -1306.567879214 Eh
             **** ENERGY FILE WAS UPDATED (tddft.en.tmp) ****

----------------
TOTAL SCF ENERGY
----------------

Total Energy       :      -1306.56787921405726 Eh          -35553.51950 eV

Components:
Nuclear Repulsion  :       2623.08671760363859 Eh           71377.81836 eV
Electronic Energy  :      -3929.63606263813790 Eh         -106930.83352 eV
One Electron Energy:      -7002.39894506640667 Eh         -190544.96241 eV
Two Electron Energy:       3072.76288242826877 Eh           83614.12889 eV
CPCM Dielectric    :         -0.01854286472492 Eh              -0.50458 eV

Virial components:
Potential Energy   :      -2607.37748690397575 Eh          -70950.34846 eV
Kinetic Energy     :       1300.80960768991849 Eh           35396.82897 eV
Virial Ratio       :          2.00442668280592

DFT components:
N(Alpha)           :       97.000017429590 electrons
N(Beta)            :       97.000017429590 electrons
N(Total)           :      194.000034859179 electrons
E(XC)              :     -127.213434132688 Eh       

CPCM Solvation Model Properties:
Surface-charge          :         -0.04236990568421
Corrected charge        :          0.00000000000000
Outlying charge corr.   :          0.00008257728174 Eh               0.00225 eV
Free-energy (cav+disp)  :  This term is not implemented in the current solvation scheme

---------------
SCF CONVERGENCE
---------------

  Last Energy change         ...   -6.4038e-09  Tolerance :   1.0000e-08
  Last MAX-Density change    ...    1.1463e-04  Tolerance :   1.0000e-07
  Last RMS-Density change    ...    3.0468e-06  Tolerance :   5.0000e-09
  Last DIIS Error            ...    2.5783e-03  Tolerance :   5.0000e-07
  Last Orbital Gradient      ...    2.9489e-06  Tolerance :   1.0000e-05
  Last Orbital Rotation      ...    2.1851e-05  Tolerance :   1.0000e-05


----------------
ORBITAL ENERGIES
----------------

  NO   OCC          E(Eh)            E(eV) 
   0   2.0000     -46.820874     -1274.0607 
   1   2.0000     -19.231649      -523.3198 
   2   2.0000     -14.389353      -391.5542 
   3   2.0000     -14.388965      -391.5436 
   4   2.0000     -14.362008      -390.8101 
   5   2.0000     -14.361698      -390.8017 
   6   2.0000     -10.291182      -280.0373 
   7   2.0000     -10.279523      -279.7200 
   8   2.0000     -10.279471      -279.7186 
   9   2.0000     -10.279184      -279.7108 
  10   2.0000     -10.279020      -279.7063 
  11   2.0000     -10.268878      -279.4304 
  12   2.0000     -10.268810      -279.4285 
  13   2.0000     -10.268400      -279.4174 
  14   2.0000     -10.268052      -279.4079 
  15   2.0000     -10.243001      -278.7262 
  16   2.0000     -10.242751      -278.7194 
  17   2.0000     -10.242521      -278.7132 
  18   2.0000     -10.242305      -278.7073 
  19   2.0000     -10.236722      -278.5554 
  20   2.0000     -10.236659      -278.5537 
  21   2.0000     -10.236402      -278.5467 
  22   2.0000     -10.236283      -278.5434 
  23   2.0000     -10.234932      -278.5067 
  24   2.0000     -10.234311      -278.4898 
  25   2.0000     -10.234226      -278.4874 
  26   2.0000     -10.233615      -278.4708 
  27   2.0000      -3.108467       -84.5857 
  28   2.0000      -1.854405       -50.4609 
  29   2.0000      -1.851532       -50.3827 
  30   2.0000      -1.850695       -50.3600 
  31   2.0000      -1.129234       -30.7280 
  32   2.0000      -1.040058       -28.3014 
  33   2.0000      -1.034465       -28.1492 
  34   2.0000      -1.026707       -27.9381 
  35   2.0000      -1.020074       -27.7576 
  36   2.0000      -0.890074       -24.2201 
  37   2.0000      -0.866406       -23.5761 
  38   2.0000      -0.858104       -23.3502 
  39   2.0000      -0.847121       -23.0513 
  40   2.0000      -0.845584       -23.0095 
  41   2.0000      -0.834370       -22.7044 
  42   2.0000      -0.833634       -22.6843 
  43   2.0000      -0.807823       -21.9820 
  44   2.0000      -0.792178       -21.5563 
  45   2.0000      -0.777107       -21.1462 
  46   2.0000      -0.731646       -19.9091 
  47   2.0000      -0.723254       -19.6807 
  48   2.0000      -0.687617       -18.7110 
  49   2.0000      -0.666562       -18.1381 
  50   2.0000      -0.638071       -17.3628 
  51   2.0000      -0.637808       -17.3556 
  52   2.0000      -0.634784       -17.2734 
  53   2.0000      -0.624701       -16.9990 
  54   2.0000      -0.603765       -16.4293 
  55   2.0000      -0.598342       -16.2817 
  56   2.0000      -0.585882       -15.9426 
  57   2.0000      -0.573472       -15.6050 
  58   2.0000      -0.568430       -15.4678 
  59   2.0000      -0.562116       -15.2960 
  60   2.0000      -0.550940       -14.9918 
  61   2.0000      -0.544393       -14.8137 
  62   2.0000      -0.540804       -14.7160 
  63   2.0000      -0.530829       -14.4446 
  64   2.0000      -0.520963       -14.1761 
  65   2.0000      -0.502104       -13.6630 
  66   2.0000      -0.499586       -13.5944 
  67   2.0000      -0.480642       -13.0789 
  68   2.0000      -0.479892       -13.0585 
  69   2.0000      -0.477934       -13.0053 
  70   2.0000      -0.465735       -12.6733 
  71   2.0000      -0.465583       -12.6692 
  72   2.0000      -0.463234       -12.6052 
  73   2.0000      -0.448156       -12.1949 
  74   2.0000      -0.442355       -12.0371 
  75   2.0000      -0.440162       -11.9774 
  76   2.0000      -0.438738       -11.9387 
  77   2.0000      -0.434156       -11.8140 
  78   2.0000      -0.433801       -11.8043 
  79   2.0000      -0.425435       -11.5767 
  80   2.0000      -0.421329       -11.4649 
  81   2.0000      -0.419719       -11.4211 
  82   2.0000      -0.418907       -11.3990 
  83   2.0000      -0.416133       -11.3235 
  84   2.0000      -0.412427       -11.2227 
  85   2.0000      -0.410511       -11.1706 
  86   2.0000      -0.382218       -10.4007 
  87   2.0000      -0.369075       -10.0430 
  88   2.0000      -0.364658        -9.9228 
  89   2.0000      -0.362972        -9.8770 
  90   2.0000      -0.338394        -9.2082 
  91   2.0000      -0.326231        -8.8772 
  92   2.0000      -0.313494        -8.5306 
  93   2.0000      -0.303645        -8.2626 
  94   2.0000      -0.294522        -8.0144 
  95   2.0000      -0.233225        -6.3464 
  96   2.0000      -0.197378        -5.3709 
  97   0.0000      -0.066553        -1.8110 
  98   0.0000      -0.000980        -0.0267 
  99   0.0000       0.040392         1.0991 
 100   0.0000       0.065874         1.7925 
 101   0.0000       0.071298         1.9401 
 102   0.0000       0.074181         2.0186 
 103   0.0000       0.081344         2.2135 
 104   0.0000       0.087507         2.3812 
 105   0.0000       0.090198         2.4544 
 106   0.0000       0.095585         2.6010 
 107   0.0000       0.104634         2.8472 
*Only the first 10 virtual orbitals were printed.

                    ********************************
                    * MULLIKEN POPULATION ANALYSIS *
                    ********************************

-----------------------
MULLIKEN ATOMIC CHARGES
-----------------------
   0 N :   -0.306230
   1 N :   -0.302450
   2 N :   -0.378430
   3 N :   -0.386320
   4 C :   -0.193209
   5 C :   -0.197683
   6 C :   -0.198425
   7 C :   -0.196196
   8 C :    0.137488
   9 C :    0.142482
  10 C :    0.137815
  11 C :    0.152210
  12 C :    0.215162
  13 C :    0.224331
  14 C :    0.220577
  15 C :    0.234074
  16 C :   -0.327870
  17 C :   -0.316606
  18 C :   -0.311281
  19 C :   -0.330734
  20 C :   -0.249224
  21 C :   -0.252500
  22 C :   -0.256340
  23 C :   -0.252323
  24 H :    0.135485
  25 H :    0.121286
  26 H :    0.134307
  27 H :    0.123450
  28 H :    0.123110
  29 H :    0.133931
  30 H :    0.122770
  31 H :    0.134562
  32 H :    0.146050
  33 H :    0.146801
  34 H :    0.146492
  35 H :    0.146520
  36 H :    0.151097
  37 H :    0.151165
  38 H :    0.150704
  39 H :    0.150729
  40 Mg:    0.661843
  41 O :   -0.486848
  42 C :   -0.230436
  43 H :    0.155769
  44 H :    0.143517
  45 H :    0.156100
  46 H :    0.373277
Sum of atomic charges:   -0.0000000

--------------------------------
MULLIKEN REDUCED ORBITAL CHARGES
--------------------------------
  0 N s       :     3.675592  s :     3.675592
      pz      :     1.257008  p :     3.569415
      px      :     1.314307
      py      :     0.998101
      dz2     :     0.003846  d :     0.057726
      dxz     :     0.006312
      dyz     :     0.015836
      dx2y2   :     0.015418
      dxy     :     0.016315
      f0      :     0.000633  f :     0.003497
      f+1     :     0.000239
      f-1     :     0.000341
      f+2     :     0.000106
      f-2     :     0.000558
      f+3     :     0.000599
      f-3     :     0.001021

  1 N s       :     3.681318  s :     3.681318
      pz      :     1.257653  p :     3.559991
      px      :     1.301946
      py      :     1.000392
      dz2     :     0.003791  d :     0.057644
      dxz     :     0.006102
      dyz     :     0.016001
      dx2y2   :     0.015564
      dxy     :     0.016187
      f0      :     0.000626  f :     0.003496
      f+1     :     0.000246
      f-1     :     0.000337
      f+2     :     0.000108
      f-2     :     0.000557
      f+3     :     0.000594
      f-3     :     0.001029

  2 N s       :     3.684593  s :     3.684593
      pz      :     1.382600  p :     3.636229
      px      :     0.999130
      py      :     1.254499
      dz2     :     0.004137  d :     0.054083
      dxz     :     0.013618
      dyz     :     0.005628
      dx2y2   :     0.015354
      dxy     :     0.015346
      f0      :     0.000636  f :     0.003525
      f+1     :     0.000385
      f-1     :     0.000308
      f+2     :     0.000082
      f-2     :     0.000613
      f+3     :     0.000921
      f-3     :     0.000579

  3 N s       :     3.685723  s :     3.685723
      pz      :     1.381286  p :     3.642957
      px      :     1.000736
      py      :     1.260936
      dz2     :     0.004016  d :     0.054124
      dxz     :     0.013809
      dyz     :     0.005609
      dx2y2   :     0.015179
      dxy     :     0.015511
      f0      :     0.000630  f :     0.003515
      f+1     :     0.000378
      f-1     :     0.000308
      f+2     :     0.000080
      f-2     :     0.000618
      f+3     :     0.000922
      f-3     :     0.000580

  4 C s       :     3.219320  s :     3.219320
      pz      :     1.052734  p :     2.893791
      px      :     0.908261
      py      :     0.932795
      dz2     :     0.004673  d :     0.074224
      dxz     :     0.015221
      dyz     :     0.015794
      dx2y2   :     0.015448
      dxy     :     0.023089
      f0      :     0.000764  f :     0.005874
      f+1     :     0.000707
      f-1     :     0.000555
      f+2     :     0.000775
      f-2     :     0.000375
      f+3     :     0.001546
      f-3     :     0.001153

  5 C s       :     3.219532  s :     3.219532
      pz      :     1.056000  p :     2.898131
      px      :     0.908648
      py      :     0.933483
      dz2     :     0.004632  d :     0.074148
      dxz     :     0.014365
      dyz     :     0.016491
      dx2y2   :     0.015560
      dxy     :     0.023102
      f0      :     0.000801  f :     0.005872
      f+1     :     0.000661
      f-1     :     0.000569
      f+2     :     0.000796
      f-2     :     0.000348
      f+3     :     0.001517
      f-3     :     0.001181

  6 C s       :     3.220390  s :     3.220390
      pz      :     1.056181  p :     2.898040
      px      :     0.908292
      py      :     0.933568
      dz2     :     0.004320  d :     0.074119
      dxz     :     0.015429
      dyz     :     0.015787
      dx2y2   :     0.015521
      dxy     :     0.023062
      f0      :     0.000678  f :     0.005875
      f+1     :     0.000749
      f-1     :     0.000606
      f+2     :     0.000803
      f-2     :     0.000348
      f+3     :     0.001543
      f-3     :     0.001148

  7 C s       :     3.218961  s :     3.218961
      pz      :     1.054804  p :     2.897194
      px      :     0.910788
      py      :     0.931601
      dz2     :     0.003331  d :     0.074165
      dxz     :     0.015764
      dyz     :     0.016648
      dx2y2   :     0.015555
      dxy     :     0.022867
      f0      :     0.000582  f :     0.005877
      f+1     :     0.000846
      f-1     :     0.000625
      f+2     :     0.000821
      f-2     :     0.000314
      f+3     :     0.001559
      f-3     :     0.001130

  8 C s       :     3.183441  s :     3.183441
      pz      :     0.903571  p :     2.510780
      px      :     0.852338
      py      :     0.754871
      dz2     :     0.003604  d :     0.154179
      dxz     :     0.021436
      dyz     :     0.041511
      dx2y2   :     0.045507
      dxy     :     0.042122
      f0      :     0.001936  f :     0.014112
      f+1     :     0.000899
      f-1     :     0.000905
      f+2     :     0.001235
      f-2     :     0.001559
      f+3     :     0.002866
      f-3     :     0.004713

  9 C s       :     3.183690  s :     3.183690
      pz      :     0.901461  p :     2.504476
      px      :     0.851563
      py      :     0.751452
      dz2     :     0.004066  d :     0.155198
      dxz     :     0.021214
      dyz     :     0.041779
      dx2y2   :     0.045178
      dxy     :     0.042960
      f0      :     0.001909  f :     0.014154
      f+1     :     0.000931
      f-1     :     0.000922
      f+2     :     0.001269
      f-2     :     0.001555
      f+3     :     0.002738
      f-3     :     0.004830

 10 C s       :     3.186122  s :     3.186122
      pz      :     0.902125  p :     2.508109
      px      :     0.854150
      py      :     0.751834
      dz2     :     0.002884  d :     0.153871
      dxz     :     0.021318
      dyz     :     0.041573
      dx2y2   :     0.045444
      dxy     :     0.042652
      f0      :     0.001942  f :     0.014082
      f+1     :     0.000865
      f-1     :     0.000915
      f+2     :     0.001260
      f-2     :     0.001524
      f+3     :     0.002748
      f-3     :     0.004828

 11 C s       :     3.178577  s :     3.178577
      pz      :     0.903989  p :     2.499958
      px      :     0.839382
      py      :     0.756587
      dz2     :     0.002581  d :     0.155117
      dxz     :     0.021897
      dyz     :     0.041640
      dx2y2   :     0.046438
      dxy     :     0.042562
      f0      :     0.001955  f :     0.014138
      f+1     :     0.000874
      f-1     :     0.000898
      f+2     :     0.001258
      f-2     :     0.001564
      f+3     :     0.002866
      f-3     :     0.004723

 12 C s       :     3.162249  s :     3.162249
      pz      :     0.917792  p :     2.452902
      px      :     0.731698
      py      :     0.803412
      dz2     :     0.004456  d :     0.155198
      dxz     :     0.038994
      dyz     :     0.029867
      dx2y2   :     0.042465
      dxy     :     0.039416
      f0      :     0.002086  f :     0.014489
      f+1     :     0.001048
      f-1     :     0.000800
      f+2     :     0.000903
      f-2     :     0.002119
      f+3     :     0.004537
      f-3     :     0.002997

 13 C s       :     3.165003  s :     3.165003
      pz      :     0.911959  p :     2.440834
      px      :     0.736718
      py      :     0.792157
      dz2     :     0.004603  d :     0.155358
      dxz     :     0.038588
      dyz     :     0.029623
      dx2y2   :     0.042933
      dxy     :     0.039610
      f0      :     0.002044  f :     0.014474
      f+1     :     0.001074
      f-1     :     0.000814
      f+2     :     0.000865
      f-2     :     0.002162
      f+3     :     0.004386
      f-3     :     0.003130

 14 C s       :     3.161742  s :     3.161742
      pz      :     0.919065  p :     2.449322
      px      :     0.733483
      py      :     0.796774
      dz2     :     0.004109  d :     0.153930
      dxz     :     0.038859
      dyz     :     0.029511
      dx2y2   :     0.042251
      dxy     :     0.039200
      f0      :     0.002072  f :     0.014429
      f+1     :     0.001015
      f-1     :     0.000814
      f+2     :     0.000840
      f-2     :     0.002151
      f+3     :     0.004407
      f-3     :     0.003129

 15 C s       :     3.159746  s :     3.159746
      pz      :     0.915819  p :     2.437052
      px      :     0.732556
      py      :     0.788677
      dz2     :     0.004277  d :     0.154691
      dxz     :     0.038857
      dyz     :     0.029391
      dx2y2   :     0.042270
      dxy     :     0.039896
      f0      :     0.002060  f :     0.014437
      f+1     :     0.001050
      f-1     :     0.000801
      f+2     :     0.000905
      f-2     :     0.002102
      f+3     :     0.004520
      f-3     :     0.002998

 16 C s       :     3.311370  s :     3.311370
      pz      :     1.073701  p :     2.943279
      px      :     0.922374
      py      :     0.947203
      dz2     :     0.003131  d :     0.066146
      dxz     :     0.014455
      dyz     :     0.015812
      dx2y2   :     0.007564
      dxy     :     0.025184
      f0      :     0.001428  f :     0.007075
      f+1     :     0.000580
      f-1     :     0.000544
      f+2     :     0.000827
      f-2     :     0.000422
      f+3     :     0.001590
      f-3     :     0.001684

 17 C s       :     3.295120  s :     3.295120
      pz      :     1.074074  p :     2.947996
      px      :     0.923798
      py      :     0.950125
      dz2     :     0.003480  d :     0.066417
      dxz     :     0.014785
      dyz     :     0.015305
      dx2y2   :     0.007695
      dxy     :     0.025152
      f0      :     0.001399  f :     0.007073
      f+1     :     0.000609
      f-1     :     0.000550
      f+2     :     0.000827
      f-2     :     0.000428
      f+3     :     0.001548
      f-3     :     0.001710

 18 C s       :     3.295118  s :     3.295118
      pz      :     1.075153  p :     2.942322
      px      :     0.918500
      py      :     0.948668
      dz2     :     0.003291  d :     0.066773
      dxz     :     0.015159
      dyz     :     0.015372
      dx2y2   :     0.007667
      dxy     :     0.025284
      f0      :     0.001421  f :     0.007068
      f+1     :     0.000573
      f-1     :     0.000562
      f+2     :     0.000830
      f-2     :     0.000407
      f+3     :     0.001548
      f-3     :     0.001726

 19 C s       :     3.305819  s :     3.305819
      pz      :     1.074868  p :     2.951099
      px      :     0.925942
      py      :     0.950288
      dz2     :     0.003177  d :     0.066745
      dxz     :     0.014653
      dyz     :     0.015979
      dx2y2   :     0.007758
      dxy     :     0.025178
      f0      :     0.001434  f :     0.007070
      f+1     :     0.000574
      f-1     :     0.000544
      f+2     :     0.000830
      f-2     :     0.000415
      f+3     :     0.001591
      f-3     :     0.001683

 20 C s       :     3.276189  s :     3.276189
      pz      :     1.024814  p :     2.889559
      px      :     0.944462
      py      :     0.920283
      dz2     :     0.004989  d :     0.075798
      dxz     :     0.019136
      dyz     :     0.010737
      dx2y2   :     0.014260
      dxy     :     0.026676
      f0      :     0.001412  f :     0.007678
      f+1     :     0.000550
      f-1     :     0.000663
      f+2     :     0.001179
      f-2     :     0.000221
      f+3     :     0.001403
      f-3     :     0.002251

 21 C s       :     3.276178  s :     3.276178
      pz      :     1.024231  p :     2.892803
      px      :     0.943444
      py      :     0.925128
      dz2     :     0.005013  d :     0.075841
      dxz     :     0.019465
      dyz     :     0.010552
      dx2y2   :     0.014250
      dxy     :     0.026562
      f0      :     0.001412  f :     0.007678
      f+1     :     0.000542
      f-1     :     0.000671
      f+2     :     0.001141
      f-2     :     0.000262
      f+3     :     0.001383
      f-3     :     0.002267

 22 C s       :     3.278057  s :     3.278057
      pz      :     1.027169  p :     2.894532
      px      :     0.942159
      py      :     0.925204
      dz2     :     0.004993  d :     0.076065
      dxz     :     0.019651
      dyz     :     0.010421
      dx2y2   :     0.014219
      dxy     :     0.026780
      f0      :     0.001424  f :     0.007685
      f+1     :     0.000502
      f-1     :     0.000694
      f+2     :     0.001163
      f-2     :     0.000244
      f+3     :     0.001387
      f-3     :     0.002271

 23 C s       :     3.275829  s :     3.275829
      pz      :     1.026129  p :     2.892834
      px      :     0.943629
      py      :     0.923077
      dz2     :     0.004761  d :     0.075975
      dxz     :     0.019498
      dyz     :     0.010851
      dx2y2   :     0.014230
      dxy     :     0.026635
      f0      :     0.001436  f :     0.007685
      f+1     :     0.000507
      f-1     :     0.000667
      f+2     :     0.001203
      f-2     :     0.000222
      f+3     :     0.001392
      f-3     :     0.002257

 24 H s       :     0.843260  s :     0.843260
      pz      :     0.007791  p :     0.021256
      px      :     0.007101
      py      :     0.006364

 25 H s       :     0.857338  s :     0.857338
      pz      :     0.011300  p :     0.021376
      px      :     0.005470
      py      :     0.004606

 26 H s       :     0.844440  s :     0.844440
      pz      :     0.007701  p :     0.021253
      px      :     0.007337
      py      :     0.006215

 27 H s       :     0.855168  s :     0.855168
      pz      :     0.011428  p :     0.021382
      px      :     0.005098
      py      :     0.004856

 28 H s       :     0.855500  s :     0.855500
      pz      :     0.010995  p :     0.021390
      px      :     0.005750
      py      :     0.004644

 29 H s       :     0.844824  s :     0.844824
      pz      :     0.008097  p :     0.021245
      px      :     0.006652
      py      :     0.006496

 30 H s       :     0.855857  s :     0.855857
      pz      :     0.010363  p :     0.021372
      px      :     0.006209
      py      :     0.004800

 31 H s       :     0.844189  s :     0.844189
      pz      :     0.008815  p :     0.021250
      px      :     0.006349
      py      :     0.006086

 32 H s       :     0.831722  s :     0.831722
      pz      :     0.005380  p :     0.022228
      px      :     0.008370
      py      :     0.008477

 33 H s       :     0.830983  s :     0.830983
      pz      :     0.005369  p :     0.022216
      px      :     0.008120
      py      :     0.008727

 34 H s       :     0.831296  s :     0.831296
      pz      :     0.005344  p :     0.022212
      px      :     0.008178
      py      :     0.008689

 35 H s       :     0.831273  s :     0.831273
      pz      :     0.005362  p :     0.022207
      px      :     0.008379
      py      :     0.008466

 36 H s       :     0.826947  s :     0.826947
      pz      :     0.004831  p :     0.021956
      px      :     0.007295
      py      :     0.009830

 37 H s       :     0.826882  s :     0.826882
      pz      :     0.004840  p :     0.021953
      px      :     0.007067
      py      :     0.010046

 38 H s       :     0.827340  s :     0.827340
      pz      :     0.004843  p :     0.021956
      px      :     0.007095
      py      :     0.010019

 39 H s       :     0.827318  s :     0.827318
      pz      :     0.004885  p :     0.021953
      px      :     0.007265
      py      :     0.009804

 40 Mgs       :     4.566120  s :     4.566120
      pz      :     2.136521  p :     6.499601
      px      :     2.167982
      py      :     2.195098
      dz2     :     0.044413  d :     0.272436
      dxz     :     0.019702
      dyz     :     0.032937
      dx2y2   :     0.159936
      dxy     :     0.015448

 41 O s       :     3.759069  s :     3.759069
      pz      :     1.635822  p :     4.700824
      px      :     1.754663
      py      :     1.310339
      dz2     :     0.004934  d :     0.025446
      dxz     :     0.004312
      dyz     :     0.004865
      dx2y2   :     0.006728
      dxy     :     0.004606
      f0      :     0.000163  f :     0.001509
      f+1     :     0.000119
      f-1     :     0.000166
      f+2     :     0.000239
      f-2     :     0.000236
      f+3     :     0.000252
      f-3     :     0.000335

 42 C s       :     3.273282  s :     3.273282
      pz      :     0.967510  p :     2.862857
      px      :     0.982295
      py      :     0.913052
      dz2     :     0.026981  d :     0.086342
      dxz     :     0.009358
      dyz     :     0.011791
      dx2y2   :     0.026771
      dxy     :     0.011441
      f0      :     0.000999  f :     0.007955
      f+1     :     0.001171
      f-1     :     0.001296
      f+2     :     0.001418
      f-2     :     0.000934
      f+3     :     0.001037
      f-3     :     0.001101

 43 H s       :     0.824466  s :     0.824466
      pz      :     0.012098  p :     0.019765
      px      :     0.004272
      py      :     0.003396

 44 H s       :     0.836663  s :     0.836663
      pz      :     0.003478  p :     0.019820
      px      :     0.012897
      py      :     0.003445

 45 H s       :     0.823314  s :     0.823314
      pz      :     0.004383  p :     0.020586
      px      :     0.004185
      py      :     0.012018

 46 H s       :     0.580267  s :     0.580267
      pz      :     0.012432  p :     0.046456
      px      :     0.013352
      py      :     0.020672



                     *******************************
                     * LOEWDIN POPULATION ANALYSIS *
                     *******************************

----------------------
LOEWDIN ATOMIC CHARGES
----------------------
   0 N :    0.209305
   1 N :    0.209036
   2 N :    0.165486
   3 N :    0.161282
   4 C :   -0.195246
   5 C :   -0.194554
   6 C :   -0.195113
   7 C :   -0.194647
   8 C :   -0.204876
   9 C :   -0.201848
  10 C :   -0.204226
  11 C :   -0.202570
  12 C :   -0.218936
  13 C :   -0.216102
  14 C :   -0.218758
  15 C :   -0.218033
  16 C :   -0.133026
  17 C :   -0.131597
  18 C :   -0.133083
  19 C :   -0.132340
  20 C :   -0.138479
  21 C :   -0.137832
  22 C :   -0.140493
  23 C :   -0.139977
  24 H :    0.145082
  25 H :    0.147114
  26 H :    0.145118
  27 H :    0.147882
  28 H :    0.147796
  29 H :    0.144574
  30 H :    0.147611
  31 H :    0.145058
  32 H :    0.162761
  33 H :    0.163002
  34 H :    0.162707
  35 H :    0.162843
  36 H :    0.143526
  37 H :    0.143550
  38 H :    0.143203
  39 H :    0.143249
  40 Mg:    0.097253
  41 O :    0.050559
  42 C :   -0.311694
  43 H :    0.113146
  44 H :    0.117751
  45 H :    0.130298
  46 H :    0.214237

-------------------------------
LOEWDIN REDUCED ORBITAL CHARGES
-------------------------------
  0 N s       :     2.972867  s :     2.972867
      pz      :     1.106808  p :     3.587202
      px      :     1.358389
      py      :     1.122006
      dz2     :     0.016215  d :     0.211822
      dxz     :     0.009740
      dyz     :     0.049198
      dx2y2   :     0.062960
      dxy     :     0.073708
      f0      :     0.001093  f :     0.018804
      f+1     :     0.000790
      f-1     :     0.001830
      f+2     :     0.000337
      f-2     :     0.003438
      f+3     :     0.003970
      f-3     :     0.007347

  1 N s       :     2.972104  s :     2.972104
      pz      :     1.110778  p :     3.587860
      px      :     1.354220
      py      :     1.122862
[...]
  0-1A  ->  1-1A    1.677073   13526.5   739.3   0.431829516   0.03992   0.00156   0.19974  -0.00489
  0-1A  ->  2-1A    2.370360   19118.2   523.1   0.105711795   0.01381  -0.11726   0.00138   0.00781
  0-1A  ->  3-1A    3.555076   28673.6   348.8   1.143126963   0.22402  -0.47235   0.00379   0.02984
  0-1A  ->  4-1A    3.743152   30190.6   331.2   0.000125709   0.00003   0.00389  -0.00040  -0.00326
  0-1A  ->  5-1A    4.015917   32390.6   308.7   0.152857760   0.03384  -0.18344   0.00867   0.01073
  0-1A  ->  6-1A    4.114221   33183.4   301.4   1.031562114   0.23395   0.00757   0.48347  -0.01226
  0-1A  ->  7-1A    4.284311   34555.3   289.4   0.000136575   0.00003   0.00235   0.00515   0.00051
  0-1A  ->  8-1A    4.546327   36668.6   272.7   0.000328646   0.00008   0.00063   0.00085   0.00901
  0-1A  ->  9-1A    4.594826   37059.8   269.8   0.003008182   0.00076   0.01574  -0.02266  -0.00078
  0-1A  -> 10-1A    4.885966   39408.0   253.8   0.000067132   0.00002   0.00231   0.00055   0.00353
  0-1A  -> 11-1A    5.021890   40504.3   246.9   0.000548702   0.00015   0.00389  -0.00294   0.01132
  0-1A  -> 12-1A    5.057332   40790.1   245.2   0.000063767   0.00002   0.00160  -0.00348  -0.00177
  0-1A  -> 13-1A    5.129655   41373.5   241.7   0.001159013   0.00033   0.00093  -0.00850   0.01595
  0-1A  -> 14-1A    5.298402   42734.5   234.0   0.000399793   0.00012   0.00049  -0.01067   0.00161
  0-1A  -> 15-1A    5.332796   43011.9   232.5   0.001813792   0.00053  -0.00497  -0.00289  -0.02236
  0-1A  -> 16-1A    5.347083   43127.1   231.9   0.000020845   0.00001  -0.00153  -0.00141  -0.00135
  0-1A  -> 17-1A    5.398485   43541.7   229.7   0.000077802   0.00002  -0.00103  -0.00250   0.00398
  0-1A  -> 18-1A    5.522726   44543.8   224.5   0.103791459   0.03160   0.00136   0.17770  -0.00417
  0-1A  -> 19-1A    5.659650   45648.2   219.1   0.000852743   0.00027   0.00210   0.01047  -0.01233
  0-1A  -> 20-1A    5.707917   46037.5   217.2   0.000176760   0.00006  -0.00146   0.00061   0.00729
  0-1A  -> 21-1A    5.885522   47469.9   210.7   0.000418538   0.00014  -0.00078   0.00287  -0.01127
  0-1A  -> 22-1A    5.901342   47597.5   210.1   0.014038450   0.00457   0.00438  -0.06742   0.00159
  0-1A  -> 23-1A    5.930597   47833.5   209.1   0.028717940   0.00939   0.00206   0.09685   0.00216
  0-1A  -> 24-1A    5.943322   47936.1   208.6   0.291657216   0.09555  -0.00150  -0.30900   0.00839
  0-1A  -> 25-1A    5.971420   48162.8   207.6   0.010794714   0.00355  -0.00100  -0.05960   0.00004
  0-1A  -> 26-1A    6.150467   49606.9   201.6   0.000066273   0.00002  -0.00218  -0.00164  -0.00388
  0-1A  -> 27-1A    6.197479   49986.0   200.1   0.011513211   0.00393  -0.00847  -0.06208   0.00275
  0-1A  -> 28-1A    6.226569   50220.7   199.1   0.001109801   0.00038  -0.00168   0.01818   0.00689
  0-1A  -> 29-1A    6.253945   50441.5   198.2   0.002027855   0.00070   0.01703  -0.01007   0.01754
  0-1A  -> 30-1A    6.287579   50712.8   197.2   0.001568800   0.00054   0.00044   0.01318  -0.01923

------------------------------------------------------------------------------------------
                     CD SPECTRUM VIA TRANSITION ELECTRIC DIPOLE MOMENTS    
------------------------------------------------------------------------------------------
     Transition      Energy     Energy  Wavelength    R        MX        MY        MZ   
                      (eV)      (cm-1)    (nm)   (1e40*cgs)   (au)      (au)      (au)  
------------------------------------------------------------------------------------------
  0-1A  ->  1-1A    1.677073   13526.5   739.3   12.55753   0.05247   0.00788   0.00268
  0-1A  ->  2-1A    2.370360   19118.2   523.1    4.85357  -0.00848   0.03863  -0.01983
  0-1A  ->  3-1A    3.555076   28673.6   348.8   42.91269  -0.02263   0.13548   0.02113
  0-1A  ->  4-1A    3.743152   30190.6   331.2    1.46449  -0.00970  -0.00525  -0.14595
  0-1A  ->  5-1A    4.015917   32390.6   308.7    9.64031  -0.01233   0.08705   0.00063
  0-1A  ->  6-1A    4.114221   33183.4   301.4   -1.78831   0.15677  -0.00329   0.01399
  0-1A  ->  7-1A    4.284311   34555.3   289.4   -0.30596  -0.00756   0.00001  -0.10648
  0-1A  ->  8-1A    4.546327   36668.6   272.7  -28.94138  -0.07300  -0.02667  -1.17939
  0-1A  ->  9-1A    4.594826   37059.8   269.8  -19.10735  -0.00351   0.30221  -0.01487
  0-1A  -> 10-1A    4.885966   39408.0   253.8   -0.05175   0.00788   0.00571  -0.01109
  0-1A  -> 11-1A    5.021890   40504.3   246.9  -30.16982  -0.06418  -0.02519  -1.01226
  0-1A  -> 12-1A    5.057332   40790.1   245.2   -0.36204   0.00711   0.00720   0.07268
  0-1A  -> 13-1A    5.129655   41373.5   241.7   -1.40680   0.03487  -0.01424  -0.04756
  0-1A  -> 14-1A    5.298402   42734.5   234.0    1.06038   0.04967  -0.00506   0.14528
  0-1A  -> 15-1A    5.332796   43011.9   232.5    3.74039  -0.01116   0.00197  -0.07369
  0-1A  -> 16-1A    5.347083   43127.1   231.9    0.20904   0.04160   0.03427  -0.10489
  0-1A  -> 17-1A    5.398485   43541.7   229.7    0.05342   0.00128   0.00091   0.00732
  0-1A  -> 18-1A    5.522726   44543.8   224.5   -3.83015   0.05844  -0.00949   0.00457
  0-1A  -> 19-1A    5.659650   45648.2   219.1    0.08501  -0.00331   0.00805   0.00305
  0-1A  -> 20-1A    5.707917   46037.5   217.2   -0.07406  -0.01022   0.13650   0.01493
  0-1A  -> 21-1A    5.885522   47469.9   210.7    6.56947   0.00835   0.00872  -0.27332
  0-1A  -> 22-1A    5.901342   47597.5   210.1    2.26082   0.00954  -0.01578  -0.03939
  0-1A  -> 23-1A    5.930597   47833.5   209.1    3.05121   0.08136   0.01134   0.03335
  0-1A  -> 24-1A    5.943322   47936.1   208.6  -13.01136   0.00266   0.01924  -0.00356
  0-1A  -> 25-1A    5.971420   48162.8   207.6    9.31590   0.01772  -0.07414  -0.01277
  0-1A  -> 26-1A    6.150467   49606.9   201.6    1.06689  -0.12858  -0.09163  -0.00116
  0-1A  -> 27-1A    6.197479   49986.0   200.1    2.90285  -0.25537   0.01219   0.01132
  0-1A  -> 28-1A    6.226569   50220.7   199.1   13.05222  -0.05162   0.34554  -0.01878
  0-1A  -> 29-1A    6.253945   50441.5   198.2    1.99254  -0.02201  -0.09271   0.01947
  0-1A  -> 30-1A    6.287579   50712.8   197.2    2.47304  -0.03650  -0.00063  -0.06350

------------------------------------------------------------------------------------------
                     CD SPECTRUM VIA TRANSITION VELOCITY DIPOLE MOMENTS    
------------------------------------------------------------------------------------------
     Transition      Energy     Energy  Wavelength    R        MX        MY        MZ   
                      (eV)      (cm-1)    (nm)   (1e40*cgs)   (au)      (au)      (au)  
------------------------------------------------------------------------------------------
  0-1A  ->  1-1A    1.677073   13526.5   739.3   12.57085   0.05247   0.00788   0.00268
  0-1A  ->  2-1A    2.370360   19118.2   523.1    4.82888  -0.00848   0.03863  -0.01983
  0-1A  ->  3-1A    3.555076   28673.6   348.8   42.70381  -0.02263   0.13548   0.02113
  0-1A  ->  4-1A    3.743152   30190.6   331.2    1.50962  -0.00970  -0.00525  -0.14595
  0-1A  ->  5-1A    4.015917   32390.6   308.7    9.65525  -0.01233   0.08705   0.00063
  0-1A  ->  6-1A    4.114221   33183.4   301.4   -1.79913   0.15677  -0.00329   0.01399
  0-1A  ->  7-1A    4.284311   34555.3   289.4   -0.21679  -0.00756   0.00001  -0.10648
  0-1A  ->  8-1A    4.546327   36668.6   272.7  -30.18997  -0.07300  -0.02667  -1.17939
  0-1A  ->  9-1A    4.594826   37059.8   269.8  -19.24363  -0.00351   0.30221  -0.01487
  0-1A  -> 10-1A    4.885966   39408.0   253.8   -0.04659   0.00788   0.00571  -0.01109
  0-1A  -> 11-1A    5.021890   40504.3   246.9  -29.71770  -0.06418  -0.02519  -1.01226
  0-1A  -> 12-1A    5.057332   40790.1   245.2   -0.36060   0.00711   0.00720   0.07268
  0-1A  -> 13-1A    5.129655   41373.5   241.7   -1.51374   0.03487  -0.01424  -0.04756
  0-1A  -> 14-1A    5.298402   42734.5   234.0    0.75673   0.04967  -0.00506   0.14528
  0-1A  -> 15-1A    5.332796   43011.9   232.5    4.08412  -0.01116   0.00197  -0.07369
  0-1A  -> 16-1A    5.347083   43127.1   231.9    0.07057   0.04160   0.03427  -0.10489
  0-1A  -> 17-1A    5.398485   43541.7   229.7    0.06064   0.00128   0.00091   0.00732
  0-1A  -> 18-1A    5.522726   44543.8   224.5   -3.77848   0.05844  -0.00949   0.00457
  0-1A  -> 19-1A    5.659650   45648.2   219.1    0.09003  -0.00331   0.00805   0.00305
  0-1A  -> 20-1A    5.707917   46037.5   217.2    0.46542  -0.01022   0.13650   0.01493
  0-1A  -> 21-1A    5.885522   47469.9   210.7    6.75247   0.00835   0.00872  -0.27332
  0-1A  -> 22-1A    5.901342   47597.5   210.1    2.26818   0.00954  -0.01578  -0.03939
  0-1A  -> 23-1A    5.930597   47833.5   209.1    2.89348   0.08136   0.01134   0.03335
  0-1A  -> 24-1A    5.943322   47936.1   208.6  -12.90575   0.00266   0.01924  -0.00356
  0-1A  -> 25-1A    5.971420   48162.8   207.6    9.45377   0.01772  -0.07414  -0.01277
  0-1A  -> 26-1A    6.150467   49606.9   201.6    0.90771  -0.12858  -0.09163  -0.00116
  0-1A  -> 27-1A    6.197479   49986.0   200.1    2.97421  -0.25537   0.01219   0.01132
  0-1A  -> 28-1A    6.226569   50220.7   199.1   12.85585  -0.05162   0.34554  -0.01878
  0-1A  -> 29-1A    6.253945   50441.5   198.2    1.84711  -0.02201  -0.09271   0.01947
  0-1A  -> 30-1A    6.287579   50712.8   197.2    2.44196  -0.03650  -0.00063  -0.06350

Total run time:    12317.003 sec

           *** ORCA-CIS/TD-DFT FINISHED WITHOUT ERROR ***
-----------------------
CIS/TD-DFT TOTAL ENERGY
-----------------------

    E(SCF)  =  -1306.567879214 Eh
    DE(CIS) =      0.061631296 Eh (Root  1)
    ----------------------------- ---------
    E(tot)  =  -1306.506247919 Eh


Maximum memory used throughout the entire CIS-calculation: 2679.6 MB
=> NOW LEAVING ORCA_CIS

-------------------------   --------------------
FINAL SINGLE POINT ENERGY     -1306.506247918531
-------------------------   --------------------



           ************************************************************
           *        Program running with 4 parallel MPI-processes     *
           *              working on a common directory               *
           ************************************************************

------------------------------------------------------------------------------
                              ORCA PROPERTY CALCULATIONS
------------------------------------------------------------------------------

GBWName                                 ... tddft.gbw
Number of atoms                         ...     47
Number of basis functions               ...    958
Max core memory                         ...   3000 MB

Electric properties:
Dipole moment                           ... YES
Quadrupole moment                       ...  NO
Static polarizability (Dipole/Dipole)   ...  NO
Static polarizability (Dipole/Quad.)    ...  NO
Static polarizability (Quad./Quad.)     ...  NO
Static polarizability (Velocity)        ...  NO
Static hyperpolarizability              ...  NO

Atomic electric properties:
Dipole moment                           ...  NO
Quadrupole moment                       ...  NO
Static polarizability                   ...  NO

Choice of electric origin               ... Center of mass
Position of electric origin             ...     0.080723     0.037241     0.572833

General magnetic properties:
Magnetizability                         ...  NO

EPR properties:
g-Tensor (aka g-matrix)                 ...  NO
Zero-Field splitting spin-orbit         ...  NO
Zero-field splitting spin-spin          ...  NO
Hyperfine couplings                     ...  NO (   0 nuclei)
Quadrupole couplings                    ...  NO (   0 nuclei)
Contact density                         ...  NO (   0 nuclei)

NMR properties:
Chemical shifts                         ...  NO (   0 nuclei)
Spin-rotation constants                 ...  NO (   0 nuclei)
Spin-spin couplings                     ...  NO (   0 nuclei,    0 pairs)

Choice of magnetic origin               ... GIAO
Position of magnetic origin             ...     0.000000     0.000000     0.000000

Properties with geometric perturbations:
SCF Hessian                             ...  NO
IR spectrum                             ...  NO
VCD spectrum                            ...  NO
X-ray spectroscopy properties:
SCF XES/XAS/RIXS spectra                ...  NO

SCF SOC stabilization energy            ...  NO
Diagonal Born-Oppenheimer correction    ...  NO

-------------
DIPOLE MOMENT
-------------

Method             : SCF
Type of density    : Electron Density
Multiplicity       :   1
Irrep              :   0
Energy             : -1306.5678792140572568 Eh
Basis              : AO
                                X                 Y                 Z
Electronic contribution:      1.583897823       1.459165617      -5.168946973
Nuclear contribution   :     -2.062435013      -1.335381725       6.629363071
                        -----------------------------------------
Total Dipole Moment    :     -0.478537190       0.123783893       1.460416098
                        -----------------------------------------
Magnitude (a.u.)       :      1.541796184
Magnitude (Debye)      :      3.918934457



--------------------
Rotational spectrum 
--------------------
 
Rotational constants in cm-1:             0.007897             0.007332             0.004249 
Rotational constants in MHz :           236.759888           219.807638           127.395342 

Dipole components along the rotational axes: 
x,y,z [a.u.] :    -0.590661    -0.104325     1.420342 
x,y,z [Debye]:    -1.501342    -0.265172     3.610222 

 

Dipole moment calculation done in   0.1 sec 

Maximum memory used throughout the entire PROP-calculation: 109.7 MB

--------------------------------
SUGGESTED CITATIONS FOR THIS RUN
--------------------------------

Below you find a list of papers that are relevant to this ORCA run
We neither can nor want to force you to cite these papers, but we appreciate if you do
You receive ORCA, which is the product of decades of hard work by many enthusiastic individuals, for free
The only thing we kindly ask in return is that you cite our papers,
We deeply appreciate it, if you show your appreciation for ORCA by not just citing the generic ORCA reference.

Please note that relegating all ORCA citations to the supporting information does *not* help us.
SI sections are not indexed - citations you put there will not count into any citation statistics
But we need these citations in order to attract the funding resources that allow us to do what we are doing

Therefore, if you are a happy ORCA user, please consider citing a few of the papers listed below in the main body of your paper

In addition to the list printed below, the program has created the file tddft.bibtex that contains the list in bibtex format
You can import this file easily into all common literature databanks and citation aid programs

It goes without saying that in many instances, there are alternative algorithms to achieve similar
results as the ones you have gotten from ORCA. It is, of course, also the case that in some instances
ORCA just re-implements algorithms worked out by others. We are fully aware of that and we are also
fully appreciative of our colleagues work. Hence this citation list should not be read as indicating
that the listed papers, which are focused on our own work, are the only ones worth citing. It simply
meant to make it easier for users to cite ORCA specific papers. It is not a substitute for doing your
own literature research and citing the relevant literature in a scientifically appropriate manner.

List of essential papers. We consider these as the minimum necessary citations

  1. Neese, F.
     Software update: the ORCA program system, version 6.0
     WIRES Comput. Molec. Sci. 2025 15(1), e70019
     doi.org/10.1002/wcms.70019

List of papers to cite with high priority. The work reported in these papers was absolutely
necessary for this run to complete.
Our perspective: the developers of density functionals and basis sets usually get cited in chemistry papers
Good! But without the algorithms to do something with them, the functionals or basis sets would not do anything.
Hence, in our opinion, the algorithm design and method developments papers are equally worthy of getting cited

  1. Neese, F.; Olbrich, G.
     Efficient use of the resolution of the identity approximation in time-dependent density functional calculations with hybrid density functionals
     Chem. Phys. Lett. 2002 362 , 170-178
     doi.org/10.1016/s0009-2614(02)01053-9
  2. Neese, F.
     An improvement of the resolution of the identity approximation for the formation of the Coulomb matrix
     J. Comp. Chem. 2003 24(14), 1740-1747
     doi.org/10.1002/jcc.10318
  3. Neese, F.; Wennmohs, F.; Hansen, A.; Becker, U.
     Efficient, approximate and parallel Hartree-Fock and hybrid DFT calculations. A 'chain-of-spheres' algorithm for the Hartree-Fock exchange
     Chem. Phys. 2009 356(1-3), 98-109
     doi.org/10.1016/j.chemphys.2008.10.036
  4. Garcia-Rates, M.; Neese, F.
     Effect of the Solute Cavity on the Solvation Energy and its Derivatives within the Framework of the Gaussian Charge Scheme
     J. Comput. Chem. 2020 41 , 922-939
     doi.org/10.1002/jcc.26139
  5. Helmich-Paris, B.; de Souza, B.; Neese, F.; Izsák, R.
     An improved chain of spheres for exchange algorithm
     J. Chem. Phys. 2021 155(10), 104109
     doi.org/10.1063/5.0058766
  6. Neese, F.
     The SHARK Integral Generation and Digestion System
     J. Comp. Chem. 2022 44(3), 381
     doi.org/10.1002/jcc.26942

List of suggested additional citations. These are papers that are important in the 'surrounding' of 
of this run, or papers that preceded the highly important papers. If you like your results we are grateful for a citation.

  1. Izsak, R.; Neese, F.
     An overlap fitted chain of spheres exchange method
     J. Chem. Phys. 2011 135 , 144105
     doi.org/10.1063/1.3646921
  2. Izsak, R.; Hansen, A.; Neese, F.
     The resolution of identity and chain of spheres approximations for the LPNO-CCSD singles Fock term
     Molec. Phys. 2012 110 , 2413-2417
     doi.org/10.1080/00268976.2012.687466
  3. Neese, F.
     The ORCA program system
     WIRES Comput. Molec. Sci. 2012 2(1), 73-78
     doi.org/10.1002/wcms.81
  4. Izsak, R.; Neese, F.; Klopper, W.
     Robust fitting techniques in the chain of spheres approximation to the Fock exchange: The role of the complementary space
     J. Chem. Phys. 2013 139 , 
     doi.org/10.1063/1.4819264
  5. Neese, F.
     Software update: the ORCA program system, version 4.0
     WIRES Comput. Molec. Sci. 2018 8(1), 1-6
     doi.org/10.1002/wcms.1327
  6. Neese, F.; Wennmohs, F.; Becker, U.; Riplinger, C.
     The ORCA quantum chemistry program package
     J. Chem. Phys. 2020 152(22), 224108
     doi.org/10.1063/5.0004608
  7. Neese, F.
     Software update: The ORCA program system—Version 5.0
     WIRES Comput. Molec. Sci. 2022 12(1), e1606
     doi.org/10.1002/wcms.1606

List of optional additional citations

  1. Neese, F.
     Approximate second-order SCF convergence for spin unrestricted wavefunctions
     Chem. Phys. Lett. 2000 325(1-3), 93-98
     doi.org/10.1016/s0009-2614(00)00662-x

Timings for individual modules:

Sum of individual times          ...    14744.340 sec (= 245.739 min)
Startup calculation              ...       20.285 sec (=   0.338 min)   0.1 %
SCF iterations                   ...     2404.334 sec (=  40.072 min)  16.3 %
Property integrals               ...        1.364 sec (=   0.023 min)   0.0 %
Property calculations            ...        0.810 sec (=   0.013 min)   0.0 %
CIS module                       ...    12317.547 sec (= 205.292 min)  83.5 %
                             ****ORCA TERMINATED NORMALLY****
TOTAL RUN TIME: 0 days 4 hours 5 minutes 44 seconds 780 msec
