
                                 *****************
                                 * O   R   C   A *
                                 *****************

                                            #,                                       
                                            ###                                      
                                            ####                                     
                                            #####                                    
                                            ######                                   
                                           ########,                                 
                                     ,,################,,,,,                         
                               ,,#################################,,                 
                          ,,##########################################,,             
                       ,#########################################, ''#####,          
                    ,#############################################,,   '####,        
                  ,##################################################,,,,####,       
                ,###########''''           ''''###############################       
              ,#####''   ,,,,##########,,,,          '''####'''          '####       
            ,##' ,,,,###########################,,,                        '##       
           ' ,,###''''                  '''############,,,                           
         ,,##''                                '''############,,,,        ,,,,,,###''
      ,#''                                            '''#######################'''  
     '                                                          ''''####''''         
             ,#######,   #######,   ,#######,      ##                                
            ,#'     '#,  ##    ##  ,#'     '#,    #''#        ,####,    ,#,          
            ##       ##  ##   ,#'  ##            #'  '#       #'       ,# #          
            ##       ##  #######   ##           ,######,      #####,      #          
            '#,     ,#'  ##    ##  '#,     ,#' ,#      #,     #,   #      #          
             '#######'   ##     ##  '#######'  #'      '#     '####' #    #          



                #########################################################
                #                        -***-                          #
                #          Department of theory and spectroscopy        #
                #                                                       #
                #                      Frank Neese                      #
                #                                                       #
                #     Directorship, Architecture, Infrastructure        #
                #                    SHARK, DRIVERS                     #
                #        Core code/Algorithms in most modules           #
                #                                                       #
                #        Max Planck Institute fuer Kohlenforschung      #
                #                Kaiser Wilhelm Platz 1                 #
                #                 D-45470 Muelheim/Ruhr                 #
                #                      Germany                          #
                #                                                       #
                #                  All rights reserved                  #
                #                        -***-                          #
                #########################################################


                         Program Version 6.1.1  -  RELEASE   -
                                (GIT: $487d211c$)
                          ($2025-11-21 10:33:24 +0100$)


 With contributions from (in alphabetic order):
[Max-Planck-Institut fuer Kohlenforschung]                               
  Daniel Aravena         : Magnetic Suceptibility                        
  Michael Atanasov       : Ab Initio Ligand Field Theory (pilot matlab implementation)
  Alexander A. Auer      : GIAO ZORA, VPT2 properties, NMR spectrum      
  Ute Becker             : All parallelization in ORCA, NUMFREQ, NUMCALC 
  Giovanni Bistoni       : ED, misc. LED, open-shell LED, HFLD           
  Dmytro Bykov           : pre 5.0 version of the SCF Hessian            
  Marcos Casanova-Páez   : Triplet and SCS-CIS(D). UHF-(DLPNO)-IP/EA/STEOM-CCSD. UHF-CVS-IP/STEOM-CCSD   
  Vijay G. Chilkuri      : MRCI spin determinant printing, contributions to CSF-ICE 
  Pauline Colinet        : FMM embedding                                 
  Dipayan Datta          : RHF DLPNO-CCSD density                        
  Achintya Kumar Dutta   : EOM-CC, STEOM-CC                              
  Nicolas Foglia         : Exact transition moments, OPA infrastructure, MCD improvements    
  Dmitry Ganyushin       : Spin-Orbit,Spin-Spin,Magnetic field MRCI      
  Miquel Garcia-Rates    : C-PCM and meta-GGA Hessian, CCSD/C-PCM, Gaussian charge scheme 
  Tiago L. C. Gouveia    : GS-ROHF, GS-ROCIS                             
  Yang Guo               : DLPNO-NEVPT2, F12-NEVPT2, CIM, IAO-localization        
  Andreas Hansen         : Spin unrestricted coupled pair/coupled cluster methods 
  Ingolf Harden          : AUTO-CI MPn and infrastructure                
  Benjamin Helmich-Paris : MC-RPA, TRAH-(SCF,CASSCF), AVAS, COSX integrals, SCF dyn. polar., MC-PDFT, srDFT 
  Lee Huntington         : MR-EOM, pCC                                   
  Robert Izsak           : Overlap fitted RIJCOSX, COSX-SCS-MP3, EOM     
  Riya Kayal             : Wick's Theorem for AUTO-CI, AUTO-CI UHF-CCSDT 
  Emily Kempfer          : AUTO-CI RHF CISDT and CCSDT, approximate NEVPT4
  Christian Kollmar      : KDIIS, OOCD, Brueckner-CCSD(T), CCSD density, CASPT2, CASPT2-K, improved NEVPT2 
  Axel Koslowski         : Symmetry handling                             
  Simone Kossmann        : meta-GGA functionals, TD-DFT gradient, OOMP2, (MP2 Hessian; deprecated post 5.0) 
  Lucas Lang             : DCDCAS, Hyperfine gauge corrections, ICE-SOC+SSC
  Marvin Lechner         : AUTO-CI (C++ implementation), FIC-MRCC        
  Spencer Leger          : CASSCF response                               
  Dagmar Lenk            : GEPOL surface, SMD, ORCA-2-JSON               
  Dimitrios Liakos       : Extrapolation schemes; Compound Job, Property file
  Dimitrios Manganas     : Further ROCIS development; embedding schemes. LFT, Crystal Embedding 
  Dimitrios Pantazis     : SARC Basis sets                               
  Anastasios Papadopoulos: AUTO-CI, single reference methods and gradients 
  Taras Petrenko         : pre 6.0 DFT Hessian and TD-DFT gradient,  ECA, NRVS 
  Petra Pikulova         : Analytic Raman intensities                    
  Peter Pinski           : DLPNO-MP2, DLPNO-MP2 Gradient                 
  Shashank Vittal Rao    : ES-AILFT, MagRelax                            
  Christoph Reimann      : Effective Core Potentials                     
  Marius Retegan         : Local ZFS, SOC                                
  Christoph Riplinger    : Optimizer, TS searches, QM/MM, DLPNO-CCSD(T), (RO)-DLPNO pert. Triples 
  Michael Roemelt        : Original ROCIS implementation, recursive CI coupling coefficients
  Masaaki Saitow         : Open-shell DLPNO-CCSD energy and density      
  Barbara Sandhoefer     : DKH picture change effects                    
  Yorick L. A. Schmerwitz: GMF and freeze-and-release deltaSCF, NEB S-IDPP initial path                    
  Kantharuban Sivalingam : CASSCF convergence/infrastructure, NEVPT2, NEVPT3, NEVPT4(SD), FIC-MRCI and CEPA variants
  Bernardo de Souza      : ESD, SOC TD-DFT                               
  Georgi L. Stoychev     : AutoAux, RI-MP2 NMR, DLPNO-MP2 response, X2C  
  Van Anh Tran           : RI-MP2 g-tensors                              
  Willem Van den Heuvel  : Paramagnetic NMR                              
  Zikuan Wang            : NOTCH, Electric field optimization            
  Frank Wennmohs         : Technical directorship and infrastructure     
  Hang Xu                : AUTO-CI-Response properties                   
                                                                         
[FACCTs GmbH]                                                            
  Markus Bursch, Nicolas Foglia, Miquel Garcia-Rates, Ingolf Harden, Hagen Neugebauer, Anastasios Papadopoulos, 
  Christoph Riplinger, Bernardo de Souza, Georgi L. Stoychev                                                    
                                                                 
  APM, various basis sets, CI-OPT, improved COSX, DLPNO-Multilevel,           
  DOCKER, DRACO, updates on ESD, Fragmentator, GOAT, IRC, LR-CPCM, L-BFGS, MBIS, meta-GGA TD-DFT gradient, ML-optimized integration grids, 
  MM, NACMEs, nearIR, NEB, NEB-TS, NL-DFT gradient (VV10), 2- and 3-layer-ONIOM, interface openCOSMO-RS, QMMM,   
  Crystal-QMMM, RESP, rigid body optimization, SF, symmetry and pop. for TD-DFT, various functionals, SOLVATOR                                   
                                                                         
[Other institutions]                                                     
  V. Asgeirsson          : NEB                                           
  Christoph Bannwarth    : sTDA-DFT, sTD-DFT, PBEh-3c, B97-3c, D3        
  Giovanni Bistoni       : ETS/NOCV, ADLD/ADEX, COVALED                  
  Martin Brehm           : Molecular dynamics                            
  Ronald Cardenas        : ETS/NOCV                                      
  Martina Colucci        : COVALED                                       
  Sebastian Ehlert       : rSCAN, r2SCAN, r2SCAN-3c, D4, dhf basis sets  
  Marvin Friede          : D4 for Fr, Ra, Ac-Lr                          
  Lars Goerigk           : TD-DFT with DH, B97 family of functionals     
  Stefan Grimme          : VdW corrections, initial TS optimization, DFT functionals, gCP, sTDA/sTD-DF 
  Waldemar Hujo          : DFT-NL                                        
  H. Jonsson             : NEB                                           
  Holger Kruse           : gCP                                           
  Marcel Mueller         : wB97X-3c, vDZP basis set                      
  Hagen Neugebauer       : wr2SCAN, Native XTB                           
  Gianluca Regni         : ADLD/ADEX                                     
  Tobias Risthaus        : pre 6.0 range-separated hybrid DFT and stability analysis
  Lukas Wittmann         : regularized MP2, r2SCAN double-hybrids, wr2SCAN        
                                                                         
We gratefully acknowledge several colleagues who have allowed us to      
interface, adapt or use parts of their codes:                            
  Ed Valeev, F. Pavosevic, A. Kumar             : LibInt (2-el integral package), F12 methods 
  Garnet Chan, S. Sharma, J. Yang, R. Olivares  : DMRG                   
  Ulf Ekstrom                                   : XCFun DFT Library      
  Mihaly Kallay                                 : mrcc  (arbitrary order and MRCC methods)
  Frank Weinhold                                : gennbo (NPA and NBO analysis)           
  Simon Mueller                                 : openCOSMO-RS                            
  Christopher J. Cramer and Donald G. Truhlar   : smd solvation model                     
  S Lehtola, MJT Oliveira, MAL Marques          : LibXC Library                           
  Liviu Ungur et al                             : ANISO software                          


 Your calculation uses the libint2 library for the computation of 2-el integrals
 For citations please refer to: http://libint.valeyev.net

 Your ORCA version has been built with support for libXC version: 7.0.0
 For citations please refer to: https://libxc.gitlab.io

 This ORCA versions uses:
   CBLAS   interface :  Fast vector & matrix operations
   LAPACKE interface :  Fast linear algebra routines
   SCALAPACK package :  Parallel linear algebra routines
   Shared memory     :  Shared parallel matrices
   BLAS/LAPACK       :  OpenBLAS 0.3.29  USE64BITINT DYNAMIC_ARCH NO_AFFINITY Haswell SINGLE_THREADED
        Core in use  :  Haswell
   Copyright (c) 2011-2014, The OpenBLAS Project


  ***********************************
  * Starting time: Tue Jul  7 22:43:53 2026
  * Host name:     steezy
  * Process ID:    1608957
  * Working dir.:  /home/jannes/chlorophyll-ladder/008-mgbacteriochlorin-axial-ligation/mgbacteriochlorin_imidazole/03_tddft_ch2cl2/tpss
  ***********************************

NOTE: MaxCore=3000 MB was set to SCF,MP2,MDCI,CIPSI,MRCI,RASCI and CIS
      => If you want to overwrite this, your respective input block should be placed after the MaxCore statement


***************************************
The coordinates will be read from file: /home/jannes/chlorophyll-ladder/008-mgbacteriochlorin-axial-ligation/mgbacteriochlorin_imidazole/01_opt/mgbacteriochlorin_imidazole_opt_b3lypd4_tzvp.xyz
***************************************


================================================================================

----- Orbital basis set information -----
Your calculation utilizes the basis: def2-TZVP
   F. Weigend and R. Ahlrichs, Phys. Chem. Chem. Phys. 7, 3297 (2005).

----- AuxJ basis set information -----
Your calculation utilizes the auxiliary basis: def2/J
   H-Rn: F. Weigend, Phys. Chem. Chem. Phys. 8, 1057 (2006).
   Fr-Lr: K. Eichkorn, F. Weigend, O. Treutler, R. Ahlrichs; Theor. Chem. Acc. 97, 119 (1997).

================================================================================
                                        WARNINGS
                       Please study these warnings very carefully!
================================================================================



WARNING: Found flag for RIJCOSX approximation but no HF exchange needed!
  ===> : RIJCOSX  will be disabled and Split-RI-J is turned on

WARNING: CIS/ROCIS methods need fully converged wavefunctions
  ===> : Setting SCFConvForced true
         You can overwrite this default with %scf ConvForced false 


================================================================================
                                       INPUT FILE
================================================================================
NAME = tddft.inp
|  1> %pal nprocs 4 end
|  2> %maxcore 3000
|  3> ! TPSS def2-TZVP def2/J RIJCOSX DefGrid3 TightSCF CPCM(CH2Cl2)
|  4> %tddft
|  5>   nroots 30
|  6>   tda false
|  7>   triplets false
|  8> end
|  9> * xyzfile 0 1 /home/jannes/chlorophyll-ladder/008-mgbacteriochlorin-axial-ligation/mgbacteriochlorin_imidazole/01_opt/mgbacteriochlorin_imidazole_opt_b3lypd4_tzvp.xyz
| 10> 
| 11>                          ****END OF INPUT****
================================================================================

                       ****************************
                       * Single Point Calculation *
                       ****************************

---------------------------------
CARTESIAN COORDINATES (ANGSTROEM)
---------------------------------
  N     -2.002942    0.038273    0.178145
  N      2.242784   -0.107531   -0.137503
  N      0.049500   -2.074060    0.023584
  N      0.190678    2.007985    0.030025
  C     -4.271256   -0.641865    0.161385
  C      4.455222   -0.944830   -0.255908
  C     -4.209224    0.874104    0.397030
  C      4.487090    0.575476   -0.468474
  C     -2.807410   -1.045764    0.162004
  C      2.968638   -1.245214   -0.175890
  C     -2.726851    1.177696    0.264364
  C      3.039354    0.979721   -0.251068
  C     -1.076181   -2.847388    0.060063
  C      1.117887   -2.922675   -0.049419
  C     -0.874882    2.856404    0.143720
  C      1.312623    2.781924   -0.070741
  C     -2.388352   -2.360924    0.123312
  C      2.460121   -2.527955   -0.124040
  C     -2.215435    2.458139    0.263218
  C      2.621177    2.292904   -0.204807
  C     -0.709389   -4.234100    0.015662
  C      0.654747   -4.280922   -0.050214
  C     -0.413814    4.212757    0.120502
  C      0.947906    4.166450   -0.014880
  H     -4.723914   -0.885394   -0.803852
  H     -4.840664   -1.175128    0.923696
  H      4.945342   -1.237283    0.677140
  H      4.939662   -1.502294   -1.058387
  H     -4.806720    1.445165   -0.314471
  H     -4.558989    1.144624    1.397525
  H      5.161044    1.093197    0.215326
  H      4.799565    0.836781   -1.483324
  H     -3.168968   -3.112551    0.127447
  H      3.185035   -3.332326   -0.166972
  H     -2.937786    3.261960    0.345436
  H      3.395872    3.045260   -0.296805
  H     -1.402287   -5.061448    0.024046
  H      1.287111   -5.153700   -0.105999
  H     -1.044513    5.086291    0.184345
  H      1.636065    4.995201   -0.081691
  Mg     0.141445   -0.036374    0.301675
  N      0.306043    0.021688    2.437953
  C      0.383268    1.121859    3.153747
  N      0.478391    0.819854    4.467986
  C      0.460452   -0.552981    4.592210
  C      0.352832   -1.031763    3.320010
  H      0.372690    2.124511    2.760009
  H      0.524364   -1.045393    5.545721
  H      0.306128   -2.050302    2.975017
  H      0.549235    1.484104    5.219472

----------------------------
CARTESIAN COORDINATES (A.U.)
----------------------------
  NO LB      ZA    FRAG     MASS         X           Y           Z
   0 N     7.0000    0    14.007   -3.785012    0.072326    0.336646
   1 N     7.0000    0    14.007    4.238248   -0.203204   -0.259844
   2 N     7.0000    0    14.007    0.093541   -3.919405    0.044568
   3 N     7.0000    0    14.007    0.360330    3.794542    0.056739
   4 C     6.0000    0    12.011   -8.071505   -1.212950    0.304974
   5 C     6.0000    0    12.011    8.419150   -1.785471   -0.483596
   6 C     6.0000    0    12.011   -7.954281    1.651817    0.750278
   7 C     6.0000    0    12.011    8.479371    1.087493   -0.885288
   8 C     6.0000    0    12.011   -5.305237   -1.976208    0.306143
   9 C     6.0000    0    12.011    5.609913   -2.353114   -0.332384
  10 C     6.0000    0    12.011   -5.153001    2.225523    0.499576
  11 C     6.0000    0    12.011    5.743546    1.851405   -0.474450
  12 C     6.0000    0    12.011   -2.033687   -5.380784    0.113503
  13 C     6.0000    0    12.011    2.112500   -5.523055   -0.093388
  14 C     6.0000    0    12.011   -1.653288    5.397822    0.271592
  15 C     6.0000    0    12.011    2.480499    5.257075   -0.133680
  16 C     6.0000    0    12.011   -4.513331   -4.461500    0.233026
  17 C     6.0000    0    12.011    4.648955   -4.777143   -0.234402
  18 C     6.0000    0    12.011   -4.186565    4.645209    0.497410
  19 C     6.0000    0    12.011    4.953308    4.332961   -0.387030
  20 C     6.0000    0    12.011   -1.340550   -8.001289    0.029596
  21 C     6.0000    0    12.011    1.237292   -8.089771   -0.094892
  22 C     6.0000    0    12.011   -0.781996    7.960957    0.227716
  23 C     6.0000    0    12.011    1.791284    7.873449   -0.028119
  24 H     1.0000    0     1.008   -8.926903   -1.673152   -1.519060
  25 H     1.0000    0     1.008   -9.147529   -2.220669    1.745533
  26 H     1.0000    0     1.008    9.345342   -2.338125    1.279610
  27 H     1.0000    0     1.008    9.334609   -2.838924   -2.000062
  28 H     1.0000    0     1.008   -9.083384    2.730967   -0.594264
  29 H     1.0000    0     1.008   -8.615241    2.163027    2.640939
  30 H     1.0000    0     1.008    9.752960    2.065842    0.406907
  31 H     1.0000    0     1.008    9.069864    1.581286   -2.803076
  32 H     1.0000    0     1.008   -5.988481   -5.881869    0.240840
  33 H     1.0000    0     1.008    6.018843   -6.297184   -0.315531
  34 H     1.0000    0     1.008   -5.551611    6.164211    0.652779
  35 H     1.0000    0     1.008    6.417268    5.754707   -0.560880
  36 H     1.0000    0     1.008   -2.649938   -9.564750    0.045440
  37 H     1.0000    0     1.008    2.432288   -9.739081   -0.200309
  38 H     1.0000    0     1.008   -1.973843    9.611696    0.348361
  39 H     1.0000    0     1.008    3.091715    9.439562   -0.154373
  40 Mg   12.0000    0    24.305    0.267293   -0.068737    0.570083
  41 N     7.0000    0    14.007    0.578338    0.040984    4.607064
  42 C     6.0000    0    12.011    0.724272    2.120006    5.959718
  43 N     7.0000    0    14.007    0.904028    1.549300    8.443270
  44 C     6.0000    0    12.011    0.870128   -1.044983    8.678020
  45 C     6.0000    0    12.011    0.666757   -1.949750    6.273910
  46 H     1.0000    0     1.008    0.704283    4.014744    5.215662
  47 H     1.0000    0     1.008    0.990905   -1.975506   10.479894
  48 H     1.0000    0     1.008    0.578497   -3.874509    5.621967
  49 H     1.0000    0     1.008    1.037903    2.804550    9.863372

--------------------------------
INTERNAL COORDINATES (ANGSTROEM)
--------------------------------
 N      0   0   0     0.000000000000     0.00000000     0.00000000
 N      1   0   0     4.259939638426     0.00000000     0.00000000
 N      1   2   0     2.949297689498    43.78149850     0.00000000
 N      1   2   3     2.951893771490    43.81961343   179.63685761
 C      1   2   3     2.368146431886   160.78554592   346.33226749
 C      2   1   3     2.368537914343   161.22352230   356.48920560
 C      5   1   2     1.535428205934    71.13457220   185.01546071
 C      6   2   1     1.535425878829    71.11194723   175.35852582
 C      1   2   3     1.350024287500   124.43938644   356.15456505
 C      2   1   3     1.350059180357   124.52748557   359.14454666
 C      1   2   3     1.352686925667   124.53650244   178.39359100
 C      2   1   3     1.352604044502   124.44809802   177.15987421
 C      3   1   2     1.366207973325    80.24803711   181.97049571
 C      3   1   2     1.366355706870   172.64617422     2.35625915
 C      4   1   2     1.366807076454    80.25194166   181.21045990
 C      4   1   2     1.366710064627   172.56738440     7.55198151
 C      9   1   2     1.380852264557   125.75146148     4.14163354
 C     10   2   1     1.380833701472   125.71557427     0.21181575
 C     11   1   2     1.378796952227   125.71126891     0.04377725
 C     12   2   1     1.378934596369   125.73814575     4.00522140
 C     13   3   1     1.435087952094   109.60547849   180.35748949
 C     21  13   3     1.366527289102   106.84249095   359.90610663
 C     15   4   1     1.432764937614   109.59692974   180.58665135
 C     23  15   4     1.369217361590   106.83560268     0.24940297
 H      5   1   2     1.093566589065   117.81915474   290.33782843
 H      5   1   2     1.090739097743   129.45696173    79.85723576
 H      6   2   1     1.093766454611   118.06329297   280.72559262
 H      6   2   1     1.090605637061   129.22731452    70.30875065
 H      7   5   1     1.090571092576   113.24962504   125.64243754
 H      7   5   1     1.093849448065   111.81627498   246.59696958
 H      8   6   2     1.090793936943   113.32775734   125.63648155
 H      8   6   2     1.093544781870   111.77777533   246.60046726
 H     17   9   1     1.083661148265   116.22422662   179.27682093
 H     18  10   2     1.083676958091   116.21209032   179.96396253
 H     19  11   1     1.083826122410   116.19806870   180.33664660
 H     20  12   2     1.083814421110   116.19705998   179.04882487
 H     21  13   3     1.079204799240   125.20085172   180.46064713
 H     22  21  13     1.079230230996   127.96034099   180.58620237
 H     23  15   4     1.079313133572   125.25198504   179.41437780
 H     24  23  15     1.079284489382   127.89862525   179.16700760
 Mg     3   1   2     2.058628863112    46.77014748    10.84341062
 N     41   3   1     2.143396492956    99.49025001    97.57534885
 C     42  41   3     1.314800252145   124.73500703   180.81731732
 N     43  42  41     1.351842832637   110.27144603   180.03425249
 C     44  43  42     1.378560889052   108.00880672     0.00000000
 C     45  44  43     1.363564509484   105.46328334     0.00000000
 H     43  42  41     1.077243350942   125.39832456     0.06104516
 H     45  44  43     1.075052091452   122.36312084   179.97649491
 H     46  45  44     1.076393317658   129.39854075   179.98017989
 H     44  43  42     1.005473524554   125.73066734   180.02578212

---------------------------
INTERNAL COORDINATES (A.U.)
---------------------------
 N      0   0   0     0.000000000000     0.00000000     0.00000000
 N      1   0   0     8.050119263661     0.00000000     0.00000000
 N      1   2   0     5.573364920559    43.78149850     0.00000000
 N      1   2   3     5.578270804545    43.81961343   179.63685761
 C      1   2   3     4.475148201287   160.78554592   346.33226749
 C      2   1   3     4.475887995917   161.22352230   356.48920560
 C      5   1   2     2.901538807514    71.13457220   185.01546071
 C      6   2   1     2.901534409922    71.11194723   175.35852582
 C      1   2   3     2.551176177516   124.43938644   356.15456505
 C      2   1   3     2.551242115461   124.52748557   359.14454666
 C      1   2   3     2.556207834447   124.53650244   178.39359100
 C      2   1   3     2.556051211744   124.44809802   177.15987421
 C      3   1   2     2.581758911564    80.24803711   181.97049571
 C      3   1   2     2.582038087504   172.64617422     2.35625915
 C      4   1   2     2.582891052404    80.25194166   181.21045990
 C      4   1   2     2.582707726619   172.56738440     7.55198151
 C      9   1   2     2.609432611418   125.75146148     4.14163354
 C     10   2   1     2.609397532270   125.71557427     0.21181575
 C     11   1   2     2.605548633995   125.71126891     0.04377725
 C     12   2   1     2.605808743728   125.73814575     4.00522140
 C     13   3   1     2.711923207548   109.60547849   180.35748949
 C     21  13   3     2.582362330932   106.84249095   359.90610663
 C     15   4   1     2.707533346376   109.59692974   180.58665135
 C     23  15   4     2.587445831216   106.83560268     0.24940297
 H      5   1   2     2.066541362539   117.81915474   290.33782843
 H      5   1   2     2.061198178295   129.45696173    79.85723576
 H      6   2   1     2.066919053685   118.06329297   280.72559262
 H      6   2   1     2.060945974155   129.22731452    70.30875065
 H      7   5   1     2.060880694540   113.24962504   125.64243754
 H      7   5   1     2.067075888583   111.81627498   246.59696958
 H      8   6   2     2.061301809365   113.32775734   125.63648155
 H      8   6   2     2.066500152913   111.77777533   246.60046726
 H     17   9   1     2.047822792191   116.22422662   179.27682093
 H     18  10   2     2.047852668434   116.21209032   179.96396253
 H     19  11   1     2.048134548145   116.19806870   180.33664660
 H     20  12   2     2.048112435893   116.19705998   179.04882487
 H     21  13   3     2.039401512978   125.20085172   180.46064713
 H     22  21  13     2.039449572031   127.96034099   180.58620237
 H     23  15   4     2.039606235195   125.25198504   179.41437780
 H     24  23  15     2.039552105520   127.89862525   179.16700760
 Mg     3   1   2     3.890244762667    46.77014748    10.84341062
 N     41   3   1     4.050432368094    99.49025001    97.57534885
 C     42  41   3     2.484612397366   124.73500703   180.81731732
 N     43  42  41     2.554612729789   110.27144603   180.03425249
 C     44  43  42     2.605102539244   108.00880672     0.00000000
 C     45  44  43     2.576763488860   105.46328334     0.00000000
 H     43  42  41     2.035694912867   125.39832456     0.06104516
 H     45  44  43     2.031554032543   122.36312084   179.97649491
 H     46  45  44     2.034088582757   129.39854075   179.98017989
 H     44  43  42     1.900069596316   125.73066734   180.02578212

---------------------
BASIS SET INFORMATION
---------------------
There are 4 groups of distinct atoms

 Group   1 Type N   : 11s6p2d1f contracted to 5s3p2d1f pattern {62111/411/11/1}
 Group   2 Type C   : 11s6p2d1f contracted to 5s3p2d1f pattern {62111/411/11/1}
 Group   3 Type H   : 5s1p contracted to 3s1p pattern {311/1}
 Group   4 Type Mg  : 14s8p3d contracted to 5s4p3d pattern {73211/5111/111}

Atom   0N    basis set group =>   1
Atom   1N    basis set group =>   1
Atom   2N    basis set group =>   1
Atom   3N    basis set group =>   1
Atom   4C    basis set group =>   2
Atom   5C    basis set group =>   2
Atom   6C    basis set group =>   2
Atom   7C    basis set group =>   2
Atom   8C    basis set group =>   2
Atom   9C    basis set group =>   2
Atom  10C    basis set group =>   2
Atom  11C    basis set group =>   2
Atom  12C    basis set group =>   2
Atom  13C    basis set group =>   2
Atom  14C    basis set group =>   2
Atom  15C    basis set group =>   2
Atom  16C    basis set group =>   2
Atom  17C    basis set group =>   2
Atom  18C    basis set group =>   2
Atom  19C    basis set group =>   2
Atom  20C    basis set group =>   2
Atom  21C    basis set group =>   2
Atom  22C    basis set group =>   2
Atom  23C    basis set group =>   2
Atom  24H    basis set group =>   3
Atom  25H    basis set group =>   3
Atom  26H    basis set group =>   3
Atom  27H    basis set group =>   3
Atom  28H    basis set group =>   3
Atom  29H    basis set group =>   3
Atom  30H    basis set group =>   3
Atom  31H    basis set group =>   3
Atom  32H    basis set group =>   3
Atom  33H    basis set group =>   3
Atom  34H    basis set group =>   3
Atom  35H    basis set group =>   3
Atom  36H    basis set group =>   3
Atom  37H    basis set group =>   3
Atom  38H    basis set group =>   3
Atom  39H    basis set group =>   3
Atom  40Mg   basis set group =>   4
Atom  41N    basis set group =>   1
Atom  42C    basis set group =>   2
Atom  43N    basis set group =>   1
Atom  44C    basis set group =>   2
Atom  45C    basis set group =>   2
Atom  46H    basis set group =>   3
Atom  47H    basis set group =>   3
Atom  48H    basis set group =>   3
Atom  49H    basis set group =>   3
---------------------------------
AUXILIARY/J BASIS SET INFORMATION
---------------------------------
There are 4 groups of distinct atoms

 Group   1 Type N   : 12s5p4d2f1g contracted to 6s4p3d1f1g pattern {711111/2111/211/2/1}
 Group   2 Type C   : 12s5p4d2f1g contracted to 6s4p3d1f1g pattern {711111/2111/211/2/1}
 Group   3 Type H   : 5s2p1d contracted to 3s1p1d pattern {311/2/1}
 Group   4 Type Mg  : 14s5p5d2f1g contracted to 8s4p4d1f1g pattern {71111111/2111/2111/2/1}

Atom   0N    basis set group =>   1
Atom   1N    basis set group =>   1
Atom   2N    basis set group =>   1
Atom   3N    basis set group =>   1
Atom   4C    basis set group =>   2
Atom   5C    basis set group =>   2
Atom   6C    basis set group =>   2
Atom   7C    basis set group =>   2
Atom   8C    basis set group =>   2
Atom   9C    basis set group =>   2
Atom  10C    basis set group =>   2
Atom  11C    basis set group =>   2
Atom  12C    basis set group =>   2
Atom  13C    basis set group =>   2
Atom  14C    basis set group =>   2
Atom  15C    basis set group =>   2
Atom  16C    basis set group =>   2
Atom  17C    basis set group =>   2
Atom  18C    basis set group =>   2
Atom  19C    basis set group =>   2
Atom  20C    basis set group =>   2
Atom  21C    basis set group =>   2
Atom  22C    basis set group =>   2
Atom  23C    basis set group =>   2
Atom  24H    basis set group =>   3
Atom  25H    basis set group =>   3
Atom  26H    basis set group =>   3
Atom  27H    basis set group =>   3
Atom  28H    basis set group =>   3
Atom  29H    basis set group =>   3
Atom  30H    basis set group =>   3
Atom  31H    basis set group =>   3
Atom  32H    basis set group =>   3
Atom  33H    basis set group =>   3
Atom  34H    basis set group =>   3
Atom  35H    basis set group =>   3
Atom  36H    basis set group =>   3
Atom  37H    basis set group =>   3
Atom  38H    basis set group =>   3
Atom  39H    basis set group =>   3
Atom  40Mg   basis set group =>   4
Atom  41N    basis set group =>   1
Atom  42C    basis set group =>   2
Atom  43N    basis set group =>   1
Atom  44C    basis set group =>   2
Atom  45C    basis set group =>   2
Atom  46H    basis set group =>   3
Atom  47H    basis set group =>   3
Atom  48H    basis set group =>   3
Atom  49H    basis set group =>   3


           ************************************************************
           *        Program running with 4 parallel MPI-processes     *
           *              working on a common directory               *
           ************************************************************
------------------------------------------------------------------------------
                             ORCA STARTUP CALCULATIONS
                           -- RI-GTO INTEGRALS CHOSEN --
------------------------------------------------------------------------------
------------------------------------------------------------------------------
                   ___                                                        
                  /   \      - P O W E R E D   B Y -                         
                 /     \                                                     
                 |  |  |   _    _      __       _____    __    __             
                 |  |  |  | |  | |    /  \     |  _  \  |  |  /  |          
                  \  \/   | |  | |   /    \    | | | |  |  | /  /          
                 / \  \   | |__| |  /  /\  \   | |_| |  |  |/  /          
                |  |  |   |  __  | /  /__\  \  |    /   |      \           
                |  |  |   | |  | | |   __   |  |    \   |  |\   \          
                \     /   | |  | | |  |  |  |  | |\  \  |  | \   \       
                 \___/    |_|  |_| |__|  |__|  |_| \__\ |__|  \__/        
                                                                              
                      - O R C A' S   B I G   F R I E N D -                    
                                      &                                       
                       - I N T E G R A L  F E E D E R -                       
                                                                              
 v1 FN, 2020, v2 2021, v3 2022-2024                                           
------------------------------------------------------------------------------


----------------------
SHARK INTEGRAL PACKAGE
----------------------

Number of atoms                             ...     50
Number of basis functions                   ...   1051
Number of shells                            ...    411
Maximum angular momentum                    ...      3
Integral batch strategy                     ... SHARK/LIBINT Hybrid
RI-J (if used) integral strategy            ... SPLIT-RIJ (Revised 2003 algorithm where possible)
Printlevel                                  ...      1
Contraction scheme used                     ... SEGMENTED contraction
Prescreening option                         ... SCHWARTZ
   Thresh                                   ... 2.500e-11
   Tcut                                     ... 2.500e-12
   Tpresel                                  ... 2.500e-12 
Coulomb Range Separation                    ... NOT USED
Exchange Range Separation                   ... NOT USED
Multipole approximations                    ... NOT USED
Finite Nucleus Model                        ... NOT USED
CABS basis                                  ... NOT available
Auxiliary Coulomb fitting basis             ... AVAILABLE
   # of basis functions in Aux-J            ...   1697
   # of shells in Aux-J                     ...    553
   Maximum angular momentum in Aux-J        ...      4
Auxiliary J/K fitting basis                 ... NOT available
Auxiliary Correlation fitting basis         ... NOT available
Auxiliary 'external' fitting basis          ... NOT available

Checking pre-screening integrals            ... done (  0.0 sec) Dimension = 411
   => SHARK Basis and OBASIS are compatible. Storing Pre-screening
Shell pair information
Shell pair cut-off parameter TPreSel        ...   2.5e-12
Total number of shell pairs                 ...     84666
Shell pairs after pre-screening             ...     58416
Total number of primitive shell pairs       ...    263908
Primitive shell pairs kept                  ...    116424
          la=0 lb=0:  14510 shell pairs
          la=1 lb=0:  16845 shell pairs
          la=1 lb=1:   4902 shell pairs
          la=2 lb=0:   8500 shell pairs
          la=2 lb=1:   5098 shell pairs
          la=2 lb=2:   1372 shell pairs
          la=3 lb=0:   3603 shell pairs
          la=3 lb=1:   2225 shell pairs
          la=3 lb=2:   1132 shell pairs
          la=3 lb=3:    229 shell pairs

Checking whether 4 symmetric matrices of dimension 1051 fit in memory
:Max Core in MB      =   3000.00
 MB in use           =     73.51
 MB left             =   2926.49
 MB needed           =     16.87
 Data fit in memory  = YES
Calculating RI/J V-Matrix + Cholesky decomp.... done (  1.1 sec)
Calculating Nuclear repulsion               ... done (  0.0 sec) ENN=   3044.529590331003 Eh

Diagonalization of the overlap matrix:
Smallest eigenvalue                        ... 1.010e-05
Time for diagonalization                   ...    0.323 sec
Threshold for overlap eigenvalues          ... 1.000e-07
Number of eigenvalues below threshold      ... 0
Time for construction of square roots      ...    0.283 sec
Total time needed                          ...    0.623 sec

-------------------
DFT GRID GENERATION
-------------------

General Integration Accuracy     IntAcc      ... 4.959
Radial Grid Type                 RadialGrid  ... OptM3 with GC (2021)
Angular Grid (max. ang.)         AngularGrid ... 6 (Lebedev-590)
Angular grid pruning method      GridPruning ... 4 (adaptive)
Weight generation scheme         WeightScheme... mBecke (2022)
Basis function cutoff            BFCut       ... 1.0000e-11
Integration weight cutoff        WCut        ... 1.0000e-14
Partially contracted basis set               ... off
Rotationally invariant grid construction     ... off
Angular grids for H and He will be reduced by one unit

Total number of grid points                  ...   592347
Total number of batches                      ...     9282
Average number of points per batch           ...       63
Average number of grid points per atom       ...    11847
Grids setup in  18.1 sec
Initializing property integral containers    ... done (  0.0 sec)

SHARK setup successfully completed in  22.9 seconds

Maximum memory used throughout the entire STARTUP-calculation: 207.2 MB


           ************************************************************
           *        Program running with 4 parallel MPI-processes     *
           *              working on a common directory               *
           ************************************************************
-------------------------------------------------------------------------------
                                 ORCA GUESS
                   Start orbitals & Density for SCF / CASSCF
-------------------------------------------------------------------------------

------------
SCF SETTINGS
------------
Hamiltonian:
 Density Functional     Method          .... DFT(GTOs)
 Exchange Functional    Exchange        .... TPSS
 Correlation Functional Correlation     .... TPSS
 LDA part of GGA corr.  LDAOpt          .... PW91-LDA
 Gradients option       PostSCFGGA      .... off
   NL short-range parameter             ....  5.000000
 RI-approximation to the Coulomb term is turned on
   Number of AuxJ basis functions       .... 1697


General Settings:
 Integral files         IntName         .... tddft
 Hartree-Fock type      HFTyp           .... RHF
 Total Charge           Charge          ....    0
 Multiplicity           Mult            ....    1
 Number of Electrons    NEL             ....  212
 Basis Dimension        Dim             .... 1051
 Nuclear Repulsion      ENuc            ....   3044.5295903310 Eh

Convergence Acceleration:
 AO-DIIS                CNVDIIS         .... on
   Start iteration      DIISMaxIt       ....    12
   Startup error        DIISStart       ....  0.200000
   # of expansion vecs  DIISMaxEq       ....     5
   Bias factor          DIISBfac        ....   1.050
   Max. coefficient     DIISMaxC        ....  10.000
 MO-DIIS                CNVKDIIS        .... off
 Trust-Rad. Augm. Hess. CNVTRAH         .... auto
   Auto Start mean grad. ratio tolernc. ....  1.125000
   Auto Start start iteration           ....    50
   Auto Start num. interpolation iter.  ....    10
   Max. Number of Micro iterations      ....    24
   Max. Number of Macro iterations      .... Maxiter - #DIIS iter
   Number of Davidson start vectors     ....     2
   Converg. threshold    (grad. norm)   ....   1.000e-05
   Grad. Scal. Fac. for Micro threshold ....   0.100
   Minimum threshold for Micro iter.    ....   1.000e-02
   NR start threshold (gradient norm)   ....   1.000e-04
   Initial trust radius                 ....   0.400
   Minimum AH scaling param. (alpha)    ....   1.000
   Maximum AH scaling param. (alpha)    .... 1000.000
   Quad. conv. algorithm                .... NR
   White noise on init. David. guess    .... on
   Maximum white noise                  ....   0.010
   Pseudo random numbers                .... off
   Inactive MOs                         .... canonical
   Orbital update algorithm             .... Taylor
   Preconditioner                       .... Diag
   Full preconditioner red. dimension   ....   250
 SOSCF                 CNVSOSCF           .... on
   Start iteration     SOSCFMaxIt         ....   150
   Startup grad/error  SOSCFStart         ....  0.003300
   Hessian update      SOSCFHessUp        .... L-BFGS
   Autom. constraints  SOSCFAutoConstrain .... off
 Level Shifting         CNVShift        .... on
   Level shift para.    LevelShift      ....    0.2500
   Turn off err/grad.   ShiftErr        ....    0.0010
 Zerner damping         CNVZerner       .... off
 Static damping         CNVDamp         .... on
   Fraction old density DampFac         ....    0.7000
   Max. Damping (<1)    DampMax         ....    0.9800
   Min. Damping (>=0)   DampMin         ....    0.0000
   Turn off err/grad.   DampErr         ....    0.1000

SCF Procedure:
 Maximum # iterations   MaxIter         ....   125
 SCF integral mode      SCFMode         .... Direct
   Integral package                     .... SHARK and LIBINT hybrid scheme
 Reset frequency        DirectResetFreq ....    20
 Integral Threshold     Thresh          ....  2.500e-11 Eh
 Primitive CutOff       TCut            ....  2.500e-12 Eh

Convergence Tolerance:
 Convergence Check Mode ConvCheckMode   .... Total+1el-Energy
 Convergence forced     ConvForced      .... 1
 Energy Change          TolE            ....  1.000e-08 Eh
 1-El. energy change                    ....  1.000e-05 Eh
 Orbital Gradient       TolG            ....  1.000e-05
 Orbital Rotation angle TolX            ....  1.000e-05
 DIIS Error             TolErr          ....  5.000e-07

------------------------------
INITIAL GUESS: MODEL POTENTIAL
------------------------------
Loading Hartree-Fock densities                     ... done
Calculating cut-offs                               ... done
Initializing the effective Hamiltonian             ... done
Setting up the integral package (SHARK)            ... done
Starting the Coulomb interaction                   ... done (   4.6 sec)
Making the grid                                    ... done (   1.8 sec)
Mapping shells                                     ... done
Starting the XC term evaluation                    ... done (   4.5 sec)
  promolecular density results
     # of electrons  =    212.008080937
     EX              =   -178.973035682
     EC              =     -7.202551506
     EX+EC           =   -186.175587188
Transforming the Hamiltonian                       ... done (   0.3 sec)
Diagonalizing the Hamiltonian                      ... done (   0.4 sec)
Back transforming the eigenvectors                 ... done (   0.2 sec)
Now organizing SCF variables                       ... done
                      ------------------
                      INITIAL GUESS DONE (  11.9 sec)
                      ------------------
             **** ENERGY FILE WAS UPDATED (tddft.en.tmp) ****
Finished Guess after  12.9 sec
Maximum memory used throughout the entire GUESS-calculation: 124.2 MB


           ************************************************************
           *        Program running with 4 parallel MPI-processes     *
           *              working on a common directory               *
           ************************************************************

-------------------------------------------------------------------------------------------
                                      ORCA LEAN-SCF
                              memory conserving SCF solver
-------------------------------------------------------------------------------------------

--------------------
CPCM SOLVATION MODEL
--------------------
CPCM parameters:
  Epsilon                                         ...       8.9990
  Refrac                                          ...       1.4242
  Rsolv                                           ...       1.3000
  Surface type                                    ... GAUSSIAN VDW
  Discretization scheme                           ... Constant charge density
    Threshold for H atoms                         ...       5.0000 (charges/Ang^2)
    Threshold for non-H atoms                     ...       5.0000 (charges/Ang^2)
  Epsilon function type                           ...         CPCM
Solvent:                                          ... DICHLOROMETHANE
Radii:
  Scheme                                          ... Element-dependent radii
  Radius for N  used is    3.5149 Bohr (=   1.8600 Ang.)
  Radius for C  used is    3.8550 Bohr (=   2.0400 Ang.)
  Radius for H  used is    2.4944 Bohr (=   1.3200 Ang.)
  Radius for Mg used is    3.9231 Bohr (=   2.0760 Ang.)
Calculating surface                               ...        done! (  0.0s)
Cavity surface points                             ...         4437
Cavity Volume                                     ...    3080.8964
Cavity Surface-area                               ...    1464.1050
Calculating surface distance matrix               ...        done! (  0.6s)
Performing Cholesky decomposition & store         ...        done! (  1.6s)
Overall time for CPCM initialization              ...                 2.2s

----------------------------------------D-I-I-S--------------------------------------------
Iteration    Energy (Eh)           Delta-E    RMSDP     MaxDP     DIISErr   Damp  Time(sec)
-------------------------------------------------------------------------------------------
               ***  Starting incremental Fock matrix formation  ***
    1    -1417.3191289501546635     0.00e+00  1.77e-03  4.48e-02  2.18e-01  0.700  80.4
Warning: op=0 Small HOMO/LUMO gap (   0.057) - skipping pre-diagonalization
         Will do a full diagonalization
    2    -1417.6166515197346598    -2.98e-01  1.60e-03  3.55e-02  9.08e-02  0.700  77.2
                               ***Turning on AO-DIIS***
    3    -1417.7314204641252218    -1.15e-01  8.49e-04  2.02e-02  2.98e-02  0.700  80.2
    4    -1417.7980181306220402    -6.66e-02  1.55e-03  4.23e-02  1.41e-02  0.000  67.2
    5    -1417.9446485152075184    -1.47e-01  4.30e-04  1.87e-02  5.59e-03  0.000  68.3
                              *** Initializing SOSCF ***
---------------------------------------S-O-S-C-F--------------------------------------
Iteration    Energy (Eh)           Delta-E    RMSDP     MaxDP     MaxGrad    Time(sec)
--------------------------------------------------------------------------------------
    6    -1417.9458718906653303    -1.22e-03  2.17e-04  8.84e-03  1.58e-03    78.4
               *** Restarting incremental Fock matrix formation ***
    7    -1417.9459560975810746    -8.42e-05  1.44e-04  6.28e-03  6.82e-04    85.2
    8    -1417.9459572621199186    -1.16e-06  5.00e-05  1.64e-03  6.51e-04    58.9
    9    -1417.9459789953580184    -2.17e-05  3.33e-05  1.36e-03  1.36e-04    53.0
   10    -1417.9459790265109405    -3.12e-08  4.81e-06  1.85e-04  1.12e-04    53.5
   11    -1417.9459800156027995    -9.89e-07  8.56e-06  3.71e-04  3.47e-05    54.3
   12    -1417.9459800365311821    -2.09e-08  3.20e-06  7.45e-05  2.02e-05    52.4
   13    -1417.9459800560116491    -1.95e-08  7.29e-06  3.74e-04  4.81e-06    58.4
   14    -1417.9459800617487417    -5.74e-09  4.40e-06  1.81e-04  4.46e-06    54.6
                 **** Energy Check signals convergence ****

               *****************************************************
               *                     SUCCESS                       *
               *           SCF CONVERGED AFTER  14 CYCLES          *
               *****************************************************

             **** ENERGY FILE WAS UPDATED (tddft.en.tmp) ****

----------------
TOTAL SCF ENERGY
----------------

Total Energy       :      -1417.94598007837430 Eh          -38584.27170 eV

Components:
Nuclear Repulsion  :       3044.52959033100251 Eh           82845.86196 eV
Electronic Energy  :      -4462.45191702868124 Eh         -121429.49002 eV
One Electron Energy:      -7992.56908398487212 Eh         -217488.86170 eV
Two Electron Energy:       3530.11716695619089 Eh           96059.37168 eV
CPCM Dielectric    :         -0.02365338069583 Eh              -0.64364 eV

Virial components:
Potential Energy   :      -2830.25893258936048 Eh          -77015.26094 eV
Kinetic Energy     :       1412.31295251098618 Eh           38430.98923 eV
Virial Ratio       :          2.00398851228927

DFT components:
N(Alpha)           :      106.000008833150 electrons
N(Beta)            :      106.000008833150 electrons
N(Total)           :      212.000017666300 electrons
E(X)               :     -184.003295447953 Eh       
E(C)               :       -7.219029989274 Eh       
E(XC)              :     -191.222325437227 Eh       

CPCM Solvation Model Properties:
Surface-charge          :         -0.03932952449439
Corrected charge        :          0.00000000000000
Outlying charge corr.   :          0.00006900185592 Eh               0.00188 eV
Free-energy (cav+disp)  :  This term is not implemented in the current solvation scheme

---------------
SCF CONVERGENCE
---------------

  Last Energy change         ...    5.7371e-09  Tolerance :   1.0000e-08
  Last MAX-Density change    ...    1.8062e-04  Tolerance :   1.0000e-07
  Last RMS-Density change    ...    4.3953e-06  Tolerance :   5.0000e-09
  Last DIIS Error            ...    1.5788e-03  Tolerance :   5.0000e-07
  Last Orbital Gradient      ...    4.4620e-06  Tolerance :   1.0000e-05
  Last Orbital Rotation      ...    6.5418e-06  Tolerance :   1.0000e-05


----------------
ORBITAL ENERGIES
----------------

  NO   OCC          E(Eh)            E(eV) 
   0   2.0000     -46.355827     -1261.4062 
   1   2.0000     -14.163992      -385.4218 
   2   2.0000     -14.105708      -383.8358 
   3   2.0000     -14.095122      -383.5478 
   4   2.0000     -14.095099      -383.5471 
   5   2.0000     -14.070394      -382.8749 
   6   2.0000     -14.070218      -382.8701 
   7   2.0000     -10.047884      -273.4168 
   8   2.0000     -10.020312      -272.6665 
   9   2.0000     -10.011504      -272.4269 
  10   2.0000     -10.011457      -272.4256 
  11   2.0000     -10.011200      -272.4186 
  12   2.0000     -10.011178      -272.4180 
  13   2.0000     -10.007871      -272.3280 
  14   2.0000     -10.001687      -272.1597 
  15   2.0000     -10.001675      -272.1594 
  16   2.0000     -10.001374      -272.1512 
  17   2.0000     -10.001357      -272.1508 
  18   2.0000      -9.983282      -271.6589 
  19   2.0000      -9.983264      -271.6584 
  20   2.0000      -9.983153      -271.6554 
  21   2.0000      -9.983117      -271.6544 
  22   2.0000      -9.973885      -271.4032 
  23   2.0000      -9.973848      -271.4022 
  24   2.0000      -9.973724      -271.3988 
  25   2.0000      -9.973669      -271.3973 
  26   2.0000      -9.970556      -271.3126 
  27   2.0000      -9.970462      -271.3101 
  28   2.0000      -9.970056      -271.2990 
  29   2.0000      -9.969974      -271.2968 
  30   2.0000      -2.889381       -78.6241 
  31   2.0000      -1.651856       -44.9493 
  32   2.0000      -1.649461       -44.8841 
  33   2.0000      -1.648414       -44.8556 
  34   2.0000      -0.964544       -26.2466 
  35   2.0000      -0.886277       -24.1168 
  36   2.0000      -0.881241       -23.9798 
  37   2.0000      -0.873719       -23.7751 
  38   2.0000      -0.867833       -23.6149 
  39   2.0000      -0.826264       -22.4838 
  40   2.0000      -0.743770       -20.2390 
  41   2.0000      -0.722046       -19.6479 
  42   2.0000      -0.714213       -19.4347 
  43   2.0000      -0.705835       -19.2067 
  44   2.0000      -0.704715       -19.1763 
  45   2.0000      -0.701982       -19.1019 
  46   2.0000      -0.692061       -18.8319 
  47   2.0000      -0.691515       -18.8171 
  48   2.0000      -0.668560       -18.1924 
  49   2.0000      -0.652906       -17.7665 
  50   2.0000      -0.598521       -16.2866 
  51   2.0000      -0.589865       -16.0510 
  52   2.0000      -0.578563       -15.7435 
  53   2.0000      -0.558458       -15.1964 
  54   2.0000      -0.554951       -15.1010 
  55   2.0000      -0.538694       -14.6586 
  56   2.0000      -0.527734       -14.3604 
  57   2.0000      -0.512661       -13.9502 
  58   2.0000      -0.510716       -13.8973 
  59   2.0000      -0.509458       -13.8630 
  60   2.0000      -0.501004       -13.6330 
  61   2.0000      -0.474196       -12.9035 
  62   2.0000      -0.463903       -12.6234 
  63   2.0000      -0.452923       -12.3247 
  64   2.0000      -0.448493       -12.2041 
  65   2.0000      -0.442258       -12.0345 
  66   2.0000      -0.432636       -11.7726 
  67   2.0000      -0.426445       -11.6042 
  68   2.0000      -0.424602       -11.5540 
  69   2.0000      -0.412420       -11.2225 
  70   2.0000      -0.407528       -11.0894 
  71   2.0000      -0.405553       -11.0357 
  72   2.0000      -0.387841       -10.5537 
  73   2.0000      -0.386732       -10.5235 
  74   2.0000      -0.385456       -10.4888 
  75   2.0000      -0.366896        -9.9837 
  76   2.0000      -0.363871        -9.9014 
  77   2.0000      -0.363117        -9.8809 
  78   2.0000      -0.354937        -9.6583 
  79   2.0000      -0.354494        -9.6463 
  80   2.0000      -0.351205        -9.5568 
  81   2.0000      -0.338782        -9.2187 
  82   2.0000      -0.335596        -9.1320 
  83   2.0000      -0.332023        -9.0348 
  84   2.0000      -0.330089        -8.9822 
  85   2.0000      -0.328530        -8.9398 
  86   2.0000      -0.319988        -8.7073 
  87   2.0000      -0.318401        -8.6641 
  88   2.0000      -0.312840        -8.5128 
  89   2.0000      -0.312255        -8.4969 
  90   2.0000      -0.310677        -8.4539 
  91   2.0000      -0.308248        -8.3879 
  92   2.0000      -0.303486        -8.2583 
  93   2.0000      -0.277037        -7.5386 
  94   2.0000      -0.274765        -7.4767 
  95   2.0000      -0.266906        -7.2629 
  96   2.0000      -0.258590        -7.0366 
  97   2.0000      -0.255791        -6.9604 
  98   2.0000      -0.238071        -6.4782 
  99   2.0000      -0.231866        -6.3094 
 100   2.0000      -0.225484        -6.1357 
 101   2.0000      -0.220679        -6.0050 
 102   2.0000      -0.212200        -5.7742 
 103   2.0000      -0.204884        -5.5752 
 104   2.0000      -0.168207        -4.5771 
 105   2.0000      -0.148723        -4.0470 
 106   0.0000      -0.099391        -2.7046 
 107   0.0000      -0.051164        -1.3923 
 108   0.0000      -0.018574        -0.5054 
 109   0.0000      -0.003803        -0.1035 
 110   0.0000       0.002534         0.0690 
 111   0.0000       0.008739         0.2378 
 112   0.0000       0.009028         0.2457 
 113   0.0000       0.017503         0.4763 
 114   0.0000       0.032564         0.8861 
 115   0.0000       0.036657         0.9975 
 116   0.0000       0.045527         1.2388 
*Only the first 10 virtual orbitals were printed.

                    ********************************
                    * MULLIKEN POPULATION ANALYSIS *
                    ********************************

-----------------------
MULLIKEN ATOMIC CHARGES
-----------------------
   0 N :   -0.299366
   1 N :   -0.300001
   2 N :   -0.391946
   3 N :   -0.407362
   4 C :   -0.117833
   5 C :   -0.121799
   6 C :   -0.122548
   7 C :   -0.117401
   8 C :    0.202539
   9 C :    0.198063
  10 C :    0.200559
  11 C :    0.202644
  12 C :    0.342440
  13 C :    0.341354
  14 C :    0.339634
  15 C :    0.342629
  16 C :   -0.474844
  17 C :   -0.474465
  18 C :   -0.473673
  19 C :   -0.472937
  20 C :   -0.249264
  21 C :   -0.245423
  22 C :   -0.244617
  23 C :   -0.247574
  24 H :    0.096255
  25 H :    0.112261
  26 H :    0.095561
  27 H :    0.112662
  28 H :    0.112614
  29 H :    0.095096
  30 H :    0.111718
  31 H :    0.096060
  32 H :    0.114780
  33 H :    0.114928
  34 H :    0.114078
  35 H :    0.114061
  36 H :    0.115870
  37 H :    0.116067
  38 H :    0.115321
  39 H :    0.115233
  40 Mg:    0.662529
  41 N :   -0.272007
  42 C :    0.014815
  43 N :   -0.163976
  44 C :   -0.093908
  45 C :   -0.129731
  46 H :    0.196750
  47 H :    0.175491
  48 H :    0.164162
  49 H :    0.284501
Sum of atomic charges:   -0.0000000

--------------------------------
MULLIKEN REDUCED ORBITAL CHARGES
--------------------------------
  0 N s       :     3.663878  s :     3.663878
      pz      :     1.240855  p :     3.570742
      px      :     1.305012
      py      :     1.024875
      dz2     :     0.004076  d :     0.060998
      dxz     :     0.005954
      dyz     :     0.015912
      dx2y2   :     0.017332
      dxy     :     0.017724
      f0      :     0.000640  f :     0.003748
      f+1     :     0.000233
      f-1     :     0.000374
      f+2     :     0.000116
      f-2     :     0.000604
      f+3     :     0.000698
      f-3     :     0.001083

  1 N s       :     3.663870  s :     3.663870
      pz      :     1.239616  p :     3.571396
      px      :     1.307273
      py      :     1.024507
      dz2     :     0.004118  d :     0.060986
      dxz     :     0.005982
      dyz     :     0.015942
      dx2y2   :     0.017195
      dxy     :     0.017748
      f0      :     0.000625  f :     0.003749
      f+1     :     0.000243
      f-1     :     0.000373
      f+2     :     0.000126
      f-2     :     0.000603
      f+3     :     0.000692
      f-3     :     0.001086

  2 N s       :     3.678991  s :     3.678991
      pz      :     1.353142  p :     3.651260
      px      :     1.025883
      py      :     1.272236
      dz2     :     0.004253  d :     0.057945
      dxz     :     0.013864
      dyz     :     0.006030
      dx2y2   :     0.016700
      dxy     :     0.017098
      f0      :     0.000649  f :     0.003750
      f+1     :     0.000407
      f-1     :     0.000302
      f+2     :     0.000092
      f-2     :     0.000649
      f+3     :     0.000978
      f-3     :     0.000672

  3 N s       :     3.689388  s :     3.689388
      pz      :     1.353985  p :     3.656017
      px      :     1.027076
      py      :     1.274956
      dz2     :     0.004589  d :     0.058208
      dxz     :     0.013747
      dyz     :     0.006248
      dx2y2   :     0.016630
      dxy     :     0.016995
      f0      :     0.000635  f :     0.003749
      f+1     :     0.000419
      f-1     :     0.000302
      f+2     :     0.000104
      f-2     :     0.000652
      f+3     :     0.000966
      f-3     :     0.000671

  4 C s       :     3.074934  s :     3.074934
      pz      :     1.031602  p :     2.947236
      px      :     0.955973
      py      :     0.959661
      dz2     :     0.006948  d :     0.088829
      dxz     :     0.019226
      dyz     :     0.019063
      dx2y2   :     0.017487
      dxy     :     0.026105
      f0      :     0.000735  f :     0.006834
      f+1     :     0.000928
      f-1     :     0.000719
      f+2     :     0.000908
      f-2     :     0.000707
      f+3     :     0.001668
      f-3     :     0.001168

  5 C s       :     3.077980  s :     3.077980
      pz      :     1.030628  p :     2.948134
      px      :     0.950462
      py      :     0.967045
      dz2     :     0.006230  d :     0.088849
      dxz     :     0.019421
      dyz     :     0.019872
      dx2y2   :     0.017495
      dxy     :     0.025830
      f0      :     0.000638  f :     0.006835
      f+1     :     0.000926
      f-1     :     0.000830
      f+2     :     0.000962
      f-2     :     0.000654
      f+3     :     0.001607
      f-3     :     0.001216

  6 C s       :     3.078306  s :     3.078306
      pz      :     1.032923  p :     2.948677
      px      :     0.948284
      py      :     0.967471
      dz2     :     0.007995  d :     0.088732
      dxz     :     0.018032
      dyz     :     0.018836
      dx2y2   :     0.017481
      dxy     :     0.026388
      f0      :     0.000882  f :     0.006833
      f+1     :     0.000761
      f-1     :     0.000713
      f+2     :     0.000908
      f-2     :     0.000730
      f+3     :     0.001593
      f-3     :     0.001245

  7 C s       :     3.073860  s :     3.073860
      pz      :     1.033648  p :     2.948010
      px      :     0.955053
      py      :     0.959309
      dz2     :     0.008792  d :     0.088698
      dxz     :     0.017014
      dyz     :     0.018917
      dx2y2   :     0.017548
      dxy     :     0.026427
      f0      :     0.000962  f :     0.006832
      f+1     :     0.000742
      f-1     :     0.000644
      f+2     :     0.000915
      f-2     :     0.000739
      f+3     :     0.001625
      f-3     :     0.001206

  8 C s       :     3.132678  s :     3.132678
      pz      :     0.915026  p :     2.485682
      px      :     0.847129
      py      :     0.723527
      dz2     :     0.003661  d :     0.164793
      dxz     :     0.022109
      dyz     :     0.040575
      dx2y2   :     0.054632
      dxy     :     0.043816
      f0      :     0.001870  f :     0.014308
      f+1     :     0.000894
      f-1     :     0.000899
      f+2     :     0.001226
      f-2     :     0.001628
      f+3     :     0.002990
      f-3     :     0.004801

  9 C s       :     3.129940  s :     3.129940
      pz      :     0.917373  p :     2.492656
      px      :     0.855707
      py      :     0.719577
      dz2     :     0.003575  d :     0.165028
      dxz     :     0.022068
      dyz     :     0.040807
      dx2y2   :     0.053737
      dxy     :     0.044842
      f0      :     0.001861  f :     0.014312
      f+1     :     0.000870
      f-1     :     0.000929
      f+2     :     0.001334
      f-2     :     0.001548
      f+3     :     0.002566
      f-3     :     0.005204

 10 C s       :     3.129486  s :     3.129486
      pz      :     0.916916  p :     2.491077
      px      :     0.857326
      py      :     0.716834
      dz2     :     0.004661  d :     0.164604
      dxz     :     0.021364
      dyz     :     0.040759
      dx2y2   :     0.053260
      dxy     :     0.044561
      f0      :     0.001841  f :     0.014274
      f+1     :     0.000910
      f-1     :     0.000932
      f+2     :     0.001311
      f-2     :     0.001535
      f+3     :     0.002554
      f-3     :     0.005192

 11 C s       :     3.133485  s :     3.133485
      pz      :     0.915525  p :     2.485218
      px      :     0.848848
      py      :     0.720845
      dz2     :     0.005375  d :     0.164383
      dxz     :     0.021347
      dyz     :     0.040404
      dx2y2   :     0.053365
      dxy     :     0.043892
      f0      :     0.001799  f :     0.014270
      f+1     :     0.000979
      f-1     :     0.000932
      f+2     :     0.001245
      f-2     :     0.001631
      f+3     :     0.002955
      f-3     :     0.004730

 12 C s       :     3.084726  s :     3.084726
      pz      :     0.928114  p :     2.390333
      px      :     0.696641
      py      :     0.765578
      dz2     :     0.004746  d :     0.167829
      dxz     :     0.038684
      dyz     :     0.029438
      dx2y2   :     0.052423
      dxy     :     0.042537
      f0      :     0.002001  f :     0.014672
      f+1     :     0.001064
      f-1     :     0.000831
      f+2     :     0.000990
      f-2     :     0.002093
      f+3     :     0.004925
      f-3     :     0.002767

 13 C s       :     3.087384  s :     3.087384
      pz      :     0.925028  p :     2.388706
      px      :     0.701297
      py      :     0.762381
      dz2     :     0.004847  d :     0.167891
      dxz     :     0.038325
      dyz     :     0.029596
      dx2y2   :     0.053485
      dxy     :     0.041638
      f0      :     0.001985  f :     0.014665
      f+1     :     0.001067
      f-1     :     0.000852
      f+2     :     0.000843
      f-2     :     0.002248
      f+3     :     0.004393
      f-3     :     0.003277

 14 C s       :     3.088303  s :     3.088303
      pz      :     0.931921  p :     2.390132
      px      :     0.694524
      py      :     0.763687
      dz2     :     0.005524  d :     0.167302
      dxz     :     0.037417
      dyz     :     0.030078
      dx2y2   :     0.053199
      dxy     :     0.041084
      f0      :     0.001953  f :     0.014628
      f+1     :     0.001098
      f-1     :     0.000851
      f+2     :     0.000867
      f-2     :     0.002249
      f+3     :     0.004354
      f-3     :     0.003256

 15 C s       :     3.084761  s :     3.084761
      pz      :     0.928200  p :     2.390929
      px      :     0.695137
      py      :     0.767592
      dz2     :     0.005394  d :     0.167054
      dxz     :     0.037343
      dyz     :     0.029187
      dx2y2   :     0.052389
      dxy     :     0.042741
      f0      :     0.001928  f :     0.014627
      f+1     :     0.001145
      f-1     :     0.000854
      f+2     :     0.001031
      f-2     :     0.002072
      f+3     :     0.004847
      f-3     :     0.002751

 16 C s       :     3.435119  s :     3.435119
      pz      :     1.071717  p :     2.950439
      px      :     0.929554
      py      :     0.949168
      dz2     :     0.002275  d :     0.081505
      dxz     :     0.014419
      dyz     :     0.016303
      dx2y2   :     0.008992
      dxy     :     0.039517
      f0      :     0.001343  f :     0.007779
      f+1     :     0.000724
      f-1     :     0.000702
      f+2     :     0.000902
      f-2     :     0.000510
      f+3     :     0.001814
      f-3     :     0.001784

 17 C s       :     3.437037  s :     3.437037
      pz      :     1.070870  p :     2.948325
      px      :     0.925795
      py      :     0.951660
      dz2     :     0.002315  d :     0.081328
      dxz     :     0.015870
      dyz     :     0.014729
      dx2y2   :     0.008767
      dxy     :     0.039647
      f0      :     0.001338  f :     0.007775
      f+1     :     0.000720
      f-1     :     0.000710
      f+2     :     0.000894
      f-2     :     0.000521
      f+3     :     0.001617
      f-3     :     0.001974

 18 C s       :     3.440340  s :     3.440340
      pz      :     1.069382  p :     2.944024
      px      :     0.924116
      py      :     0.950526
      dz2     :     0.002275  d :     0.081532
      dxz     :     0.015938
      dyz     :     0.015041
      dx2y2   :     0.008862
      dxy     :     0.039416
      f0      :     0.001337  f :     0.007777
      f+1     :     0.000730
      f-1     :     0.000690
      f+2     :     0.000895
      f-2     :     0.000554
      f+3     :     0.001606
      f-3     :     0.001966

 19 C s       :     3.436322  s :     3.436322
      pz      :     1.068396  p :     2.947119
      px      :     0.930809
      py      :     0.947914
      dz2     :     0.002599  d :     0.081715
      dxz     :     0.013937
      dyz     :     0.016696
      dx2y2   :     0.009210
      dxy     :     0.039273
      f0      :     0.001319  f :     0.007782
      f+1     :     0.000756
      f-1     :     0.000682
      f+2     :     0.000905
      f-2     :     0.000549
      f+3     :     0.001806
      f-3     :     0.001764

 20 C s       :     3.312563  s :     3.312563
      pz      :     1.029705  p :     2.839625
      px      :     0.919264
      py      :     0.890656
      dz2     :     0.005090  d :     0.088969
      dxz     :     0.018164
      dyz     :     0.011650
      dx2y2   :     0.017857
      dxy     :     0.036209
      f0      :     0.001345  f :     0.008107
      f+1     :     0.000623
      f-1     :     0.000801
      f+2     :     0.001330
      f-2     :     0.000197
      f+3     :     0.001489
      f-3     :     0.002322

 21 C s       :     3.309524  s :     3.309524
      pz      :     1.029214  p :     2.838889
      px      :     0.921825
      py      :     0.887850
      dz2     :     0.004982  d :     0.088904
      dxz     :     0.019134
      dyz     :     0.010826
      dx2y2   :     0.018578
      dxy     :     0.035384
      f0      :     0.001352  f :     0.008107
      f+1     :     0.000590
      f-1     :     0.000821
      f+2     :     0.001213
      f-2     :     0.000325
      f+3     :     0.001404
      f-3     :     0.002403

 22 C s       :     3.307805  s :     3.307805
      pz      :     1.031704  p :     2.839973
      px      :     0.922371
      py      :     0.885898
      dz2     :     0.005278  d :     0.088728
      dxz     :     0.018883
      dyz     :     0.010867
      dx2y2   :     0.018646
      dxy     :     0.035054
      f0      :     0.001305  f :     0.008111
      f+1     :     0.000662
      f-1     :     0.000811
      f+2     :     0.001193
      f-2     :     0.000356
      f+3     :     0.001412
      f-3     :     0.002372

 23 C s       :     3.309646  s :     3.309646
      pz      :     1.029935  p :     2.840999
      px      :     0.921610
      py      :     0.889454
      dz2     :     0.005356  d :     0.088818
      dxz     :     0.017955
      dyz     :     0.011787
      dx2y2   :     0.017853
      dxy     :     0.035867
      f0      :     0.001302  f :     0.008112
      f+1     :     0.000691
      f-1     :     0.000784
      f+2     :     0.001312
      f-2     :     0.000241
      f+3     :     0.001498
      f-3     :     0.002284

 24 H s       :     0.883359  s :     0.883359
      pz      :     0.009446  p :     0.020385
      px      :     0.006062
      py      :     0.004878

 25 H s       :     0.867586  s :     0.867586
      pz      :     0.007305  p :     0.020153
      px      :     0.006659
      py      :     0.006188

 26 H s       :     0.884068  s :     0.884068
      pz      :     0.009059  p :     0.020371
      px      :     0.006251
      py      :     0.005061

 27 H s       :     0.867175  s :     0.867175
      pz      :     0.007669  p :     0.020163
      px      :     0.006128
      py      :     0.006366

 28 H s       :     0.867223  s :     0.867223
      pz      :     0.006896  p :     0.020163
      px      :     0.006812
      py      :     0.006456

 29 H s       :     0.884539  s :     0.884539
      pz      :     0.009869  p :     0.020365
      px      :     0.005513
      py      :     0.004983

 30 H s       :     0.868128  s :     0.868128
      pz      :     0.006681  p :     0.020153
      px      :     0.007376
      py      :     0.006096

 31 H s       :     0.883554  s :     0.883554
      pz      :     0.010081  p :     0.020386
      px      :     0.005368
      py      :     0.004937

 32 H s       :     0.864765  s :     0.864765
      pz      :     0.005515  p :     0.020455
      px      :     0.007634
      py      :     0.007306

 33 H s       :     0.864613  s :     0.864613
      pz      :     0.005524  p :     0.020460
      px      :     0.007082
      py      :     0.007854

 34 H s       :     0.865468  s :     0.865468
      pz      :     0.005544  p :     0.020454
      px      :     0.007067
      py      :     0.007843

 35 H s       :     0.865490  s :     0.865490
      pz      :     0.005543  p :     0.020449
      px      :     0.007601
      py      :     0.007305

 36 H s       :     0.864109  s :     0.864109
      pz      :     0.005023  p :     0.020022
      px      :     0.006758
      py      :     0.008241

 37 H s       :     0.863914  s :     0.863914
      pz      :     0.005037  p :     0.020020
      px      :     0.006241
      py      :     0.008742

 38 H s       :     0.864643  s :     0.864643
      pz      :     0.005065  p :     0.020036
      px      :     0.006233
      py      :     0.008738

 39 H s       :     0.864730  s :     0.864730
      pz      :     0.005060  p :     0.020037
      px      :     0.006732
      py      :     0.008245

 40 Mgs       :     4.530026  s :     4.530026
      pz      :     2.201454  p :     6.564012
      px      :     2.167515
      py      :     2.195042
      dz2     :     0.037144  d :     0.243433
      dxz     :     0.022403
      dyz     :     0.026125
      dx2y2   :     0.130441
      dxy     :     0.027320

 41 N s       :     3.660266  s :     3.660266
      pz      :     1.275548  p :     3.545462
      px      :     1.251485
      py      :     1.018430
      dz2     :     0.012937  d :     0.062217
      dxz     :     0.007895
      dyz     :     0.016172
      dx2y2   :     0.008192
      dxy     :     0.017022
      f0      :     0.000313  f :     0.004062
      f+1     :     0.000166
      f-1     :     0.000959
      f+2     :     0.000635
      f-2     :     0.000911
      f+3     :     0.000656
      f-3     :     0.000421

 42 C s       :     3.158500  s :     3.158500
      pz      :     0.753188  p :     2.669504
      px      :     0.962247
      py      :     0.954069
      dz2     :     0.042590  d :     0.141638
      dxz     :     0.034161
      dyz     :     0.033763
      dx2y2   :     0.013040
      dxy     :     0.018084
      f0      :     0.002177  f :     0.015544
      f+1     :     0.002127
      f-1     :     0.004494
      f+2     :     0.001692
      f-2     :     0.001652
      f+3     :     0.001753
      f-3     :     0.001648

 43 N s       :     3.439803  s :     3.439803
      pz      :     1.093859  p :     3.648002
      px      :     1.460305
      py      :     1.093838
      dz2     :     0.012257  d :     0.071196
      dxz     :     0.010701
      dyz     :     0.026447
      dx2y2   :     0.007276
      dxy     :     0.014517
      f0      :     0.000845  f :     0.004974
      f+1     :     0.000891
      f-1     :     0.000957
      f+2     :     0.000809
      f-2     :     0.000051
      f+3     :     0.000815
      f-3     :     0.000608

 44 C s       :     3.190105  s :     3.190105
      pz      :     0.986107  p :     2.793159
      px      :     1.055049
      py      :     0.752003
      dz2     :     0.022795  d :     0.099340
      dxz     :     0.012010
      dyz     :     0.028756
      dx2y2   :     0.010655
      dxy     :     0.025124
      f0      :     0.002233  f :     0.011304
      f+1     :     0.001694
      f-1     :     0.001755
      f+2     :     0.001604
      f-2     :     0.000354
      f+3     :     0.002287
      f-3     :     0.001376

 45 C s       :     3.189395  s :     3.189395
      pz      :     0.864528  p :     2.811930
      px      :     1.031790
      py      :     0.915612
      dz2     :     0.034894  d :     0.116536
      dxz     :     0.025060
      dyz     :     0.028225
      dx2y2   :     0.014721
      dxy     :     0.013635
      f0      :     0.001620  f :     0.011870
      f+1     :     0.001113
      f-1     :     0.002714
      f+2     :     0.001900
      f-2     :     0.001873
      f+3     :     0.001201
      f-3     :     0.001450

 46 H s       :     0.783445  s :     0.783445
      pz      :     0.004190  p :     0.019805
      px      :     0.004533
      py      :     0.011082

 47 H s       :     0.804700  s :     0.804700
      pz      :     0.010032  p :     0.019809
      px      :     0.005077
      py      :     0.004700

 48 H s       :     0.815779  s :     0.815779
      pz      :     0.004126  p :     0.020059
      px      :     0.004993
      py      :     0.010941

 49 H s       :     0.681088  s :     0.681088
      pz      :     0.013062  p :     0.034411
      px      :     0.009850
      py      :     0.011499



                     *******************************
                     * LOEWDIN POPULATION ANALYSIS *
                     *******************************

----------------------
LOEWDIN ATOMIC CHARGES
----------------------
   0 N :    0.214958
   1 N :    0.214902
   2 N :    0.177752
   3 N :    0.176273
   4 C :   -0.192235
   5 C :   -0.192059
   6 C :   -0.192228
   7 C :   -0.192343
   8 C :   -0.207505
   9 C :   -0.207496
  10 C :   -0.207766
  11 C :   -0.207667
  12 C :   -0.221503
  13 C :   -0.221618
  14 C :   -0.225966
  15 C :   -0.225295
  16 C :   -0.127822
  17 C :   -0.127801
  18 C :   -0.128498
  19 C :   -0.128385
  20 C :   -0.139412
  21 C :   -0.139523
  22 C :   -0.142176
  23 C :   -0.141935
  24 H :    0.145221
  25 H :    0.141906
  26 H :    0.144910
  27 H :    0.142117
  28 H :    0.141949
  29 H :    0.144696
  30 H :    0.141803
  31 H :    0.145074
  32 H :    0.159248
  33 H :    0.159282
  34 H :    0.159173
  35 H :    0.159157
  36 H :    0.138385
  37 H :    0.138392
  38 H :    0.138039
  39 H :    0.138027
  40 Mg:    0.083204
  41 N :    0.159857
  42 C :   -0.243265
  43 N :    0.219611
  44 C :   -0.209989
  45 C :   -0.221273
  46 H :    0.155902
  47 H :    0.143376
  48 H :    0.149625
  49 H :    0.210923

-------------------------------
LOEWDIN REDUCED ORBITAL CHARGES
-------------------------------
  0 N s       :     2.982458  s :     2.982458
      pz      :     1.101433  p :     3.568031
      px      :     1.346635
      py      :     1.119963
      dz2     :     0.016488  d :     0.215444
      dxz     :     0.010214
      dyz     :     0.049660
      dx2y2   :     0.064483
      dxy     :     0.074599
      f0      :     0.001172  f :     0.019109
      f+1     :     0.000777
      f-1     :     0.001824
      f+2     :     0.000350
      f-2     :     0.003633
      f+3     :     0.004022
      f-3     :     0.007330

  1 N s       :     2.982332  s :     2.982332
      pz      :     1.104183  p :     3.568175
      px      :     1.343843
      py      :     1.120149
      dz2     :     0.016457  d :     0.215480
      dxz     :     0.010468
      dyz     :     0.049910
      dx2y2   :     0.064103
      dxy     :     0.074542
      f0      :     0.001166  f :     0.019110
      f+1     :     0.000766
      f-1     :     0.001843
      f+2     :     0.000378
      f-2     :     0.003670
      f+3     :     0.003986
      f-3     :     0.007301

  2 N s       :     2.979430  s :     2.979430
      pz      :     1.194596  p :     3.621034
      px      :     1.103507
      py      :     1.322931
      dz2     :     0.016275  d :     0.202967
      dxz     :     0.043899
      dyz     :     0.012131
      dx2y2   :     0.061234
      dxy     :     0.069428
      f0      :     0.001178  f :     0.018817
      f+1     :     0.001747
      f-1     :     0.000852
      f+2     :     0.000235
      f-2     :     0.003821
      f+3     :     0.006849
      f-3     :     0.004136

  3 N s       :     2.979515  s :     2.979515
      pz      :     1.194453  p :     3.622093
      px      :     1.103949
      py      :     1.323690
      dz2     :     0.016704  d :     0.203322
      dxz     :     0.044097
      dyz     :     0.012602
[...]
  0-1A  -> 26-1A    4.819194   38869.4   257.3   0.000412331   0.00349   0.00054  -0.02876   0.05162
  0-1A  -> 27-1A    4.832819   38979.3   256.5   0.000640032   0.00541   0.07165  -0.00383   0.01604
  0-1A  -> 28-1A    4.850956   39125.6   255.6   0.015463686   0.13012   0.35906  -0.01241  -0.03226
  0-1A  -> 29-1A    4.881356   39370.8   254.0   0.195126689   1.63162  -0.05739  -1.27599  -0.01307
  0-1A  -> 30-1A    4.922266   39700.8   251.9   0.013759545   0.11410  -0.02962  -0.33648  -0.00169

----------------------------------------------------------------------------------------------------
                     ABSORPTION SPECTRUM VIA TRANSITION VELOCITY DIPOLE MOMENTS    
----------------------------------------------------------------------------------------------------
     Transition      Energy     Energy  Wavelength fosc(P2)      P2        PX        PY        PZ   
                      (eV)      (cm-1)    (nm)                 (au**2)    (au)      (au)      (au)  
----------------------------------------------------------------------------------------------------
  0-1A  ->  1-1A    1.937062   15623.5   640.1   0.330925937   0.03534  -0.00667  -0.18785  -0.00180
  0-1A  ->  2-1A    2.302966   18574.7   538.4   0.089161730   0.01132   0.10606  -0.00331  -0.00775
  0-1A  ->  3-1A    3.001794   24211.1   413.0   0.000038569   0.00001  -0.00168   0.00005   0.00189
  0-1A  ->  4-1A    3.164713   25525.1   391.8   0.050775842   0.00886   0.09383  -0.00304  -0.00675
  0-1A  ->  5-1A    3.303691   26646.1   375.3   0.000983041   0.00018   0.00805   0.00528   0.00929
  0-1A  ->  6-1A    3.426786   27638.9   361.8   0.992224069   0.18743  -0.43145   0.01526   0.03242
  0-1A  ->  7-1A    3.540747   28558.1   350.2   0.003644603   0.00071  -0.01197   0.02353  -0.00380
  0-1A  ->  8-1A    3.638548   29346.9   340.8   0.030338598   0.00609   0.03196  -0.07106  -0.00372
  0-1A  ->  9-1A    3.643905   29390.1   340.3   0.001345827   0.00027  -0.01521   0.00536  -0.00319
  0-1A  -> 10-1A    3.692707   29783.7   335.8   0.770361487   0.15681  -0.02251  -0.39533  -0.00446
  0-1A  -> 11-1A    3.983305   32127.5   311.3   0.000669923   0.00015   0.00110   0.01179   0.00262
  0-1A  -> 12-1A    4.074409   32862.3   304.3   0.007947684   0.00179   0.04163  -0.00715   0.00094
  0-1A  -> 13-1A    4.240652   34203.2   292.4   0.000034218   0.00001  -0.00223  -0.00007   0.00173
  0-1A  -> 14-1A    4.293660   34630.7   288.8   0.002322182   0.00055  -0.00129  -0.00000  -0.02341
  0-1A  -> 15-1A    4.307577   34743.0   287.8   0.009208226   0.00219  -0.00329  -0.04663  -0.00110
  0-1A  -> 16-1A    4.311375   34773.6   287.6   0.000157368   0.00004   0.00081  -0.00353  -0.00493
  0-1A  -> 17-1A    4.334188   34957.6   286.1   0.000157838   0.00004   0.00311   0.00090  -0.00522
  0-1A  -> 18-1A    4.346320   35055.4   285.3   0.000126596   0.00003  -0.00546   0.00031   0.00063
  0-1A  -> 19-1A    4.380728   35333.0   283.0   0.000338899   0.00008  -0.00090   0.00005  -0.00900
  0-1A  -> 20-1A    4.508889   36366.6   275.0   0.054228530   0.01348   0.00653   0.11591   0.00112
  0-1A  -> 21-1A    4.613517   37210.5   268.7   0.000086356   0.00002   0.00009  -0.00467   0.00039
  0-1A  -> 22-1A    4.642694   37445.9   267.1   0.000617545   0.00016   0.00132  -0.00153   0.01241
  0-1A  -> 23-1A    4.650584   37509.5   266.6   0.083143508   0.02131  -0.00666  -0.14583  -0.00183
  0-1A  -> 24-1A    4.781339   38564.1   259.3   0.000010473   0.00000   0.00027  -0.00026   0.00162
  0-1A  -> 25-1A    4.782611   38574.4   259.2   0.004359220   0.00115  -0.00180   0.00463  -0.03353
  0-1A  -> 26-1A    4.819194   38869.4   257.3   0.000571631   0.00015  -0.00023   0.00527  -0.01114
  0-1A  -> 27-1A    4.832819   38979.3   256.5   0.000646862   0.00017  -0.01274   0.00068  -0.00309
  0-1A  -> 28-1A    4.850956   39125.6   255.6   0.015040757   0.00402  -0.06312   0.00220   0.00571
  0-1A  -> 29-1A    4.881356   39370.8   254.0   0.185897334   0.05002   0.01044   0.22340   0.00228
  0-1A  -> 30-1A    4.922266   39700.8   251.9   0.012928818   0.00351   0.00443   0.05906   0.00037

------------------------------------------------------------------------------------------
                     CD SPECTRUM VIA TRANSITION ELECTRIC DIPOLE MOMENTS    
------------------------------------------------------------------------------------------
     Transition      Energy     Energy  Wavelength    R        MX        MY        MZ   
                      (eV)      (cm-1)    (nm)   (1e40*cgs)   (au)      (au)      (au)  
------------------------------------------------------------------------------------------
  0-1A  ->  1-1A    1.937062   15623.5   640.1  -11.00185  -0.13102   0.01323   0.01027
  0-1A  ->  2-1A    2.302966   18574.7   538.4   -5.04381  -0.00826  -0.07768   0.03401
  0-1A  ->  3-1A    3.001794   24211.1   413.0   -1.58182  -0.01501   0.00696  -0.20683
  0-1A  ->  4-1A    3.164713   25525.1   391.8    0.25170  -0.00198  -0.04495  -0.01588
  0-1A  ->  5-1A    3.303691   26646.1   375.3   -0.28035  -0.00360  -0.01029   0.00131
  0-1A  ->  6-1A    3.426786   27638.9   361.8  -68.76411   0.05272   0.30185   0.00718
  0-1A  ->  7-1A    3.540747   28558.1   350.2    1.73739  -0.03208   0.00635   0.01654
  0-1A  ->  8-1A    3.638548   29346.9   340.8  -54.34092  -0.05785   0.18885  -0.03063
  0-1A  ->  9-1A    3.643905   29390.1   340.3   10.07274  -0.04493   0.00433  -0.67627
  0-1A  -> 10-1A    3.692707   29783.7   335.8   73.19679  -0.32045  -0.03448   0.02378
  0-1A  -> 11-1A    3.983305   32127.5   311.3    0.13828   0.01498   0.00041   0.00770
  0-1A  -> 12-1A    4.074409   32862.3   304.3   -0.57169   0.00146   0.03364   0.00120
  0-1A  -> 13-1A    4.240652   34203.2   292.4    1.58572   0.02169   0.00183   0.27659
  0-1A  -> 14-1A    4.293660   34630.7   288.8    7.46109  -0.00662  -0.00009  -0.10153
  0-1A  -> 15-1A    4.307577   34743.0   287.8    0.82093  -0.10223   0.00117   0.02864
  0-1A  -> 16-1A    4.311375   34773.6   287.6    9.07897  -0.05000   0.00473  -0.58614
  0-1A  -> 17-1A    4.334188   34957.6   286.1   13.70495  -0.06458   0.00563  -0.90731
  0-1A  -> 18-1A    4.346320   35055.4   285.3   -0.19335  -0.01461   0.00946  -0.20830
  0-1A  -> 19-1A    4.380728   35333.0   283.0   -0.07872   0.00050   0.00018   0.00288
  0-1A  -> 20-1A    4.508889   36366.6   275.0    0.73509   0.07039  -0.00178  -0.00378
  0-1A  -> 21-1A    4.613517   37210.5   268.7   -0.03578   0.00473   0.00108  -0.02893
  0-1A  -> 22-1A    4.642694   37445.9   267.1   -4.18379  -0.01159  -0.00925  -0.13203
  0-1A  -> 23-1A    4.650584   37509.5   266.6   -1.26548  -0.07074   0.00618   0.00612
  0-1A  -> 24-1A    4.781339   38564.1   259.3   -0.47393  -0.00256  -0.00299  -0.03763
  0-1A  -> 25-1A    4.782611   38574.4   259.2    3.86455  -0.00765  -0.00393  -0.04590
  0-1A  -> 26-1A    4.819194   38869.4   257.3    0.63603  -0.00373  -0.00886  -0.03103
  0-1A  -> 27-1A    4.832819   38979.3   256.5   -0.16165   0.01318   0.10658  -0.01202
  0-1A  -> 28-1A    4.850956   39125.6   255.6    0.07156   0.00290   0.09308   0.00119
  0-1A  -> 29-1A    4.881356   39370.8   254.0    6.14900   0.13538   0.00424  -0.01056
  0-1A  -> 30-1A    4.922266   39700.8   251.9   -0.03960  -0.00245  -0.00003  -0.00136

------------------------------------------------------------------------------------------
                     CD SPECTRUM VIA TRANSITION VELOCITY DIPOLE MOMENTS    
------------------------------------------------------------------------------------------
     Transition      Energy     Energy  Wavelength    R        MX        MY        MZ   
                      (eV)      (cm-1)    (nm)   (1e40*cgs)   (au)      (au)      (au)  
------------------------------------------------------------------------------------------
  0-1A  ->  1-1A    1.937062   15623.5   640.1  -10.78609  -0.13102   0.01323   0.01027
  0-1A  ->  2-1A    2.302966   18574.7   538.4   -4.91587  -0.00826  -0.07768   0.03401
  0-1A  ->  3-1A    3.001794   24211.1   413.0   -1.56134  -0.01501   0.00696  -0.20683
  0-1A  ->  4-1A    3.164713   25525.1   391.8    0.23345  -0.00198  -0.04495  -0.01588
  0-1A  ->  5-1A    3.303691   26646.1   375.3   -0.27622  -0.00360  -0.01029   0.00131
  0-1A  ->  6-1A    3.426786   27638.9   361.8  -67.04492   0.05272   0.30185   0.00718
  0-1A  ->  7-1A    3.540747   28558.1   350.2    1.70483  -0.03208   0.00635   0.01654
  0-1A  ->  8-1A    3.638548   29346.9   340.8  -53.43205  -0.05785   0.18885  -0.03063
  0-1A  ->  9-1A    3.643905   29390.1   340.3   10.07177  -0.04493   0.00433  -0.67627
  0-1A  -> 10-1A    3.692707   29783.7   335.8   72.05481  -0.32045  -0.03448   0.02378
  0-1A  -> 11-1A    3.983305   32127.5   311.3    0.13361   0.01498   0.00041   0.00770
  0-1A  -> 12-1A    4.074409   32862.3   304.3   -0.56278   0.00146   0.03364   0.00120
  0-1A  -> 13-1A    4.240652   34203.2   292.4    1.30211   0.02169   0.00183   0.27659
  0-1A  -> 14-1A    4.293660   34630.7   288.8    7.12674  -0.00662  -0.00009  -0.10153
  0-1A  -> 15-1A    4.307577   34743.0   287.8    0.74576  -0.10223   0.00117   0.02864
  0-1A  -> 16-1A    4.311375   34773.6   287.6    8.42940  -0.05000   0.00473  -0.58614
  0-1A  -> 17-1A    4.334188   34957.6   286.1   13.42661  -0.06458   0.00563  -0.90731
  0-1A  -> 18-1A    4.346320   35055.4   285.3   -0.14043  -0.01461   0.00946  -0.20830
  0-1A  -> 19-1A    4.380728   35333.0   283.0   -0.07721   0.00050   0.00018   0.00288
  0-1A  -> 20-1A    4.508889   36366.6   275.0    0.70737   0.07039  -0.00178  -0.00378
  0-1A  -> 21-1A    4.613517   37210.5   268.7   -0.04413   0.00473   0.00108  -0.02893
  0-1A  -> 22-1A    4.642694   37445.9   267.1   -4.52980  -0.01159  -0.00925  -0.13203
  0-1A  -> 23-1A    4.650584   37509.5   266.6   -1.21552  -0.07074   0.00618   0.00612
  0-1A  -> 24-1A    4.781339   38564.1   259.3   -0.16320  -0.00256  -0.00299  -0.03763
  0-1A  -> 25-1A    4.782611   38574.4   259.2    4.11719  -0.00765  -0.00393  -0.04590
  0-1A  -> 26-1A    4.819194   38869.4   257.3    0.79831  -0.00373  -0.00886  -0.03103
  0-1A  -> 27-1A    4.832819   38979.3   256.5   -0.15598   0.01318   0.10658  -0.01202
  0-1A  -> 28-1A    4.850956   39125.6   255.6    0.07557   0.00290   0.09308   0.00119
  0-1A  -> 29-1A    4.881356   39370.8   254.0    6.14197   0.13538   0.00424  -0.01056
  0-1A  -> 30-1A    4.922266   39700.8   251.9   -0.03375  -0.00245  -0.00003  -0.00136

Total run time:     6260.886 sec

           *** ORCA-CIS/TD-DFT FINISHED WITHOUT ERROR ***
-----------------------
CIS/TD-DFT TOTAL ENERGY
-----------------------

    E(SCF)  =  -1417.945980078 Eh
    DE(CIS) =      0.071185724 Eh (Root  1)
    ----------------------------- ---------
    E(tot)  =  -1417.874794355 Eh


Maximum memory used throughout the entire CIS-calculation: 2456.7 MB
=> NOW LEAVING ORCA_CIS

-------------------------   --------------------
FINAL SINGLE POINT ENERGY     -1417.874794354661
-------------------------   --------------------



           ************************************************************
           *        Program running with 4 parallel MPI-processes     *
           *              working on a common directory               *
           ************************************************************

------------------------------------------------------------------------------
                              ORCA PROPERTY CALCULATIONS
------------------------------------------------------------------------------

GBWName                                 ... tddft.gbw
Number of atoms                         ...     50
Number of basis functions               ...   1051
Max core memory                         ...   3000 MB

Electric properties:
Dipole moment                           ... YES
Quadrupole moment                       ...  NO
Static polarizability (Dipole/Dipole)   ...  NO
Static polarizability (Dipole/Quad.)    ...  NO
Static polarizability (Quad./Quad.)     ...  NO
Static polarizability (Velocity)        ...  NO
Static hyperpolarizability              ...  NO

Atomic electric properties:
Dipole moment                           ...  NO
Quadrupole moment                       ...  NO
Static polarizability                   ...  NO

Choice of electric origin               ... Center of mass
Position of electric origin             ...     0.315878    -0.021995     1.190813

General magnetic properties:
Magnetizability                         ...  NO

EPR properties:
g-Tensor (aka g-matrix)                 ...  NO
Zero-Field splitting spin-orbit         ...  NO
Zero-field splitting spin-spin          ...  NO
Hyperfine couplings                     ...  NO (   0 nuclei)
Quadrupole couplings                    ...  NO (   0 nuclei)
Contact density                         ...  NO (   0 nuclei)

NMR properties:
Chemical shifts                         ...  NO (   0 nuclei)
Spin-rotation constants                 ...  NO (   0 nuclei)
Spin-spin couplings                     ...  NO (   0 nuclei,    0 pairs)

Choice of magnetic origin               ... GIAO
Position of magnetic origin             ...     0.000000     0.000000     0.000000

Properties with geometric perturbations:
SCF Hessian                             ...  NO
IR spectrum                             ...  NO
VCD spectrum                            ...  NO
X-ray spectroscopy properties:
SCF XES/XAS/RIXS spectra                ...  NO

SCF SOC stabilization energy            ...  NO
Diagonal Born-Oppenheimer correction    ...  NO

-------------
DIPOLE MOMENT
-------------

Method             : SCF
Type of density    : Electron Density
Multiplicity       :   1
Irrep              :   0
Energy             : -1417.9459800783743049 Eh
Basis              : AO
                                X                 Y                 Z
Electronic contribution:     -0.018496150       0.492497561      -0.344223809
Nuclear contribution   :      0.266463839       0.192944965       3.370953584
                        -----------------------------------------
Total Dipole Moment    :      0.247967689       0.685442526       3.026729775
                        -----------------------------------------
Magnitude (a.u.)       :      3.113263973
Magnitude (Debye)      :      7.913288140



--------------------
Rotational spectrum 
--------------------
 
Rotational constants in cm-1:             0.006154             0.005924             0.004220 
Rotational constants in MHz :           184.500658           177.608735           126.525647 

Dipole components along the rotational axes: 
x,y,z [a.u.] :     0.003125     0.805123     3.007354 
x,y,z [Debye]:     0.007942     2.046460     7.644087 

 

Dipole moment calculation done in   0.1 sec 

Maximum memory used throughout the entire PROP-calculation: 128.1 MB

--------------------------------
SUGGESTED CITATIONS FOR THIS RUN
--------------------------------

Below you find a list of papers that are relevant to this ORCA run
We neither can nor want to force you to cite these papers, but we appreciate if you do
You receive ORCA, which is the product of decades of hard work by many enthusiastic individuals, for free
The only thing we kindly ask in return is that you cite our papers,
We deeply appreciate it, if you show your appreciation for ORCA by not just citing the generic ORCA reference.

Please note that relegating all ORCA citations to the supporting information does *not* help us.
SI sections are not indexed - citations you put there will not count into any citation statistics
But we need these citations in order to attract the funding resources that allow us to do what we are doing

Therefore, if you are a happy ORCA user, please consider citing a few of the papers listed below in the main body of your paper

In addition to the list printed below, the program has created the file tddft.bibtex that contains the list in bibtex format
You can import this file easily into all common literature databanks and citation aid programs

It goes without saying that in many instances, there are alternative algorithms to achieve similar
results as the ones you have gotten from ORCA. It is, of course, also the case that in some instances
ORCA just re-implements algorithms worked out by others. We are fully aware of that and we are also
fully appreciative of our colleagues work. Hence this citation list should not be read as indicating
that the listed papers, which are focused on our own work, are the only ones worth citing. It simply
meant to make it easier for users to cite ORCA specific papers. It is not a substitute for doing your
own literature research and citing the relevant literature in a scientifically appropriate manner.

List of essential papers. We consider these as the minimum necessary citations

  1. Neese, F.
     Software update: the ORCA program system, version 6.0
     WIRES Comput. Molec. Sci. 2025 15(1), e70019
     doi.org/10.1002/wcms.70019

List of papers to cite with high priority. The work reported in these papers was absolutely
necessary for this run to complete.
Our perspective: the developers of density functionals and basis sets usually get cited in chemistry papers
Good! But without the algorithms to do something with them, the functionals or basis sets would not do anything.
Hence, in our opinion, the algorithm design and method developments papers are equally worthy of getting cited

  1. Neese, F.; Olbrich, G.
     Efficient use of the resolution of the identity approximation in time-dependent density functional calculations with hybrid density functionals
     Chem. Phys. Lett. 2002 362 , 170-178
     doi.org/10.1016/s0009-2614(02)01053-9
  2. Neese, F.
     An improvement of the resolution of the identity approximation for the formation of the Coulomb matrix
     J. Comp. Chem. 2003 24(14), 1740-1747
     doi.org/10.1002/jcc.10318
  3. Garcia-Rates, M.; Neese, F.
     Effect of the Solute Cavity on the Solvation Energy and its Derivatives within the Framework of the Gaussian Charge Scheme
     J. Comput. Chem. 2020 41 , 922-939
     doi.org/10.1002/jcc.26139
  4. Neese, F.
     The SHARK Integral Generation and Digestion System
     J. Comp. Chem. 2022 44(3), 381
     doi.org/10.1002/jcc.26942

List of suggested additional citations. These are papers that are important in the 'surrounding' of 
of this run, or papers that preceded the highly important papers. If you like your results we are grateful for a citation.

  1. Neese, F.
     The ORCA program system
     WIRES Comput. Molec. Sci. 2012 2(1), 73-78
     doi.org/10.1002/wcms.81
  2. Neese, F.
     Software update: the ORCA program system, version 4.0
     WIRES Comput. Molec. Sci. 2018 8(1), 1-6
     doi.org/10.1002/wcms.1327
  3. Neese, F.; Wennmohs, F.; Becker, U.; Riplinger, C.
     The ORCA quantum chemistry program package
     J. Chem. Phys. 2020 152(22), 224108
     doi.org/10.1063/5.0004608
  4. Neese, F.
     Software update: The ORCA program system—Version 5.0
     WIRES Comput. Molec. Sci. 2022 12(1), e1606
     doi.org/10.1002/wcms.1606

List of optional additional citations

  1. Neese, F.
     Approximate second-order SCF convergence for spin unrestricted wavefunctions
     Chem. Phys. Lett. 2000 325(1-3), 93-98
     doi.org/10.1016/s0009-2614(00)00662-x

Timings for individual modules:

Sum of individual times          ...     7283.336 sec (= 121.389 min)
Startup calculation              ...       23.498 sec (=   0.392 min)   0.3 %
SCF iterations                   ...      992.073 sec (=  16.535 min)  13.6 %
Property integrals               ...        5.600 sec (=   0.093 min)   0.1 %
Property calculations            ...        0.735 sec (=   0.012 min)   0.0 %
CIS module                       ...     6261.431 sec (= 104.357 min)  86.0 %
                             ****ORCA TERMINATED NORMALLY****
TOTAL RUN TIME: 0 days 2 hours 1 minutes 23 seconds 792 msec
