
                                 *****************
                                 * O   R   C   A *
                                 *****************

                                            #,                                       
                                            ###                                      
                                            ####                                     
                                            #####                                    
                                            ######                                   
                                           ########,                                 
                                     ,,################,,,,,                         
                               ,,#################################,,                 
                          ,,##########################################,,             
                       ,#########################################, ''#####,          
                    ,#############################################,,   '####,        
                  ,##################################################,,,,####,       
                ,###########''''           ''''###############################       
              ,#####''   ,,,,##########,,,,          '''####'''          '####       
            ,##' ,,,,###########################,,,                        '##       
           ' ,,###''''                  '''############,,,                           
         ,,##''                                '''############,,,,        ,,,,,,###''
      ,#''                                            '''#######################'''  
     '                                                          ''''####''''         
             ,#######,   #######,   ,#######,      ##                                
            ,#'     '#,  ##    ##  ,#'     '#,    #''#        ,####,    ,#,          
            ##       ##  ##   ,#'  ##            #'  '#       #'       ,# #          
            ##       ##  #######   ##           ,######,      #####,      #          
            '#,     ,#'  ##    ##  '#,     ,#' ,#      #,     #,   #      #          
             '#######'   ##     ##  '#######'  #'      '#     '####' #    #          



                #########################################################
                #                        -***-                          #
                #          Department of theory and spectroscopy        #
                #                                                       #
                #                      Frank Neese                      #
                #                                                       #
                #     Directorship, Architecture, Infrastructure        #
                #                    SHARK, DRIVERS                     #
                #        Core code/Algorithms in most modules           #
                #                                                       #
                #        Max Planck Institute fuer Kohlenforschung      #
                #                Kaiser Wilhelm Platz 1                 #
                #                 D-45470 Muelheim/Ruhr                 #
                #                      Germany                          #
                #                                                       #
                #                  All rights reserved                  #
                #                        -***-                          #
                #########################################################


                         Program Version 6.1.1  -  RELEASE   -
                                (GIT: $487d211c$)
                          ($2025-11-21 10:33:24 +0100$)


 With contributions from (in alphabetic order):
[Max-Planck-Institut fuer Kohlenforschung]                               
  Daniel Aravena         : Magnetic Suceptibility                        
  Michael Atanasov       : Ab Initio Ligand Field Theory (pilot matlab implementation)
  Alexander A. Auer      : GIAO ZORA, VPT2 properties, NMR spectrum      
  Ute Becker             : All parallelization in ORCA, NUMFREQ, NUMCALC 
  Giovanni Bistoni       : ED, misc. LED, open-shell LED, HFLD           
  Dmytro Bykov           : pre 5.0 version of the SCF Hessian            
  Marcos Casanova-Páez   : Triplet and SCS-CIS(D). UHF-(DLPNO)-IP/EA/STEOM-CCSD. UHF-CVS-IP/STEOM-CCSD   
  Vijay G. Chilkuri      : MRCI spin determinant printing, contributions to CSF-ICE 
  Pauline Colinet        : FMM embedding                                 
  Dipayan Datta          : RHF DLPNO-CCSD density                        
  Achintya Kumar Dutta   : EOM-CC, STEOM-CC                              
  Nicolas Foglia         : Exact transition moments, OPA infrastructure, MCD improvements    
  Dmitry Ganyushin       : Spin-Orbit,Spin-Spin,Magnetic field MRCI      
  Miquel Garcia-Rates    : C-PCM and meta-GGA Hessian, CCSD/C-PCM, Gaussian charge scheme 
  Tiago L. C. Gouveia    : GS-ROHF, GS-ROCIS                             
  Yang Guo               : DLPNO-NEVPT2, F12-NEVPT2, CIM, IAO-localization        
  Andreas Hansen         : Spin unrestricted coupled pair/coupled cluster methods 
  Ingolf Harden          : AUTO-CI MPn and infrastructure                
  Benjamin Helmich-Paris : MC-RPA, TRAH-(SCF,CASSCF), AVAS, COSX integrals, SCF dyn. polar., MC-PDFT, srDFT 
  Lee Huntington         : MR-EOM, pCC                                   
  Robert Izsak           : Overlap fitted RIJCOSX, COSX-SCS-MP3, EOM     
  Riya Kayal             : Wick's Theorem for AUTO-CI, AUTO-CI UHF-CCSDT 
  Emily Kempfer          : AUTO-CI RHF CISDT and CCSDT, approximate NEVPT4
  Christian Kollmar      : KDIIS, OOCD, Brueckner-CCSD(T), CCSD density, CASPT2, CASPT2-K, improved NEVPT2 
  Axel Koslowski         : Symmetry handling                             
  Simone Kossmann        : meta-GGA functionals, TD-DFT gradient, OOMP2, (MP2 Hessian; deprecated post 5.0) 
  Lucas Lang             : DCDCAS, Hyperfine gauge corrections, ICE-SOC+SSC
  Marvin Lechner         : AUTO-CI (C++ implementation), FIC-MRCC        
  Spencer Leger          : CASSCF response                               
  Dagmar Lenk            : GEPOL surface, SMD, ORCA-2-JSON               
  Dimitrios Liakos       : Extrapolation schemes; Compound Job, Property file
  Dimitrios Manganas     : Further ROCIS development; embedding schemes. LFT, Crystal Embedding 
  Dimitrios Pantazis     : SARC Basis sets                               
  Anastasios Papadopoulos: AUTO-CI, single reference methods and gradients 
  Taras Petrenko         : pre 6.0 DFT Hessian and TD-DFT gradient,  ECA, NRVS 
  Petra Pikulova         : Analytic Raman intensities                    
  Peter Pinski           : DLPNO-MP2, DLPNO-MP2 Gradient                 
  Shashank Vittal Rao    : ES-AILFT, MagRelax                            
  Christoph Reimann      : Effective Core Potentials                     
  Marius Retegan         : Local ZFS, SOC                                
  Christoph Riplinger    : Optimizer, TS searches, QM/MM, DLPNO-CCSD(T), (RO)-DLPNO pert. Triples 
  Michael Roemelt        : Original ROCIS implementation, recursive CI coupling coefficients
  Masaaki Saitow         : Open-shell DLPNO-CCSD energy and density      
  Barbara Sandhoefer     : DKH picture change effects                    
  Yorick L. A. Schmerwitz: GMF and freeze-and-release deltaSCF, NEB S-IDPP initial path                    
  Kantharuban Sivalingam : CASSCF convergence/infrastructure, NEVPT2, NEVPT3, NEVPT4(SD), FIC-MRCI and CEPA variants
  Bernardo de Souza      : ESD, SOC TD-DFT                               
  Georgi L. Stoychev     : AutoAux, RI-MP2 NMR, DLPNO-MP2 response, X2C  
  Van Anh Tran           : RI-MP2 g-tensors                              
  Willem Van den Heuvel  : Paramagnetic NMR                              
  Zikuan Wang            : NOTCH, Electric field optimization            
  Frank Wennmohs         : Technical directorship and infrastructure     
  Hang Xu                : AUTO-CI-Response properties                   
                                                                         
[FACCTs GmbH]                                                            
  Markus Bursch, Nicolas Foglia, Miquel Garcia-Rates, Ingolf Harden, Hagen Neugebauer, Anastasios Papadopoulos, 
  Christoph Riplinger, Bernardo de Souza, Georgi L. Stoychev                                                    
                                                                 
  APM, various basis sets, CI-OPT, improved COSX, DLPNO-Multilevel,           
  DOCKER, DRACO, updates on ESD, Fragmentator, GOAT, IRC, LR-CPCM, L-BFGS, MBIS, meta-GGA TD-DFT gradient, ML-optimized integration grids, 
  MM, NACMEs, nearIR, NEB, NEB-TS, NL-DFT gradient (VV10), 2- and 3-layer-ONIOM, interface openCOSMO-RS, QMMM,   
  Crystal-QMMM, RESP, rigid body optimization, SF, symmetry and pop. for TD-DFT, various functionals, SOLVATOR                                   
                                                                         
[Other institutions]                                                     
  V. Asgeirsson          : NEB                                           
  Christoph Bannwarth    : sTDA-DFT, sTD-DFT, PBEh-3c, B97-3c, D3        
  Giovanni Bistoni       : ETS/NOCV, ADLD/ADEX, COVALED                  
  Martin Brehm           : Molecular dynamics                            
  Ronald Cardenas        : ETS/NOCV                                      
  Martina Colucci        : COVALED                                       
  Sebastian Ehlert       : rSCAN, r2SCAN, r2SCAN-3c, D4, dhf basis sets  
  Marvin Friede          : D4 for Fr, Ra, Ac-Lr                          
  Lars Goerigk           : TD-DFT with DH, B97 family of functionals     
  Stefan Grimme          : VdW corrections, initial TS optimization, DFT functionals, gCP, sTDA/sTD-DF 
  Waldemar Hujo          : DFT-NL                                        
  H. Jonsson             : NEB                                           
  Holger Kruse           : gCP                                           
  Marcel Mueller         : wB97X-3c, vDZP basis set                      
  Hagen Neugebauer       : wr2SCAN, Native XTB                           
  Gianluca Regni         : ADLD/ADEX                                     
  Tobias Risthaus        : pre 6.0 range-separated hybrid DFT and stability analysis
  Lukas Wittmann         : regularized MP2, r2SCAN double-hybrids, wr2SCAN        
                                                                         
We gratefully acknowledge several colleagues who have allowed us to      
interface, adapt or use parts of their codes:                            
  Ed Valeev, F. Pavosevic, A. Kumar             : LibInt (2-el integral package), F12 methods 
  Garnet Chan, S. Sharma, J. Yang, R. Olivares  : DMRG                   
  Ulf Ekstrom                                   : XCFun DFT Library      
  Mihaly Kallay                                 : mrcc  (arbitrary order and MRCC methods)
  Frank Weinhold                                : gennbo (NPA and NBO analysis)           
  Simon Mueller                                 : openCOSMO-RS                            
  Christopher J. Cramer and Donald G. Truhlar   : smd solvation model                     
  S Lehtola, MJT Oliveira, MAL Marques          : LibXC Library                           
  Liviu Ungur et al                             : ANISO software                          


 Your calculation uses the libint2 library for the computation of 2-el integrals
 For citations please refer to: http://libint.valeyev.net

 Your ORCA version has been built with support for libXC version: 7.0.0
 For citations please refer to: https://libxc.gitlab.io

 This ORCA versions uses:
   CBLAS   interface :  Fast vector & matrix operations
   LAPACKE interface :  Fast linear algebra routines
   SCALAPACK package :  Parallel linear algebra routines
   Shared memory     :  Shared parallel matrices
   BLAS/LAPACK       :  OpenBLAS 0.3.29  USE64BITINT DYNAMIC_ARCH NO_AFFINITY Haswell SINGLE_THREADED
        Core in use  :  Haswell
   Copyright (c) 2011-2014, The OpenBLAS Project


  ***********************************
  * Starting time: Tue Jul  7 21:10:37 2026
  * Host name:     steezy
  * Process ID:    1600918
  * Working dir.:  /home/jannes/chlorophyll-ladder/008-mgbacteriochlorin-axial-ligation/mgbacteriochlorin_meoh/03_tddft_ch2cl2/m062x
  ***********************************

NOTE: MaxCore=3000 MB was set to SCF,MP2,MDCI,CIPSI,MRCI,RASCI and CIS
      => If you want to overwrite this, your respective input block should be placed after the MaxCore statement


***************************************
The coordinates will be read from file: /home/jannes/chlorophyll-ladder/008-mgbacteriochlorin-axial-ligation/mgbacteriochlorin_meoh/01_opt/mgbacteriochlorin_meoh_opt_b3lypd4_tzvp.xyz
***************************************


XCFun DFT library Copyright 2009-2010 Ulf Ekstrom and contributors.
See http://admol.org/xcfun for more information.
This is free software; see the source code for copying conditions.
There is ABSOLUTELY NO WARRANTY; not even for MERCHANTABILITY or FITNESS FOR A PARTICULAR PURPOSE.
For details see the documentation.
Scientific users of this library should cite U. Ekstrom, L. Visscher, R. Bast, A. J. Thorvaldsen and K. Ruud;
J.Chem.Theor.Comp. 2010, DOI: 10.1021/ct100117s
XCFun Version 0.99 

================================================================================

----- Orbital basis set information -----
Your calculation utilizes the basis: def2-TZVP
   F. Weigend and R. Ahlrichs, Phys. Chem. Chem. Phys. 7, 3297 (2005).

----- AuxJ basis set information -----
Your calculation utilizes the auxiliary basis: def2/J
   H-Rn: F. Weigend, Phys. Chem. Chem. Phys. 8, 1057 (2006).
   Fr-Lr: K. Eichkorn, F. Weigend, O. Treutler, R. Ahlrichs; Theor. Chem. Acc. 97, 119 (1997).

================================================================================
                                        WARNINGS
                       Please study these warnings very carefully!
================================================================================

WARNING: Functional chosen is sensitive to the integration grid.
         DEFGRID3 seems to be a minimum grid for robust results!

WARNING: CIS/ROCIS methods need fully converged wavefunctions
  ===> : Setting SCFConvForced true
         You can overwrite this default with %scf ConvForced false 


================================================================================
                                       INPUT FILE
================================================================================
NAME = tddft.inp
|  1> %pal nprocs 4 end
|  2> %maxcore 3000
|  3> ! M062X def2-TZVP def2/J RIJCOSX DefGrid3 TightSCF CPCM(CH2Cl2)
|  4> %tddft
|  5>   nroots 30
|  6>   tda false
|  7>   triplets false
|  8> end
|  9> * xyzfile 0 1 /home/jannes/chlorophyll-ladder/008-mgbacteriochlorin-axial-ligation/mgbacteriochlorin_meoh/01_opt/mgbacteriochlorin_meoh_opt_b3lypd4_tzvp.xyz
| 10> 
| 11>                          ****END OF INPUT****
================================================================================

                       ****************************
                       * Single Point Calculation *
                       ****************************

---------------------------------
CARTESIAN COORDINATES (ANGSTROEM)
---------------------------------
  N     -2.056534    0.064066    0.195273
  N      2.196097    0.017237   -0.055198
  N      0.047142   -1.997678    0.128778
  N      0.092636    2.082294    0.040843
  C     -4.302985   -0.669869    0.375257
  C      4.412842   -0.773036   -0.326220
  C     -4.292762    0.847490    0.140755
  C      4.445514    0.753568   -0.163990
  C     -2.833492   -1.040135    0.275566
  C      2.944418   -1.105549   -0.132262
  C     -2.812309    1.185908    0.158149
  C      2.973747    1.122620   -0.112979
  C     -1.058360   -2.799045    0.207374
  C      1.134821   -2.822845    0.041115
  C     -0.999786    2.906696    0.044591
  C      1.198403    2.882961   -0.052909
  C     -2.381013   -2.343353    0.291686
  C      2.464498   -2.398157   -0.076595
  C     -2.333775    2.478567    0.105930
  C      2.522471    2.425996   -0.106327
  C     -0.658064   -4.175076    0.179954
  C      0.704790   -4.189790    0.074892
  C     -0.572126    4.271379   -0.039540
  C      0.794196    4.256564   -0.099611
  H     -4.907306   -1.213126   -0.352060
  H     -4.689504   -0.928439    1.365281
  H      5.044405   -1.296154    0.392893
  H      4.738481   -1.084172   -1.322516
  H     -4.723657    1.112272   -0.828575
  H     -4.846632    1.405038    0.897142
  H      4.938530    1.055339    0.764181
  H      4.962432    1.261575   -0.978953
  H     -3.140443   -3.113523    0.357172
  H      3.204445   -3.186544   -0.147882
  H     -3.079818    3.264302    0.086697
  H      3.282718    3.195898   -0.165340
  H     -1.329360   -5.018844    0.223576
  H      1.356552   -5.047854    0.016948
  H     -1.227758    5.128250   -0.060576
  H      1.463641    5.099288   -0.177876
  Mg     0.091692    0.043218    0.296571
  O      0.120484    0.213118    2.403881
  C     -0.599692   -0.688622    3.258236
  H     -0.278970   -0.566808    4.294035
  H     -1.676252   -0.529858    3.174387
  H     -0.361741   -1.692255    2.916251
  H     -0.061689    1.129512    2.644354

----------------------------
CARTESIAN COORDINATES (A.U.)
----------------------------
  NO LB      ZA    FRAG     MASS         X           Y           Z
   0 N     7.0000    0    14.007   -3.886287    0.121068    0.369013
   1 N     7.0000    0    14.007    4.150023    0.032574   -0.104310
   2 N     7.0000    0    14.007    0.089085   -3.775065    0.243355
   3 N     7.0000    0    14.007    0.175056    3.934965    0.077182
   4 C     6.0000    0    12.011   -8.131464   -1.265870    0.709133
   5 C     6.0000    0    12.011    8.339063   -1.460826   -0.616467
   6 C     6.0000    0    12.011   -8.112144    1.601524    0.265988
   7 C     6.0000    0    12.011    8.400804    1.424037   -0.309896
   8 C     6.0000    0    12.011   -5.354524   -1.965570    0.520744
   9 C     6.0000    0    12.011    5.564144   -2.089185   -0.249938
  10 C     6.0000    0    12.011   -5.314493    2.241042    0.298858
  11 C     6.0000    0    12.011    5.619568    2.121444   -0.213500
  12 C     6.0000    0    12.011   -2.000011   -5.289428    0.391880
  13 C     6.0000    0    12.011    2.144501   -5.334403    0.077697
  14 C     6.0000    0    12.011   -1.889321    5.492859    0.084264
  15 C     6.0000    0    12.011    2.264653    5.448007   -0.099984
  16 C     6.0000    0    12.011   -4.499463   -4.428295    0.551207
  17 C     6.0000    0    12.011    4.657226   -4.531859   -0.144744
  18 C     6.0000    0    12.011   -4.410196    4.683814    0.200179
  19 C     6.0000    0    12.011    4.766779    4.584468   -0.200928
  20 C     6.0000    0    12.011   -1.243560   -7.889750    0.340063
  21 C     6.0000    0    12.011    1.331861   -7.917555    0.141526
  22 C     6.0000    0    12.011   -1.081161    8.071737   -0.074721
  23 C     6.0000    0    12.011    1.500812    8.043740   -0.188238
  24 H     1.0000    0     1.008   -9.273464   -2.292477   -0.665297
  25 H     1.0000    0     1.008   -8.861879   -1.754495    2.580008
  26 H     1.0000    0     1.008    9.532543   -2.449376    0.742459
  27 H     1.0000    0     1.008    8.954431   -2.048789   -2.499192
  28 H     1.0000    0     1.008   -8.926419    2.101889   -1.565780
  29 H     1.0000    0     1.008   -9.158807    2.655136    1.695353
  30 H     1.0000    0     1.008    9.332468    1.994302    1.444093
  31 H     1.0000    0     1.008    9.377638    2.384031   -1.849953
  32 H     1.0000    0     1.008   -5.934577   -5.883706    0.674957
  33 H     1.0000    0     1.008    6.055524   -6.021695   -0.279457
  34 H     1.0000    0     1.008   -5.820012    6.168637    0.163833
  35 H     1.0000    0     1.008    6.203438    6.039373   -0.312448
  36 H     1.0000    0     1.008   -2.512127   -9.484241    0.422498
  37 H     1.0000    0     1.008    2.563512   -9.539062    0.032028
  38 H     1.0000    0     1.008   -2.320126    9.690988   -0.114473
  39 H     1.0000    0     1.008    2.765881    9.636257   -0.336136
  40 Mg   12.0000    0    24.305    0.173273    0.081670    0.560438
  41 O     8.0000    0    15.999    0.227681    0.402735    4.542677
  42 C     6.0000    0    12.011   -1.133253   -1.301308    6.157174
  43 H     1.0000    0     1.008   -0.527177   -1.071112    8.114549
  44 H     1.0000    0     1.008   -3.167657   -1.001286    5.998721
  45 H     1.0000    0     1.008   -0.683591   -3.197898    5.510916
  46 H     1.0000    0     1.008   -0.116576    2.134469    4.997104

--------------------------------
INTERNAL COORDINATES (ANGSTROEM)
--------------------------------
 N      0   0   0     0.000000000000     0.00000000     0.00000000
 N      1   0   0     4.260258894745     0.00000000     0.00000000
 N      1   2   0     2.946296765579    43.80106352     0.00000000
 N      2   1   3     2.949276643465    43.81765121   180.83025142
 C      1   2   3     2.370147068312   161.29363812     1.97910240
 C      2   1   3     2.368953595941   160.81566609    11.98716236
 C      5   1   2     1.535407035037    71.09939603   185.45256901
 C      6   2   1     1.535547127463    71.10529137   175.50682946
 C      1   2   3     1.352542054615   124.60603460     0.16413444
 C      2   1   3     1.351507461999   124.41522660     3.30288946
 C      1   2   3     1.353182154120   124.40342312   182.57563594
 C      2   1   3     1.352756048920   124.56657717   180.99523417
 C      3   1   2     1.367662238193    80.30439448   180.39971298
 C      3   1   2     1.368075539549   172.38795394   345.16461659
 C      4   2   1     1.368589579090   172.37549225   344.20615026
 C      4   2   1     1.368421955428    80.27810313   180.74371087
 C      9   1   2     1.379628236228   125.69475707     0.12667858
 C     10   2   1     1.379947649131   125.68442486   356.64093580
 C     11   1   2     1.379380053294   125.74628036   356.37373825
 C     12   2   1     1.379305373447   125.72274171   359.69540643
 C     13   3   1     1.433335097275   109.61333506   178.40908255
 C     21  13   3     1.366976549656   106.87220114   359.61581618
 C     15   4  16     1.432596230891   109.59534337   359.56930083
 C     23  15   4     1.367721655999   106.88641971     0.24453404
 H      5   1   2     1.090560446494   128.96368932   290.45525623
 H      5   1   2     1.093802370642   118.48082874    80.13068557
 H      6   2   1     1.090709266808   128.78520442   280.59669948
 H      6   2   1     1.093366821637   118.54666132    70.29334348
 H      7   5   1     1.093334729742   111.84609463   113.61430082
 H      7   5   1     1.090758111885   113.31937997   234.55072544
 H      8   6   2     1.093449775732   111.94074631   113.77029309
 H      8   6   2     1.090614637781   113.21758066   234.79396255
 H     17   9   1     1.083597648587   116.24680465   180.17695538
 H     18  10   2     1.083585492989   116.19193362   180.34640671
 H     19  11   1     1.083664579568   116.18841036   180.30919688
 H     20  12   2     1.083608768782   116.20477021   180.40128664
 H     21  13   3     1.079114567213   125.17964441   180.28034003
 H     22  21  13     1.079085667824   127.94168730   180.66009321
 H     23  15   4     1.079130607038   125.18183288   179.64039125
 H     24  23  15     1.079104640076   127.91285873   179.44393124
 Mg     3   1   2     2.048266466217    46.87629443     8.74969706
 O     41   3   1     2.114344210881    99.32359301    93.32264095
 C     42  41   3     1.435866194424   122.39386503   324.07204090
 H     43  42  41     1.091136517270   110.32208002   167.49410726
 H     43  42  41     1.091429614092   110.95671603   290.01798993
 H     43  42  41     1.086670550185   106.43566245    48.51580145
 H     42  41   3     0.964775500348   108.79470456   192.91255053

---------------------------
INTERNAL COORDINATES (A.U.)
---------------------------
 N      0   0   0     0.000000000000     0.00000000     0.00000000
 N      1   0   0     8.050722570670     0.00000000     0.00000000
 N      1   2   0     5.567693996202    43.80106352     0.00000000
 N      2   1   3     5.573325149319    43.81765121   180.83025142
 C      1   2   3     4.478928856226   161.29363812     1.97910240
 C      2   1   3     4.476673520297   160.81566609    11.98716236
 C      5   1   2     2.901498800316    71.09939603   185.45256901
 C      6   2   1     2.901763536635    71.10529137   175.50682946
 C      1   2   3     2.555934067834   124.60603460     0.16413444
 C      2   1   3     2.553978971130   124.41522660     3.30288946
 C      1   2   3     2.557143680596   124.40342312   182.57563594
 C      2   1   3     2.556338458464   124.56657717   180.99523417
 C      3   1   2     2.584507073890    80.30439448   180.39971298
 C      3   1   2     2.585288100264   172.38795394   345.16461659
 C      4   2   1     2.586259494218   172.37549225   344.20615026
 C      4   2   1     2.585942731405    80.27810313   180.74371087
 C      9   1   2     2.607119533096   125.69475707     0.12667858
 C     10   2   1     2.607723136005   125.68442486   356.64093580
 C     11   1   2     2.606650535319   125.74628036   356.37373825
 C     12   2   1     2.606509410861   125.72274171   359.69540643
 C     13   3   1     2.708610791987   109.61333506   178.40908255
 C     21  13   3     2.583211310342   106.87220114   359.61581618
 C     15   4  16     2.707214536872   109.59534337   359.56930083
 C     23  15   4     2.584619357271   106.88641971     0.24453404
 H      5   1   2     2.060860576361   128.96368932   290.45525623
 H      5   1   2     2.066986925147   118.48082874    80.13068557
 H      6   2   1     2.061141805997   128.78520442   280.59669948
 H      6   2   1     2.066163856809   118.54666132    70.29334348
 H      7   5   1     2.066103211917   111.84609463   113.61430082
 H      7   5   1     2.061234109815   113.31937997   234.55072544
 H      8   6   2     2.066320617332   111.94074631   113.77029309
 H      8   6   2     2.060962983052   113.21758066   234.79396255
 H     17   9   1     2.047702795191   116.24680465   180.17695538
 H     18  10   2     2.047679824439   116.19193362   180.34640671
 H     19  11   1     2.047829276414   116.18841036   180.30919688
 H     20  12   2     2.047723809314   116.20477021   180.40128664
 H     21  13   3     2.039230999157   125.17964441   180.28034003
 H     22  21  13     2.039176387227   127.94168730   180.66009321
 H     23  15   4     2.039261310035   125.18183288   179.64039125
 H     24  23  15     2.039212239588   127.91285873   179.44393124
 Mg     3   1   2     3.870662670445    46.87629443     8.74969706
 O     41   3   1     3.995531511406    99.32359301    93.32264095
 C     42  41   3     2.713393872417   122.39386503   324.07204090
 H     43  42  41     2.061949192361   110.32208002   167.49410726
 H     43  42  41     2.062503065084   110.95671603   290.01798993
 H     43  42  41     2.053509737648   106.43566245    48.51580145
 H     42  41   3     1.823161476375   108.79470456   192.91255053

---------------------
BASIS SET INFORMATION
---------------------
There are 5 groups of distinct atoms

 Group   1 Type N   : 11s6p2d1f contracted to 5s3p2d1f pattern {62111/411/11/1}
 Group   2 Type C   : 11s6p2d1f contracted to 5s3p2d1f pattern {62111/411/11/1}
 Group   3 Type H   : 5s1p contracted to 3s1p pattern {311/1}
 Group   4 Type Mg  : 14s8p3d contracted to 5s4p3d pattern {73211/5111/111}
 Group   5 Type O   : 11s6p2d1f contracted to 5s3p2d1f pattern {62111/411/11/1}

Atom   0N    basis set group =>   1
Atom   1N    basis set group =>   1
Atom   2N    basis set group =>   1
Atom   3N    basis set group =>   1
Atom   4C    basis set group =>   2
Atom   5C    basis set group =>   2
Atom   6C    basis set group =>   2
Atom   7C    basis set group =>   2
Atom   8C    basis set group =>   2
Atom   9C    basis set group =>   2
Atom  10C    basis set group =>   2
Atom  11C    basis set group =>   2
Atom  12C    basis set group =>   2
Atom  13C    basis set group =>   2
Atom  14C    basis set group =>   2
Atom  15C    basis set group =>   2
Atom  16C    basis set group =>   2
Atom  17C    basis set group =>   2
Atom  18C    basis set group =>   2
Atom  19C    basis set group =>   2
Atom  20C    basis set group =>   2
Atom  21C    basis set group =>   2
Atom  22C    basis set group =>   2
Atom  23C    basis set group =>   2
Atom  24H    basis set group =>   3
Atom  25H    basis set group =>   3
Atom  26H    basis set group =>   3
Atom  27H    basis set group =>   3
Atom  28H    basis set group =>   3
Atom  29H    basis set group =>   3
Atom  30H    basis set group =>   3
Atom  31H    basis set group =>   3
Atom  32H    basis set group =>   3
Atom  33H    basis set group =>   3
Atom  34H    basis set group =>   3
Atom  35H    basis set group =>   3
Atom  36H    basis set group =>   3
Atom  37H    basis set group =>   3
Atom  38H    basis set group =>   3
Atom  39H    basis set group =>   3
Atom  40Mg   basis set group =>   4
Atom  41O    basis set group =>   5
Atom  42C    basis set group =>   2
Atom  43H    basis set group =>   3
Atom  44H    basis set group =>   3
Atom  45H    basis set group =>   3
Atom  46H    basis set group =>   3
---------------------------------
AUXILIARY/J BASIS SET INFORMATION
---------------------------------
There are 5 groups of distinct atoms

 Group   1 Type N   : 12s5p4d2f1g contracted to 6s4p3d1f1g pattern {711111/2111/211/2/1}
 Group   2 Type C   : 12s5p4d2f1g contracted to 6s4p3d1f1g pattern {711111/2111/211/2/1}
 Group   3 Type H   : 5s2p1d contracted to 3s1p1d pattern {311/2/1}
 Group   4 Type Mg  : 14s5p5d2f1g contracted to 8s4p4d1f1g pattern {71111111/2111/2111/2/1}
 Group   5 Type O   : 12s5p4d2f1g contracted to 6s4p3d1f1g pattern {711111/2111/211/2/1}

Atom   0N    basis set group =>   1
Atom   1N    basis set group =>   1
Atom   2N    basis set group =>   1
Atom   3N    basis set group =>   1
Atom   4C    basis set group =>   2
Atom   5C    basis set group =>   2
Atom   6C    basis set group =>   2
Atom   7C    basis set group =>   2
Atom   8C    basis set group =>   2
Atom   9C    basis set group =>   2
Atom  10C    basis set group =>   2
Atom  11C    basis set group =>   2
Atom  12C    basis set group =>   2
Atom  13C    basis set group =>   2
Atom  14C    basis set group =>   2
Atom  15C    basis set group =>   2
Atom  16C    basis set group =>   2
Atom  17C    basis set group =>   2
Atom  18C    basis set group =>   2
Atom  19C    basis set group =>   2
Atom  20C    basis set group =>   2
Atom  21C    basis set group =>   2
Atom  22C    basis set group =>   2
Atom  23C    basis set group =>   2
Atom  24H    basis set group =>   3
Atom  25H    basis set group =>   3
Atom  26H    basis set group =>   3
Atom  27H    basis set group =>   3
Atom  28H    basis set group =>   3
Atom  29H    basis set group =>   3
Atom  30H    basis set group =>   3
Atom  31H    basis set group =>   3
Atom  32H    basis set group =>   3
Atom  33H    basis set group =>   3
Atom  34H    basis set group =>   3
Atom  35H    basis set group =>   3
Atom  36H    basis set group =>   3
Atom  37H    basis set group =>   3
Atom  38H    basis set group =>   3
Atom  39H    basis set group =>   3
Atom  40Mg   basis set group =>   4
Atom  41O    basis set group =>   5
Atom  42C    basis set group =>   2
Atom  43H    basis set group =>   3
Atom  44H    basis set group =>   3
Atom  45H    basis set group =>   3
Atom  46H    basis set group =>   3


           ************************************************************
           *        Program running with 4 parallel MPI-processes     *
           *              working on a common directory               *
           ************************************************************
------------------------------------------------------------------------------
                             ORCA STARTUP CALCULATIONS
                           -- RI-GTO INTEGRALS CHOSEN --
------------------------------------------------------------------------------
------------------------------------------------------------------------------
                   ___                                                        
                  /   \      - P O W E R E D   B Y -                         
                 /     \                                                     
                 |  |  |   _    _      __       _____    __    __             
                 |  |  |  | |  | |    /  \     |  _  \  |  |  /  |          
                  \  \/   | |  | |   /    \    | | | |  |  | /  /          
                 / \  \   | |__| |  /  /\  \   | |_| |  |  |/  /          
                |  |  |   |  __  | /  /__\  \  |    /   |      \           
                |  |  |   | |  | | |   __   |  |    \   |  |\   \          
                \     /   | |  | | |  |  |  |  | |\  \  |  | \   \       
                 \___/    |_|  |_| |__|  |__|  |_| \__\ |__|  \__/        
                                                                              
                      - O R C A' S   B I G   F R I E N D -                    
                                      &                                       
                       - I N T E G R A L  F E E D E R -                       
                                                                              
 v1 FN, 2020, v2 2021, v3 2022-2024                                           
------------------------------------------------------------------------------


----------------------
SHARK INTEGRAL PACKAGE
----------------------

Number of atoms                             ...     47
Number of basis functions                   ...    958
Number of shells                            ...    378
Maximum angular momentum                    ...      3
Integral batch strategy                     ... SHARK/LIBINT Hybrid
RI-J (if used) integral strategy            ... SPLIT-RIJ (Revised 2003 algorithm where possible)
Printlevel                                  ...      1
Contraction scheme used                     ... SEGMENTED contraction
Prescreening option                         ... SCHWARTZ
   Thresh                                   ... 2.500e-11
   Tcut                                     ... 2.500e-12
   Tpresel                                  ... 2.500e-12 
Coulomb Range Separation                    ... NOT USED
Exchange Range Separation                   ... NOT USED
Multipole approximations                    ... NOT USED
Finite Nucleus Model                        ... NOT USED
CABS basis                                  ... NOT available
Auxiliary Coulomb fitting basis             ... AVAILABLE
   # of basis functions in Aux-J            ...   1550
   # of shells in Aux-J                     ...    508
   Maximum angular momentum in Aux-J        ...      4
Auxiliary J/K fitting basis                 ... NOT available
Auxiliary Correlation fitting basis         ... NOT available
Auxiliary 'external' fitting basis          ... NOT available

Checking pre-screening integrals            ... done (  0.0 sec) Dimension = 378
   => SHARK Basis and OBASIS are compatible. Storing Pre-screening
Shell pair information
Shell pair cut-off parameter TPreSel        ...   2.5e-12
Total number of shell pairs                 ...     71631
Shell pairs after pre-screening             ...     50412
Total number of primitive shell pairs       ...    222112
Primitive shell pairs kept                  ...    101345
          la=0 lb=0:  12812 shell pairs
          la=1 lb=0:  14597 shell pairs
          la=1 lb=1:   4158 shell pairs
          la=2 lb=0:   7321 shell pairs
          la=2 lb=1:   4254 shell pairs
          la=2 lb=2:   1130 shell pairs
          la=3 lb=0:   3128 shell pairs
          la=3 lb=1:   1876 shell pairs
          la=3 lb=2:    930 shell pairs
          la=3 lb=3:    206 shell pairs

Checking whether 4 symmetric matrices of dimension 958 fit in memory
:Max Core in MB      =   3000.00
 MB in use           =     64.03
 MB left             =   2935.97
 MB needed           =     14.02
 Data fit in memory  = YES
Calculating RI/J V-Matrix + Cholesky decomp.... done (  0.3 sec)
Calculating Nuclear repulsion               ... done (  0.0 sec) ENN=   2623.086717603639 Eh

Diagonalization of the overlap matrix:
Smallest eigenvalue                        ... 1.001e-05
Time for diagonalization                   ...    0.368 sec
Threshold for overlap eigenvalues          ... 1.000e-07
Number of eigenvalues below threshold      ... 0
Time for construction of square roots      ...    0.172 sec
Total time needed                          ...    0.554 sec

-------------------
DFT GRID GENERATION
-------------------

General Integration Accuracy     IntAcc      ... 4.959
Radial Grid Type                 RadialGrid  ... OptM3 with GC (2021)
Angular Grid (max. ang.)         AngularGrid ... 6 (Lebedev-590)
Angular grid pruning method      GridPruning ... 4 (adaptive)
Weight generation scheme         WeightScheme... mBecke (2022)
Basis function cutoff            BFCut       ... 1.0000e-11
Integration weight cutoff        WCut        ... 1.0000e-14
Partially contracted basis set               ... off
Rotationally invariant grid construction     ... off
Angular grids for H and He will be reduced by one unit

Total number of grid points                  ...   550626
Total number of batches                      ...     8629
Average number of points per batch           ...       63
Average number of grid points per atom       ...    11715

--------------------
COSX GRID GENERATION
--------------------

GRIDX 1
-------
General Integration Accuracy     IntAcc      ... 4.020
Radial Grid Type                 RadialGrid  ... OptM3 with GC (2021)
Angular Grid (max. ang.)         AngularGrid ... 2 (Lebedev-110)
Angular grid pruning method      GridPruning ... 4 (adaptive)
Weight generation scheme         WeightScheme... mBecke (2022)
Basis function cutoff            BFCut       ... 1.0000e-11
Integration weight cutoff        WCut        ... 1.0000e-14
Partially contracted basis set               ... on
Rotationally invariant grid construction     ... off
Angular grids for H and He will be reduced by one unit

Total number of grid points                  ...    61520
Total number of batches                      ...      505
Average number of points per batch           ...      121
Average number of grid points per atom       ...     1309
UseSFitting                                  ... on

GRIDX 2
-------
General Integration Accuracy     IntAcc      ... 4.338
Radial Grid Type                 RadialGrid  ... OptM3 with GC (2021)
Angular Grid (max. ang.)         AngularGrid ... 3 (Lebedev-194)
Angular grid pruning method      GridPruning ... 4 (adaptive)
Weight generation scheme         WeightScheme... mBecke (2022)
Basis function cutoff            BFCut       ... 1.0000e-11
Integration weight cutoff        WCut        ... 1.0000e-14
Partially contracted basis set               ... on
Rotationally invariant grid construction     ... off
Angular grids for H and He will be reduced by one unit

Total number of grid points                  ...   134764
Total number of batches                      ...     1074
Average number of points per batch           ...      125
Average number of grid points per atom       ...     2867
UseSFitting                                  ... on

GRIDX 3
-------
General Integration Accuracy     IntAcc      ... 4.871
Radial Grid Type                 RadialGrid  ... OptM3 with GC (2021)
Angular Grid (max. ang.)         AngularGrid ... 4 (Lebedev-302)
Angular grid pruning method      GridPruning ... 4 (adaptive)
Weight generation scheme         WeightScheme... mBecke (2022)
Basis function cutoff            BFCut       ... 1.0000e-11
Integration weight cutoff        WCut        ... 1.0000e-14
Partially contracted basis set               ... on
Rotationally invariant grid construction     ... off
Angular grids for H and He will be reduced by one unit

Total number of grid points                  ...   250831
Total number of batches                      ...     1982
Average number of points per batch           ...      126
Average number of grid points per atom       ...     5337
UseSFitting                                  ... on
Grids setup in  31.7 sec
Initializing property integral containers    ... done (  0.0 sec)

SHARK setup successfully completed in  36.8 seconds

Maximum memory used throughout the entire STARTUP-calculation: 186.4 MB


           ************************************************************
           *        Program running with 4 parallel MPI-processes     *
           *              working on a common directory               *
           ************************************************************
-------------------------------------------------------------------------------
                                 ORCA GUESS
                   Start orbitals & Density for SCF / CASSCF
-------------------------------------------------------------------------------

------------
SCF SETTINGS
------------
Hamiltonian:
 Density Functional     Method          .... DFT(GTOs)
 Exchange Functional    Exchange        .... M062X
 Correlation Functional Correlation     .... M062X
 Gradients option       PostSCFGGA      .... off
 Hybrid DFT is turned on
   Fraction HF Exchange ScalHFX         ....  0.540000
   Scaling of DF-GGA-X  ScalDFX         ....  0.460000
   Scaling of DF-GGA-C  ScalDFC         ....  1.000000
   Scaling of DF-LDA-C  ScalLDAC        ....  1.000000
   Perturbative correction              ....  0.000000
 RI-approximation to the Coulomb term is turned on
   Number of AuxJ basis functions       .... 1550
   RIJ-COSX (HFX calculated with COS-X)).... on


General Settings:
 Integral files         IntName         .... tddft
 Hartree-Fock type      HFTyp           .... RHF
 Total Charge           Charge          ....    0
 Multiplicity           Mult            ....    1
 Number of Electrons    NEL             ....  194
 Basis Dimension        Dim             ....  958
 Nuclear Repulsion      ENuc            ....   2623.0867176036 Eh

Convergence Acceleration:
 AO-DIIS                CNVDIIS         .... on
   Start iteration      DIISMaxIt       ....    12
   Startup error        DIISStart       ....  0.200000
   # of expansion vecs  DIISMaxEq       ....     5
   Bias factor          DIISBfac        ....   1.050
   Max. coefficient     DIISMaxC        ....  10.000
 MO-DIIS                CNVKDIIS        .... off
 Trust-Rad. Augm. Hess. CNVTRAH         .... auto
   Auto Start mean grad. ratio tolernc. ....  1.125000
   Auto Start start iteration           ....    50
   Auto Start num. interpolation iter.  ....    10
   Max. Number of Micro iterations      ....    24
   Max. Number of Macro iterations      .... Maxiter - #DIIS iter
   Number of Davidson start vectors     ....     2
   Converg. threshold    (grad. norm)   ....   1.000e-05
   Grad. Scal. Fac. for Micro threshold ....   0.100
   Minimum threshold for Micro iter.    ....   1.000e-02
   NR start threshold (gradient norm)   ....   1.000e-04
   Initial trust radius                 ....   0.400
   Minimum AH scaling param. (alpha)    ....   1.000
   Maximum AH scaling param. (alpha)    .... 1000.000
   Quad. conv. algorithm                .... NR
   White noise on init. David. guess    .... on
   Maximum white noise                  ....   0.010
   Pseudo random numbers                .... off
   Inactive MOs                         .... canonical
   Orbital update algorithm             .... Taylor
   Preconditioner                       .... Diag
   Full preconditioner red. dimension   ....   250
 SOSCF                 CNVSOSCF           .... on
   Start iteration     SOSCFMaxIt         ....   150
   Startup grad/error  SOSCFStart         ....  0.003300
   Hessian update      SOSCFHessUp        .... L-BFGS
   Autom. constraints  SOSCFAutoConstrain .... off
 Level Shifting         CNVShift        .... on
   Level shift para.    LevelShift      ....    0.2500
   Turn off err/grad.   ShiftErr        ....    0.0010
 Zerner damping         CNVZerner       .... off
 Static damping         CNVDamp         .... on
   Fraction old density DampFac         ....    0.7000
   Max. Damping (<1)    DampMax         ....    0.9800
   Min. Damping (>=0)   DampMin         ....    0.0000
   Turn off err/grad.   DampErr         ....    0.1000

SCF Procedure:
 Maximum # iterations   MaxIter         ....   125
 SCF integral mode      SCFMode         .... Direct
   Integral package                     .... SHARK and LIBINT hybrid scheme
 Reset frequency        DirectResetFreq ....    20
 Integral Threshold     Thresh          ....  2.500e-11 Eh
 Primitive CutOff       TCut            ....  2.500e-12 Eh

Convergence Tolerance:
 Convergence Check Mode ConvCheckMode   .... Total+1el-Energy
 Convergence forced     ConvForced      .... 1
 Energy Change          TolE            ....  1.000e-08 Eh
 1-El. energy change                    ....  1.000e-05 Eh
 Orbital Gradient       TolG            ....  1.000e-05
 Orbital Rotation angle TolX            ....  1.000e-05
 DIIS Error             TolErr          ....  5.000e-07

------------------------------
INITIAL GUESS: MODEL POTENTIAL
------------------------------
Loading Hartree-Fock densities                     ... done
Calculating cut-offs                               ... done
Initializing the effective Hamiltonian             ... done
Setting up the integral package (SHARK)            ... done
Starting the Coulomb interaction                   ... done (   4.2 sec)
Making the grid                                    ... done (   1.7 sec)
Mapping shells                                     ... done
Starting the XC term evaluation                    ... done (   3.4 sec)
  promolecular density results
     # of electrons  =    194.017392037
     EX              =   -163.779439852
     EC              =     -6.578544742
     EX+EC           =   -170.357984595
Transforming the Hamiltonian                       ... done (   0.2 sec)
Diagonalizing the Hamiltonian                      ... done (   0.4 sec)
Back transforming the eigenvectors                 ... done (   0.1 sec)
Now organizing SCF variables                       ... done
                      ------------------
                      INITIAL GUESS DONE (  10.2 sec)
                      ------------------
             **** ENERGY FILE WAS UPDATED (tddft.en.tmp) ****
Finished Guess after  11.0 sec
Maximum memory used throughout the entire GUESS-calculation: 106.7 MB


           ************************************************************
           *        Program running with 4 parallel MPI-processes     *
           *              working on a common directory               *
           ************************************************************

-------------------------------------------------------------------------------------------
                                      ORCA LEAN-SCF
                              memory conserving SCF solver
-------------------------------------------------------------------------------------------

--------------------
CPCM SOLVATION MODEL
--------------------
CPCM parameters:
  Epsilon                                         ...       8.9990
  Refrac                                          ...       1.4242
  Rsolv                                           ...       1.3000
  Surface type                                    ... GAUSSIAN VDW
  Discretization scheme                           ... Constant charge density
    Threshold for H atoms                         ...       5.0000 (charges/Ang^2)
    Threshold for non-H atoms                     ...       5.0000 (charges/Ang^2)
  Epsilon function type                           ...         CPCM
Solvent:                                          ... DICHLOROMETHANE
Radii:
  Scheme                                          ... Element-dependent radii
  Radius for N  used is    3.5149 Bohr (=   1.8600 Ang.)
  Radius for C  used is    3.8550 Bohr (=   2.0400 Ang.)
  Radius for H  used is    2.4944 Bohr (=   1.3200 Ang.)
  Radius for Mg used is    3.9231 Bohr (=   2.0760 Ang.)
  Radius for O  used is    3.4469 Bohr (=   1.8240 Ang.)
Calculating surface                               ...        done! (  0.0s)
Cavity surface points                             ...         4113
Cavity Volume                                     ...    2831.5727
Cavity Surface-area                               ...    1348.4688
Calculating surface distance matrix               ...        done! (  0.5s)
Performing Cholesky decomposition & store         ...        done! (  1.5s)
Overall time for CPCM initialization              ...                 2.0s

----------------------------------------D-I-I-S--------------------------------------------
Iteration    Energy (Eh)           Delta-E    RMSDP     MaxDP     DIISErr   Damp  Time(sec)
-------------------------------------------------------------------------------------------
               ***  Starting incremental Fock matrix formation  ***
    1    -1306.0123330091964817     0.00e+00  2.18e-03  4.58e-02  2.40e-01  0.700 237.3
    2    -1306.2951526471547368    -2.83e-01  1.76e-03  3.87e-02  1.28e-01  0.700 128.0
                               ***Turning on AO-DIIS***
    3    -1306.4362326243540338    -1.41e-01  1.16e-03  2.85e-02  5.51e-02  0.700 116.4
    4    -1306.5194656472990573    -8.32e-02  2.68e-03  6.80e-02  3.80e-02  0.000 107.5
    5    -1306.6965759914933187    -1.77e-01  2.32e-04  5.51e-03  4.18e-03  0.000 112.7
                              *** Initializing SOSCF ***
---------------------------------------S-O-S-C-F--------------------------------------
Iteration    Energy (Eh)           Delta-E    RMSDP     MaxDP     MaxGrad    Time(sec)
--------------------------------------------------------------------------------------
    6    -1306.6970199255811167    -4.44e-04  9.25e-05  1.88e-03  2.76e-03   111.2
               *** Restarting incremental Fock matrix formation ***
    7    -1306.6970743568481339    -5.44e-05  6.65e-05  1.48e-03  5.08e-04   244.1
    8    -1306.6970886255103323    -1.43e-05  3.34e-05  9.56e-04  2.21e-04   167.3
    9    -1306.6970896588813957    -1.03e-06  1.36e-05  2.91e-04  1.24e-04   150.3
   10    -1306.6970908613393476    -1.20e-06  3.42e-06  6.62e-05  2.36e-05   135.2
   11    -1306.6970909047226996    -4.34e-08  1.38e-06  2.69e-05  1.27e-05   116.2
   12    -1306.6970908698576750     3.49e-08  1.29e-06  3.12e-05  6.20e-06   111.2
   13    -1306.6970908685593713     1.30e-09  1.25e-06  3.93e-05  4.32e-06   110.5
                 **** Energy Check signals convergence ****

               *****************************************************
               *                     SUCCESS                       *
               *           SCF CONVERGED AFTER  13 CYCLES          *
               *****************************************************

Recomputing exchange energy using gridx3       ... done (  286.069 sec)
Old exchange energy                            :    -90.183393850 Eh
New exchange energy                            :    -90.183369843 Eh
Exchange energy change after final integration :      0.000024008 Eh
Total energy after final integration           :  -1306.697066903 Eh
             **** ENERGY FILE WAS UPDATED (tddft.en.tmp) ****

----------------
TOTAL SCF ENERGY
----------------

Total Energy       :      -1306.69706690260296 Eh          -35557.03488 eV

Components:
Nuclear Repulsion  :       2623.08671760363859 Eh           71377.81836 eV
Electronic Energy  :      -3929.76387133678691 Eh         -106934.31137 eV
One Electron Energy:      -7001.58656771379810 Eh         -190522.85650 eV
Two Electron Energy:       3071.82269637701120 Eh           83588.54513 eV
CPCM Dielectric    :         -0.01993717710446 Eh              -0.54252 eV

Virial components:
Potential Energy   :      -2607.08764332633382 Eh          -70942.46142 eV
Kinetic Energy     :       1300.39057642373109 Eh           35385.42654 eV
Virial Ratio       :          2.00484968946500

DFT components:
N(Alpha)           :       97.000017688979 electrons
N(Beta)            :       97.000017688979 electrons
N(Total)           :      194.000035377959 electrons
E(XC)              :      -83.985904413318 Eh       

CPCM Solvation Model Properties:
Surface-charge          :         -0.03959137156478
Corrected charge        :          0.00000000000000
Outlying charge corr.   :          0.00007210189562 Eh               0.00196 eV
Free-energy (cav+disp)  :  This term is not implemented in the current solvation scheme

---------------
SCF CONVERGENCE
---------------

  Last Energy change         ...   -1.2983e-09  Tolerance :   1.0000e-08
  Last MAX-Density change    ...    3.9255e-05  Tolerance :   1.0000e-07
  Last RMS-Density change    ...    1.2525e-06  Tolerance :   5.0000e-09
  Last DIIS Error            ...    2.7640e-03  Tolerance :   5.0000e-07
  Last Orbital Gradient      ...    4.3210e-06  Tolerance :   1.0000e-05
  Last Orbital Rotation      ...    6.3362e-05  Tolerance :   1.0000e-05


----------------
ORBITAL ENERGIES
----------------

  NO   OCC          E(Eh)            E(eV) 
   0   2.0000     -47.500692     -1292.5595 
   1   2.0000     -19.659739      -534.9687 
   2   2.0000     -14.754661      -401.4947 
   3   2.0000     -14.754540      -401.4914 
   4   2.0000     -14.727438      -400.7540 
   5   2.0000     -14.726987      -400.7417 
   6   2.0000     -10.584463      -288.0179 
   7   2.0000     -10.575513      -287.7743 
   8   2.0000     -10.575415      -287.7717 
   9   2.0000     -10.575253      -287.7673 
  10   2.0000     -10.575000      -287.7604 
  11   2.0000     -10.564618      -287.4779 
  12   2.0000     -10.564584      -287.4769 
  13   2.0000     -10.564237      -287.4675 
  14   2.0000     -10.563888      -287.4580 
  15   2.0000     -10.536608      -286.7157 
  16   2.0000     -10.536213      -286.7049 
  17   2.0000     -10.536079      -286.7013 
  18   2.0000     -10.535713      -286.6913 
  19   2.0000     -10.532330      -286.5993 
  20   2.0000     -10.532302      -286.5985 
  21   2.0000     -10.531911      -286.5879 
  22   2.0000     -10.531842      -286.5860 
  23   2.0000     -10.529951      -286.5345 
  24   2.0000     -10.529387      -286.5192 
  25   2.0000     -10.529021      -286.5092 
  26   2.0000     -10.528468      -286.4942 
  27   2.0000      -3.254327       -88.5547 
  28   2.0000      -1.948654       -53.0256 
  29   2.0000      -1.946727       -52.9731 
  30   2.0000      -1.946367       -52.9633 
  31   2.0000      -1.171492       -31.8779 
  32   2.0000      -1.068423       -29.0733 
  33   2.0000      -1.062419       -28.9099 
  34   2.0000      -1.054604       -28.6972 
  35   2.0000      -1.047492       -28.5037 
  36   2.0000      -0.909393       -24.7458 
  37   2.0000      -0.884196       -24.0602 
  38   2.0000      -0.875708       -23.8292 
  39   2.0000      -0.863785       -23.5048 
  40   2.0000      -0.862042       -23.4573 
  41   2.0000      -0.851923       -23.1820 
  42   2.0000      -0.851073       -23.1589 
  43   2.0000      -0.821920       -22.3656 
  44   2.0000      -0.806571       -21.9479 
  45   2.0000      -0.791532       -21.5387 
  46   2.0000      -0.742236       -20.1973 
  47   2.0000      -0.733516       -19.9600 
  48   2.0000      -0.696183       -18.9441 
  49   2.0000      -0.674086       -18.3428 
  50   2.0000      -0.644375       -17.5343 
  51   2.0000      -0.643028       -17.4977 
  52   2.0000      -0.641075       -17.4445 
  53   2.0000      -0.631042       -17.1715 
  54   2.0000      -0.611241       -16.6327 
  55   2.0000      -0.604593       -16.4518 
  56   2.0000      -0.591570       -16.0974 
  57   2.0000      -0.579117       -15.7586 
  58   2.0000      -0.570471       -15.5233 
  59   2.0000      -0.566261       -15.4087 
  60   2.0000      -0.552907       -15.0454 
  61   2.0000      -0.547210       -14.8903 
  62   2.0000      -0.542479       -14.7616 
  63   2.0000      -0.535491       -14.5715 
  64   2.0000      -0.525985       -14.3128 
  65   2.0000      -0.500599       -13.6220 
  66   2.0000      -0.500531       -13.6202 
  67   2.0000      -0.483519       -13.1572 
  68   2.0000      -0.481208       -13.0943 
  69   2.0000      -0.478117       -13.0102 
  70   2.0000      -0.464192       -12.6313 
  71   2.0000      -0.463580       -12.6147 
  72   2.0000      -0.460814       -12.5394 
  73   2.0000      -0.446457       -12.1487 
  74   2.0000      -0.442994       -12.0545 
  75   2.0000      -0.438992       -11.9456 
  76   2.0000      -0.436818       -11.8864 
  77   2.0000      -0.435744       -11.8572 
  78   2.0000      -0.432612       -11.7720 
  79   2.0000      -0.423638       -11.5278 
  80   2.0000      -0.421610       -11.4726 
  81   2.0000      -0.416739       -11.3400 
  82   2.0000      -0.415745       -11.3130 
  83   2.0000      -0.414140       -11.2693 
  84   2.0000      -0.412706       -11.2303 
  85   2.0000      -0.406603       -11.0642 
  86   2.0000      -0.388393       -10.5687 
  87   2.0000      -0.370414       -10.0795 
  88   2.0000      -0.364780        -9.9262 
  89   2.0000      -0.362550        -9.8655 
  90   2.0000      -0.340384        -9.2623 
  91   2.0000      -0.325036        -8.8447 
  92   2.0000      -0.312093        -8.4925 
  93   2.0000      -0.302861        -8.2413 
  94   2.0000      -0.293323        -7.9817 
  95   2.0000      -0.232133        -6.3167 
  96   2.0000      -0.197650        -5.3783 
  97   0.0000      -0.077178        -2.1001 
  98   0.0000      -0.012941        -0.3521 
  99   0.0000       0.022685         0.6173 
 100   0.0000       0.053967         1.4685 
 101   0.0000       0.057200         1.5565 
 102   0.0000       0.063711         1.7337 
 103   0.0000       0.068623         1.8673 
 104   0.0000       0.075754         2.0614 
 105   0.0000       0.078652         2.1402 
 106   0.0000       0.086214         2.3460 
 107   0.0000       0.095943         2.6107 
*Only the first 10 virtual orbitals were printed.

                    ********************************
                    * MULLIKEN POPULATION ANALYSIS *
                    ********************************

-----------------------
MULLIKEN ATOMIC CHARGES
-----------------------
   0 N :   -0.342362
   1 N :   -0.347024
   2 N :   -0.419837
   3 N :   -0.439976
   4 C :   -0.303974
   5 C :   -0.311679
   6 C :   -0.310300
   7 C :   -0.310233
   8 C :    0.138536
   9 C :    0.159054
  10 C :    0.155187
  11 C :    0.169710
  12 C :    0.174017
  13 C :    0.199821
  14 C :    0.193857
  15 C :    0.208358
  16 C :   -0.277590
  17 C :   -0.289440
  18 C :   -0.278895
  19 C :   -0.296987
  20 C :   -0.247369
  21 C :   -0.253861
  22 C :   -0.258333
  23 C :   -0.255333
  24 H :    0.169501
  25 H :    0.162039
  26 H :    0.168255
  27 H :    0.163325
  28 H :    0.163552
  29 H :    0.167662
  30 H :    0.162845
  31 H :    0.168265
  32 H :    0.175339
  33 H :    0.175399
  34 H :    0.175588
  35 H :    0.174760
  36 H :    0.171264
  37 H :    0.171576
  38 H :    0.171321
  39 H :    0.171217
  40 Mg:    0.684676
  41 O :   -0.495727
  42 C :   -0.265213
  43 H :    0.169389
  44 H :    0.166613
  45 H :    0.177113
  46 H :    0.395893
Sum of atomic charges:   -0.0000000

--------------------------------
MULLIKEN REDUCED ORBITAL CHARGES
--------------------------------
  0 N s       :     3.659623  s :     3.659623
      pz      :     1.250761  p :     3.624996
      px      :     1.351370
      py      :     1.022865
      dz2     :     0.003834  d :     0.054232
      dxz     :     0.006937
      dyz     :     0.015196
      dx2y2   :     0.013318
      dxy     :     0.014946
      f0      :     0.000656  f :     0.003511
      f+1     :     0.000278
      f-1     :     0.000447
      f+2     :     0.000117
      f-2     :     0.000501
      f+3     :     0.000627
      f-3     :     0.000883

  1 N s       :     3.662887  s :     3.662887
      pz      :     1.258769  p :     3.626514
      px      :     1.342543
      py      :     1.025203
      dz2     :     0.003841  d :     0.054121
      dxz     :     0.006665
      dyz     :     0.015383
      dx2y2   :     0.013456
      dxy     :     0.014776
      f0      :     0.000649  f :     0.003501
      f+1     :     0.000282
      f-1     :     0.000442
      f+2     :     0.000118
      f-2     :     0.000495
      f+3     :     0.000625
      f-3     :     0.000892

  2 N s       :     3.678554  s :     3.678554
      pz      :     1.377976  p :     3.687098
      px      :     1.021972
      py      :     1.287150
      dz2     :     0.004312  d :     0.050634
      dxz     :     0.013073
      dyz     :     0.005937
      dx2y2   :     0.013273
      dxy     :     0.014038
      f0      :     0.000702  f :     0.003550
      f+1     :     0.000497
      f-1     :     0.000351
      f+2     :     0.000089
      f-2     :     0.000552
      f+3     :     0.000766
      f-3     :     0.000593

  3 N s       :     3.682636  s :     3.682636
      pz      :     1.382402  p :     3.703096
      px      :     1.024196
      py      :     1.296498
      dz2     :     0.004228  d :     0.050707
      dxz     :     0.013297
      dyz     :     0.005904
      dx2y2   :     0.013128
      dxy     :     0.014149
      f0      :     0.000695  f :     0.003537
      f+1     :     0.000489
      f-1     :     0.000350
      f+2     :     0.000086
      f-2     :     0.000553
      f+3     :     0.000767
      f-3     :     0.000596

  4 C s       :     3.291943  s :     3.291943
      pz      :     1.085595  p :     2.932124
      px      :     0.917066
      py      :     0.929463
      dz2     :     0.006052  d :     0.074790
      dxz     :     0.015295
      dyz     :     0.015690
      dx2y2   :     0.016053
      dxy     :     0.021699
      f0      :     0.000610  f :     0.005117
      f+1     :     0.000617
      f-1     :     0.000533
      f+2     :     0.000704
      f-2     :     0.000519
      f+3     :     0.001318
      f-3     :     0.000817

  5 C s       :     3.292211  s :     3.292211
      pz      :     1.090537  p :     2.939577
      px      :     0.919718
      py      :     0.929321
      dz2     :     0.006093  d :     0.074775
      dxz     :     0.014311
      dyz     :     0.016371
      dx2y2   :     0.016452
      dxy     :     0.021549
      f0      :     0.000635  f :     0.005116
      f+1     :     0.000586
      f-1     :     0.000539
      f+2     :     0.000722
      f-2     :     0.000502
      f+3     :     0.001288
      f-3     :     0.000843

  6 C s       :     3.291577  s :     3.291577
      pz      :     1.091001  p :     2.938879
      px      :     0.917959
      py      :     0.929919
      dz2     :     0.005802  d :     0.074722
      dxz     :     0.015342
      dyz     :     0.015680
      dx2y2   :     0.016379
      dxy     :     0.021519
      f0      :     0.000554  f :     0.005121
      f+1     :     0.000652
      f-1     :     0.000570
      f+2     :     0.000704
      f-2     :     0.000501
      f+3     :     0.001320
      f-3     :     0.000821

  7 C s       :     3.292279  s :     3.292279
      pz      :     1.090581  p :     2.938071
      px      :     0.919745
      py      :     0.927746
      dz2     :     0.004748  d :     0.074765
      dxz     :     0.015733
      dyz     :     0.016480
      dx2y2   :     0.016309
      dxy     :     0.021495
      f0      :     0.000493  f :     0.005119
      f+1     :     0.000709
      f-1     :     0.000587
      f+2     :     0.000717
      f-2     :     0.000471
      f+3     :     0.001343
      f-3     :     0.000798

  8 C s       :     3.163990  s :     3.163990
      pz      :     0.910459  p :     2.560706
      px      :     0.829292
      py      :     0.820955
      dz2     :     0.002399  d :     0.124252
      dxz     :     0.019816
      dyz     :     0.040195
      dx2y2   :     0.028667
      dxy     :     0.033175
      f0      :     0.001809  f :     0.012516
      f+1     :     0.001002
      f-1     :     0.001134
      f+2     :     0.001052
      f-2     :     0.001360
      f+3     :     0.001964
      f-3     :     0.004196

  9 C s       :     3.154477  s :     3.154477
      pz      :     0.900397  p :     2.547548
      px      :     0.828578
      py      :     0.818573
      dz2     :     0.002802  d :     0.126394
      dxz     :     0.019913
      dyz     :     0.040784
      dx2y2   :     0.028301
      dxy     :     0.034595
      f0      :     0.001772  f :     0.012527
      f+1     :     0.001019
      f-1     :     0.001148
      f+2     :     0.001091
      f-2     :     0.001354
      f+3     :     0.001816
      f-3     :     0.004327

 10 C s       :     3.158056  s :     3.158056
      pz      :     0.903164  p :     2.549585
      px      :     0.827349
      py      :     0.819071
      dz2     :     0.001741  d :     0.124710
      dxz     :     0.019929
      dyz     :     0.040627
      dx2y2   :     0.028417
      dxy     :     0.033995
      f0      :     0.001793  f :     0.012462
      f+1     :     0.000982
      f-1     :     0.001146
      f+2     :     0.001082
      f-2     :     0.001321
      f+3     :     0.001820
      f-3     :     0.004319

 11 C s       :     3.150881  s :     3.150881
      pz      :     0.905144  p :     2.540595
      px      :     0.813001
      py      :     0.822450
      dz2     :     0.001388  d :     0.126290
      dxz     :     0.020594
      dyz     :     0.040751
      dx2y2   :     0.029628
      dxy     :     0.033930
      f0      :     0.001807  f :     0.012523
      f+1     :     0.000985
      f-1     :     0.001134
      f+2     :     0.001077
      f-2     :     0.001368
      f+3     :     0.001948
      f-3     :     0.004204

 12 C s       :     3.147176  s :     3.147176
      pz      :     0.930553  p :     2.546131
      px      :     0.788280
      py      :     0.827298
      dz2     :     0.002967  d :     0.119791
      dxz     :     0.037244
      dyz     :     0.028950
      dx2y2   :     0.023491
      dxy     :     0.027138
      f0      :     0.001981  f :     0.012884
      f+1     :     0.001267
      f-1     :     0.000986
      f+2     :     0.000733
      f-2     :     0.001851
      f+3     :     0.004000
      f-3     :     0.002067

 13 C s       :     3.144159  s :     3.144159
      pz      :     0.921775  p :     2.522538
      px      :     0.789095
      py      :     0.811669
      dz2     :     0.003376  d :     0.120642
      dxz     :     0.037195
      dyz     :     0.029000
      dx2y2   :     0.023708
      dxy     :     0.027363
      f0      :     0.001920  f :     0.012840
      f+1     :     0.001287
      f-1     :     0.000990
      f+2     :     0.000708
      f-2     :     0.001881
      f+3     :     0.003832
      f-3     :     0.002223

 14 C s       :     3.141545  s :     3.141545
      pz      :     0.928873  p :     2.532843
      px      :     0.785229
      py      :     0.818741
      dz2     :     0.002718  d :     0.118952
      dxz     :     0.037542
      dyz     :     0.028682
      dx2y2   :     0.022980
      dxy     :     0.027030
      f0      :     0.001949  f :     0.012803
      f+1     :     0.001241
      f-1     :     0.000989
      f+2     :     0.000677
      f-2     :     0.001880
      f+3     :     0.003857
      f-3     :     0.002210

 15 C s       :     3.137688  s :     3.137688
      pz      :     0.923141  p :     2.521181
      px      :     0.787114
      py      :     0.810926
      dz2     :     0.002925  d :     0.119965
      dxz     :     0.037612
      dyz     :     0.028559
      dx2y2   :     0.023129
      dxy     :     0.027740
      f0      :     0.001927  f :     0.012808
      f+1     :     0.001279
      f-1     :     0.000985
      f+2     :     0.000740
      f-2     :     0.001820
      f+3     :     0.003989
      f-3     :     0.002068

 16 C s       :     3.175188  s :     3.175188
      pz      :     1.063162  p :     3.040778
      px      :     0.984852
      py      :     0.992765
      dz2     :     0.003636  d :     0.054913
      dxz     :     0.013572
      dyz     :     0.015073
      dx2y2   :     0.009538
      dxy     :     0.013094
      f0      :     0.001281  f :     0.006710
      f+1     :     0.000815
      f-1     :     0.000771
      f+2     :     0.000660
      f-2     :     0.000439
      f+3     :     0.001319
      f-3     :     0.001424

 17 C s       :     3.169913  s :     3.169913
      pz      :     1.069101  p :     3.057153
      px      :     0.985219
      py      :     1.002833
      dz2     :     0.004054  d :     0.055695
      dxz     :     0.013929
      dyz     :     0.014780
      dx2y2   :     0.009866
      dxy     :     0.013066
      f0      :     0.001248  f :     0.006680
      f+1     :     0.000836
      f-1     :     0.000772
      f+2     :     0.000657
      f-2     :     0.000444
      f+3     :     0.001268
      f-3     :     0.001456

 18 C s       :     3.165899  s :     3.165899
      pz      :     1.069709  p :     3.050410
      px      :     0.980833
      py      :     0.999868
      dz2     :     0.003851  d :     0.055908
      dxz     :     0.014299
      dyz     :     0.014804
      dx2y2   :     0.009780
      dxy     :     0.013174
      f0      :     0.001256  f :     0.006679
      f+1     :     0.000822
      f-1     :     0.000785
      f+2     :     0.000656
      f-2     :     0.000423
      f+3     :     0.001270
      f-3     :     0.001468

 19 C s       :     3.177049  s :     3.177049
      pz      :     1.070529  p :     3.057266
      px      :     0.988314
      py      :     0.998422
      dz2     :     0.003749  d :     0.055998
      dxz     :     0.013825
      dyz     :     0.015464
      dx2y2   :     0.009957
      dxy     :     0.013003
      f0      :     0.001266  f :     0.006675
      f+1     :     0.000818
      f-1     :     0.000774
      f+2     :     0.000655
      f-2     :     0.000425
      f+3     :     0.001315
      f-3     :     0.001423

 20 C s       :     3.242639  s :     3.242639
      pz      :     1.019931  p :     2.931775
      px      :     0.963502
      py      :     0.948342
      dz2     :     0.005473  d :     0.066011
      dxz     :     0.019082
      dyz     :     0.009936
      dx2y2   :     0.012547
      dxy     :     0.018973
      f0      :     0.001255  f :     0.006944
      f+1     :     0.000733
      f-1     :     0.000868
      f+2     :     0.000987
      f-2     :     0.000198
      f+3     :     0.001032
      f-3     :     0.001871

 21 C s       :     3.242137  s :     3.242137
      pz      :     1.019536  p :     2.938477
      px      :     0.962912
      py      :     0.956029
      dz2     :     0.005446  d :     0.066295
      dxz     :     0.019446
      dyz     :     0.009997
      dx2y2   :     0.012227
      dxy     :     0.019179
      f0      :     0.001258  f :     0.006952
      f+1     :     0.000722
      f-1     :     0.000875
      f+2     :     0.000961
      f-2     :     0.000238
      f+3     :     0.001010
      f-3     :     0.001888

 22 C s       :     3.244015  s :     3.244015
      pz      :     1.022724  p :     2.940747
      px      :     0.961968
      py      :     0.956055
      dz2     :     0.005474  d :     0.066611
      dxz     :     0.019593
      dyz     :     0.009884
      dx2y2   :     0.012259
      dxy     :     0.019402
      f0      :     0.001267  f :     0.006960
      f+1     :     0.000696
      f-1     :     0.000895
      f+2     :     0.000979
      f-2     :     0.000217
      f+3     :     0.001014
      f-3     :     0.001891

 23 C s       :     3.242217  s :     3.242217
      pz      :     1.021860  p :     2.939601
      px      :     0.964222
      py      :     0.953519
      dz2     :     0.005224  d :     0.066557
      dxz     :     0.019485
      dyz     :     0.010295
      dx2y2   :     0.012573
      dxy     :     0.018979
      f0      :     0.001279  f :     0.006958
      f+1     :     0.000700
      f-1     :     0.000868
      f+2     :     0.001013
      f-2     :     0.000200
      f+3     :     0.001022
      f-3     :     0.001876

 24 H s       :     0.811063  s :     0.811063
      pz      :     0.007140  p :     0.019436
      px      :     0.006484
      py      :     0.005812

 25 H s       :     0.818481  s :     0.818481
      pz      :     0.010447  p :     0.019480
      px      :     0.004913
      py      :     0.004121

 26 H s       :     0.812305  s :     0.812305
      pz      :     0.007053  p :     0.019440
      px      :     0.006712
      py      :     0.005675

 27 H s       :     0.817154  s :     0.817154
      pz      :     0.010593  p :     0.019520
      px      :     0.004567
      py      :     0.004360

 28 H s       :     0.816925  s :     0.816925
      pz      :     0.010185  p :     0.019523
      px      :     0.005182
      py      :     0.004156

 29 H s       :     0.812900  s :     0.812900
      pz      :     0.007425  p :     0.019438
      px      :     0.006063
      py      :     0.005950

 30 H s       :     0.817649  s :     0.817649
      pz      :     0.009582  p :     0.019506
      px      :     0.005614
      py      :     0.004311

 31 H s       :     0.812295  s :     0.812295
      pz      :     0.008123  p :     0.019441
      px      :     0.005768
      py      :     0.005550

 32 H s       :     0.804147  s :     0.804147
      pz      :     0.004682  p :     0.020514
      px      :     0.007877
      py      :     0.007956

 33 H s       :     0.804100  s :     0.804100
      pz      :     0.004674  p :     0.020500
      px      :     0.007623
      py      :     0.008203

 34 H s       :     0.803920  s :     0.803920
      pz      :     0.004645  p :     0.020492
      px      :     0.007684
      py      :     0.008163

 35 H s       :     0.804751  s :     0.804751
      pz      :     0.004664  p :     0.020490
      px      :     0.007883
      py      :     0.007942

 36 H s       :     0.808536  s :     0.808536
      pz      :     0.004151  p :     0.020200
      px      :     0.006763
      py      :     0.009285

 37 H s       :     0.808230  s :     0.808230
      pz      :     0.004157  p :     0.020194
      px      :     0.006535
      py      :     0.009501

 38 H s       :     0.808493  s :     0.808493
      pz      :     0.004154  p :     0.020186
      px      :     0.006562
      py      :     0.009470

 39 H s       :     0.808598  s :     0.808598
      pz      :     0.004199  p :     0.020186
      px      :     0.006731
      py      :     0.009256

 40 Mgs       :     4.513288  s :     4.513288
      pz      :     2.150942  p :     6.510079
      px      :     2.162104
      py      :     2.197032
      dz2     :     0.038181  d :     0.291958
      dxz     :     0.033781
      dyz     :     0.050529
      dx2y2   :     0.137931
      dxy     :     0.031535

 41 O s       :     3.770003  s :     3.770003
      pz      :     1.631480  p :     4.699862
      px      :     1.755802
      py      :     1.312580
      dz2     :     0.004519  d :     0.024307
      dxz     :     0.004306
      dyz     :     0.004719
      dx2y2   :     0.006281
      dxy     :     0.004482
      f0      :     0.000167  f :     0.001554
      f+1     :     0.000123
      f-1     :     0.000164
      f+2     :     0.000230
      f-2     :     0.000256
      f+3     :     0.000262
      f-3     :     0.000352

 42 C s       :     3.281529  s :     3.281529
      pz      :     0.972976  p :     2.884511
      px      :     0.991801
      py      :     0.919734
      dz2     :     0.029423  d :     0.091851
      dxz     :     0.009852
      dyz     :     0.012136
      dx2y2   :     0.028103
      dxy     :     0.012337
      f0      :     0.000755  f :     0.007322
      f+1     :     0.001049
      f-1     :     0.001267
      f+2     :     0.001366
      f-2     :     0.000973
      f+3     :     0.000806
      f-3     :     0.001108

 43 H s       :     0.812305  s :     0.812305
      pz      :     0.011617  p :     0.018306
      px      :     0.003776
      py      :     0.002913

 44 H s       :     0.815163  s :     0.815163
      pz      :     0.002977  p :     0.018225
      px      :     0.012265
      py      :     0.002982

 45 H s       :     0.803786  s :     0.803786
      pz      :     0.003914  p :     0.019102
      px      :     0.003696
      py      :     0.011492

 46 H s       :     0.558663  s :     0.558663
      pz      :     0.012124  p :     0.045444
      px      :     0.013263
      py      :     0.020057



                     *******************************
                     * LOEWDIN POPULATION ANALYSIS *
                     *******************************

----------------------
LOEWDIN ATOMIC CHARGES
----------------------
   0 N :    0.209877
   1 N :    0.209130
   2 N :    0.166550
   3 N :    0.161417
   4 C :   -0.197350
   5 C :   -0.196739
   6 C :   -0.197220
   7 C :   -0.196804
   8 C :   -0.209408
   9 C :   -0.205546
  10 C :   -0.208239
  11 C :   -0.206225
  12 C :   -0.223953
  13 C :   -0.220644
  14 C :   -0.223126
  15 C :   -0.222275
  16 C :   -0.132364
  17 C :   -0.130623
  18 C :   -0.132061
  19 C :   -0.131385
  20 C :   -0.136642
  21 C :   -0.136000
  22 C :   -0.138475
  23 C :   -0.137994
  24 H :    0.147850
  25 H :    0.150281
  26 H :    0.147830
  27 H :    0.150936
  28 H :    0.150880
  29 H :    0.147363
  30 H :    0.150710
  31 H :    0.147760
  32 H :    0.165024
  33 H :    0.165159
  34 H :    0.164912
  35 H :    0.165016
  36 H :    0.145337
  37 H :    0.145338
  38 H :    0.145037
  39 H :    0.145067
  40 Mg:    0.086716
  41 O :    0.046601
  42 C :   -0.310917
  43 H :    0.114053
  44 H :    0.118294
  45 H :    0.130186
  46 H :    0.216663

-------------------------------
LOEWDIN REDUCED ORBITAL CHARGES
-------------------------------
  0 N s       :     2.976034  s :     2.976034
      pz      :     1.100892  p :     3.582559
      px      :     1.357305
      py      :     1.124361
      dz2     :     0.016159  d :     0.212872
      dxz     :     0.010091
      dyz     :     0.050009
      dx2y2   :     0.063457
      dxy     :     0.073156
      f0      :     0.001095  f :     0.018658
      f+1     :     0.000771
      f-1     :     0.001802
      f+2     :     0.000341
      f-2     :     0.003425
      f+3     :     0.003762
      f-3     :     0.007462

  1 N s       :     2.975424  s :     2.975424
      pz      :     1.104927  p :     3.583516
      px      :     1.353344
      py      :     1.125245
      dz2     :     0.016040  d :     0.213219
      dxz     :     0.009968
      dyz     :     0.050340
      dx2y2   :     0.063732
      dxy     :     0.073138
      f0      :     0.001096  f :     0.018711
      f+1     :     0.000750
      f-1     :     0.001830
      f+2     :     0.000345
      f-2     :     0.003486
      f+3     :     0.003733
      f-3     :     0.007471

  2 N s       :     2.972066  s :     2.972066
      pz      :     1.205234  p :     3.642828
      px      :     1.107202
      py      :     1.330391
[...]
  0-1A  ->  1-1A    1.745659   14079.7   710.2   0.471165121   0.04534   0.00158   0.21286  -0.00524
  0-1A  ->  2-1A    2.458571   19829.7   504.3   0.135778040   0.01840  -0.13536   0.00139   0.00883
  0-1A  ->  3-1A    3.584588   28911.7   345.9   1.257180502   0.24841   0.49741  -0.00374  -0.03139
  0-1A  ->  4-1A    3.798580   30637.6   326.4   0.000206006   0.00004   0.00549  -0.00013  -0.00360
  0-1A  ->  5-1A    4.063089   32771.0   305.1   0.106864210   0.02393   0.15321  -0.01963  -0.00865
  0-1A  ->  6-1A    4.107461   33128.9   301.9   1.087563064   0.24625   0.01053   0.49595  -0.01306
  0-1A  ->  7-1A    4.162778   33575.1   297.8   0.001040140   0.00024   0.00499   0.01462   0.00003
  0-1A  ->  8-1A    4.556261   36748.7   272.1   0.000314665   0.00008   0.00040   0.00130   0.00879
  0-1A  ->  9-1A    4.657649   37566.5   266.2   0.002653927   0.00068   0.01187  -0.02324  -0.00058
  0-1A  -> 10-1A    4.922206   39700.3   251.9   0.000069189   0.00002   0.00251  -0.00061   0.00348
  0-1A  -> 11-1A    4.987251   40224.9   248.6   0.000769793   0.00021  -0.00021   0.00931  -0.01117
  0-1A  -> 12-1A    5.024149   40522.5   246.8   0.000805903   0.00022  -0.00338   0.00620  -0.01317
  0-1A  -> 13-1A    5.100507   41138.4   243.1   0.000056989   0.00002  -0.00195   0.00338   0.00089
  0-1A  -> 14-1A    5.291243   42676.8   234.3   0.000254599   0.00007   0.00070   0.00604   0.00611
  0-1A  -> 15-1A    5.309493   42824.0   233.5   0.001603255   0.00047  -0.00245  -0.00058  -0.02152
  0-1A  -> 16-1A    5.359014   43223.4   231.4   0.000170228   0.00005  -0.00105   0.00697   0.00077
  0-1A  -> 17-1A    5.508304   44427.5   225.1   0.000054486   0.00002  -0.00166  -0.00365   0.00069
  0-1A  -> 18-1A    5.557529   44824.5   223.1   0.111371112   0.03412  -0.00208  -0.18463   0.00505
  0-1A  -> 19-1A    5.666949   45707.0   218.8   0.000949099   0.00030   0.00202   0.00873  -0.01471
  0-1A  -> 20-1A    5.690080   45893.6   217.9   0.000593793   0.00019  -0.00701   0.01011   0.00591
  0-1A  -> 21-1A    5.836655   47075.8   212.4   0.000576525   0.00019   0.00178   0.00561   0.01228
  0-1A  -> 22-1A    5.903127   47611.9   210.0   0.000781332   0.00025  -0.00077  -0.00567  -0.01488
  0-1A  -> 23-1A    5.925358   47791.2   209.2   0.037206186   0.01215  -0.00328   0.11011  -0.00415
  0-1A  -> 24-1A    5.966452   48122.7   207.8   0.339136988   0.11154   0.00207   0.33388  -0.00794
  0-1A  -> 25-1A    6.029353   48630.0   205.6   0.002411135   0.00080  -0.00144   0.02827   0.00044
  0-1A  -> 26-1A    6.139210   49516.1   202.0   0.000455282   0.00015  -0.00449  -0.00613  -0.00981
  0-1A  -> 27-1A    6.202178   50023.9   199.9   0.000915606   0.00031   0.00847   0.01386   0.00702
  0-1A  -> 28-1A    6.234086   50281.3   198.9   0.010674963   0.00367  -0.00903  -0.05980   0.00327
  0-1A  -> 29-1A    6.331497   51067.0   195.8   0.001474198   0.00051   0.01271  -0.01343  -0.01313
  0-1A  -> 30-1A    6.355774   51262.8   195.1   0.017645202   0.00618  -0.07752   0.00787   0.01054

------------------------------------------------------------------------------------------
                     CD SPECTRUM VIA TRANSITION ELECTRIC DIPOLE MOMENTS    
------------------------------------------------------------------------------------------
     Transition      Energy     Energy  Wavelength    R        MX        MY        MZ   
                      (eV)      (cm-1)    (nm)   (1e40*cgs)   (au)      (au)      (au)  
------------------------------------------------------------------------------------------
  0-1A  ->  1-1A    1.745659   14079.7   710.2   13.48731   0.05648   0.00860   0.00278
  0-1A  ->  2-1A    2.458571   19829.7   504.3    5.91363  -0.00937   0.04324  -0.01771
  0-1A  ->  3-1A    3.584588   28911.7   345.9   46.87421   0.02480  -0.14523  -0.02174
  0-1A  ->  4-1A    3.798580   30637.6   326.4    1.14963  -0.00759  -0.00534  -0.11575
  0-1A  ->  5-1A    4.063089   32771.0   305.1    8.36129   0.00734  -0.08185  -0.00244
  0-1A  ->  6-1A    4.107461   33128.9   301.9   -2.66270   0.16101  -0.00476   0.01766
  0-1A  ->  7-1A    4.162778   33575.1   297.8   -0.27774  -0.00625  -0.00179  -0.12124
  0-1A  ->  8-1A    4.556261   36748.7   272.1  -26.78062  -0.07395  -0.02767  -1.19029
  0-1A  ->  9-1A    4.657649   37566.5   266.2  -21.82147  -0.00321   0.35711  -0.01569
  0-1A  -> 10-1A    4.922206   39700.3   251.9   -0.25577   0.00780   0.00550  -0.03132
  0-1A  -> 11-1A    4.987251   40224.9   248.6    2.29472  -0.03849   0.01160  -0.08519
  0-1A  -> 12-1A    5.024149   40522.5   246.8  -31.44543   0.05337   0.02694   0.96645
  0-1A  -> 13-1A    5.100507   41138.4   243.1   -0.11421  -0.00547  -0.00628  -0.04013
  0-1A  -> 14-1A    5.291243   42676.8   234.3   -4.55091  -0.06652  -0.00359  -0.43885
  0-1A  -> 15-1A    5.309493   42824.0   233.5    7.60419  -0.02718  -0.00230  -0.17142
  0-1A  -> 16-1A    5.359014   43223.4   231.4    0.02149   0.06037   0.02639  -0.20626
  0-1A  -> 17-1A    5.508304   44427.5   225.1   -0.01990  -0.00048   0.00175  -0.00654
  0-1A  -> 18-1A    5.557529   44824.5   223.1   -8.99442  -0.05420   0.02202  -0.00670
  0-1A  -> 19-1A    5.666949   45707.0   218.8   -0.00174  -0.01075   0.01170   0.00513
  0-1A  -> 20-1A    5.690080   45893.6   217.9    3.03740  -0.01124   0.13594   0.03241
  0-1A  -> 21-1A    5.836655   47075.8   212.4   -0.42138   0.08741   0.01115  -0.03247
  0-1A  -> 22-1A    5.903127   47611.9   210.0    7.06158  -0.00883  -0.00141  -0.22494
  0-1A  -> 23-1A    5.925358   47791.2   209.2    2.53559  -0.02486   0.01072   0.01220
  0-1A  -> 24-1A    5.966452   48122.7   207.8   -5.27317   0.02351  -0.00742   0.01226
  0-1A  -> 25-1A    6.029353   48630.0   205.6    3.02181  -0.01272   0.05297   0.00277
  0-1A  -> 26-1A    6.139210   49516.1   202.0    2.41304  -0.10744  -0.11821   0.00393
  0-1A  -> 27-1A    6.202178   50023.9   199.9    8.67079  -0.07021   0.36132  -0.01865
  0-1A  -> 28-1A    6.234086   50281.3   198.9    5.88885  -0.30307  -0.00510   0.01756
  0-1A  -> 29-1A    6.331497   51067.0   195.8    5.91345   0.23656   0.00501  -0.00758
  0-1A  -> 30-1A    6.355774   51262.8   195.1   12.95951  -0.08349   0.04166   0.01557

------------------------------------------------------------------------------------------
                     CD SPECTRUM VIA TRANSITION VELOCITY DIPOLE MOMENTS    
------------------------------------------------------------------------------------------
     Transition      Energy     Energy  Wavelength    R        MX        MY        MZ   
                      (eV)      (cm-1)    (nm)   (1e40*cgs)   (au)      (au)      (au)  
------------------------------------------------------------------------------------------
  0-1A  ->  1-1A    1.745659   14079.7   710.2   14.00687   0.05648   0.00860   0.00278
  0-1A  ->  2-1A    2.458571   19829.7   504.3    6.11403  -0.00937   0.04324  -0.01771
  0-1A  ->  3-1A    3.584588   28911.7   345.9   48.53477   0.02480  -0.14523  -0.02174
  0-1A  ->  4-1A    3.798580   30637.6   326.4    1.26705  -0.00759  -0.00534  -0.11575
  0-1A  ->  5-1A    4.063089   32771.0   305.1    8.68985   0.00734  -0.08185  -0.00244
  0-1A  ->  6-1A    4.107461   33128.9   301.9   -2.78984   0.16101  -0.00476   0.01766
  0-1A  ->  7-1A    4.162778   33575.1   297.8   -0.18636  -0.00625  -0.00179  -0.12124
  0-1A  ->  8-1A    4.556261   36748.7   272.1  -29.62747  -0.07395  -0.02767  -1.19029
  0-1A  ->  9-1A    4.657649   37566.5   266.2  -22.94227  -0.00321   0.35711  -0.01569
  0-1A  -> 10-1A    4.922206   39700.3   251.9   -0.24154   0.00780   0.00550  -0.03132
  0-1A  -> 11-1A    4.987251   40224.9   248.6    2.74725  -0.03849   0.01160  -0.08519
  0-1A  -> 12-1A    5.024149   40522.5   246.8  -32.52724   0.05337   0.02694   0.96645
  0-1A  -> 13-1A    5.100507   41138.4   243.1   -0.11630  -0.00547  -0.00628  -0.04013
  0-1A  -> 14-1A    5.291243   42676.8   234.3   -6.66479  -0.06652  -0.00359  -0.43885
  0-1A  -> 15-1A    5.309493   42824.0   233.5    9.07512  -0.02718  -0.00230  -0.17142
  0-1A  -> 16-1A    5.359014   43223.4   231.4   -0.09350   0.06037   0.02639  -0.20626
  0-1A  -> 17-1A    5.508304   44427.5   225.1   -0.02364  -0.00048   0.00175  -0.00654
  0-1A  -> 18-1A    5.557529   44824.5   223.1   -9.20416  -0.05420   0.02202  -0.00670
  0-1A  -> 19-1A    5.666949   45707.0   218.8    0.01126  -0.01075   0.01170   0.00513
  0-1A  -> 20-1A    5.690080   45893.6   217.9    3.70835  -0.01124   0.13594   0.03241
  0-1A  -> 21-1A    5.836655   47075.8   212.4   -0.39816   0.08741   0.01115  -0.03247
  0-1A  -> 22-1A    5.903127   47611.9   210.0    7.30795  -0.00883  -0.00141  -0.22494
  0-1A  -> 23-1A    5.925358   47791.2   209.2    2.62369  -0.02486   0.01072   0.01220
  0-1A  -> 24-1A    5.966452   48122.7   207.8   -5.43475   0.02351  -0.00742   0.01226
  0-1A  -> 25-1A    6.029353   48630.0   205.6    3.22775  -0.01272   0.05297   0.00277
  0-1A  -> 26-1A    6.139210   49516.1   202.0    2.44203  -0.10744  -0.11821   0.00393
  0-1A  -> 27-1A    6.202178   50023.9   199.9    8.85431  -0.07021   0.36132  -0.01865
  0-1A  -> 28-1A    6.234086   50281.3   198.9    6.37588  -0.30307  -0.00510   0.01756
  0-1A  -> 29-1A    6.331497   51067.0   195.8    6.15964   0.23656   0.00501  -0.00758
  0-1A  -> 30-1A    6.355774   51262.8   195.1   14.05654  -0.08349   0.04166   0.01557

Total run time:    13944.062 sec

           *** ORCA-CIS/TD-DFT FINISHED WITHOUT ERROR ***
-----------------------
CIS/TD-DFT TOTAL ENERGY
-----------------------

    E(SCF)  =  -1306.697066903 Eh
    DE(CIS) =      0.064151775 Eh (Root  1)
    ----------------------------- ---------
    E(tot)  =  -1306.632915128 Eh


Maximum memory used throughout the entire CIS-calculation: 2679.6 MB
=> NOW LEAVING ORCA_CIS

-------------------------   --------------------
FINAL SINGLE POINT ENERGY     -1306.632915127585
-------------------------   --------------------



           ************************************************************
           *        Program running with 4 parallel MPI-processes     *
           *              working on a common directory               *
           ************************************************************

------------------------------------------------------------------------------
                              ORCA PROPERTY CALCULATIONS
------------------------------------------------------------------------------

GBWName                                 ... tddft.gbw
Number of atoms                         ...     47
Number of basis functions               ...    958
Max core memory                         ...   3000 MB

Electric properties:
Dipole moment                           ... YES
Quadrupole moment                       ...  NO
Static polarizability (Dipole/Dipole)   ...  NO
Static polarizability (Dipole/Quad.)    ...  NO
Static polarizability (Quad./Quad.)     ...  NO
Static polarizability (Velocity)        ...  NO
Static hyperpolarizability              ...  NO

Atomic electric properties:
Dipole moment                           ...  NO
Quadrupole moment                       ...  NO
Static polarizability                   ...  NO

Choice of electric origin               ... Center of mass
Position of electric origin             ...     0.080723     0.037241     0.572833

General magnetic properties:
Magnetizability                         ...  NO

EPR properties:
g-Tensor (aka g-matrix)                 ...  NO
Zero-Field splitting spin-orbit         ...  NO
Zero-field splitting spin-spin          ...  NO
Hyperfine couplings                     ...  NO (   0 nuclei)
Quadrupole couplings                    ...  NO (   0 nuclei)
Contact density                         ...  NO (   0 nuclei)

NMR properties:
Chemical shifts                         ...  NO (   0 nuclei)
Spin-rotation constants                 ...  NO (   0 nuclei)
Spin-spin couplings                     ...  NO (   0 nuclei,    0 pairs)

Choice of magnetic origin               ... GIAO
Position of magnetic origin             ...     0.000000     0.000000     0.000000

Properties with geometric perturbations:
SCF Hessian                             ...  NO
IR spectrum                             ...  NO
VCD spectrum                            ...  NO
X-ray spectroscopy properties:
SCF XES/XAS/RIXS spectra                ...  NO

SCF SOC stabilization energy            ...  NO
Diagonal Born-Oppenheimer correction    ...  NO

-------------
DIPOLE MOMENT
-------------

Method             : SCF
Type of density    : Electron Density
Multiplicity       :   1
Irrep              :   0
Energy             : -1306.6970669026029555 Eh
Basis              : AO
                                X                 Y                 Z
Electronic contribution:      1.589650523       1.472238912      -5.186585919
Nuclear contribution   :     -2.062435013      -1.335381725       6.629363071
                        -----------------------------------------
Total Dipole Moment    :     -0.472784490       0.136857187       1.442777152
                        -----------------------------------------
Magnitude (a.u.)       :      1.524421521
Magnitude (Debye)      :      3.874771574



--------------------
Rotational spectrum 
--------------------
 
Rotational constants in cm-1:             0.007897             0.007332             0.004249 
Rotational constants in MHz :           236.759888           219.807638           127.395342 

Dipole components along the rotational axes: 
x,y,z [a.u.] :    -0.582629    -0.117594     1.403772 
x,y,z [Debye]:    -1.480925    -0.298899     3.568105 

 

Dipole moment calculation done in   0.1 sec 

Maximum memory used throughout the entire PROP-calculation: 109.7 MB

--------------------------------
SUGGESTED CITATIONS FOR THIS RUN
--------------------------------

Below you find a list of papers that are relevant to this ORCA run
We neither can nor want to force you to cite these papers, but we appreciate if you do
You receive ORCA, which is the product of decades of hard work by many enthusiastic individuals, for free
The only thing we kindly ask in return is that you cite our papers,
We deeply appreciate it, if you show your appreciation for ORCA by not just citing the generic ORCA reference.

Please note that relegating all ORCA citations to the supporting information does *not* help us.
SI sections are not indexed - citations you put there will not count into any citation statistics
But we need these citations in order to attract the funding resources that allow us to do what we are doing

Therefore, if you are a happy ORCA user, please consider citing a few of the papers listed below in the main body of your paper

In addition to the list printed below, the program has created the file tddft.bibtex that contains the list in bibtex format
You can import this file easily into all common literature databanks and citation aid programs

It goes without saying that in many instances, there are alternative algorithms to achieve similar
results as the ones you have gotten from ORCA. It is, of course, also the case that in some instances
ORCA just re-implements algorithms worked out by others. We are fully aware of that and we are also
fully appreciative of our colleagues work. Hence this citation list should not be read as indicating
that the listed papers, which are focused on our own work, are the only ones worth citing. It simply
meant to make it easier for users to cite ORCA specific papers. It is not a substitute for doing your
own literature research and citing the relevant literature in a scientifically appropriate manner.

List of essential papers. We consider these as the minimum necessary citations

  1. Neese, F.
     Software update: the ORCA program system, version 6.0
     WIRES Comput. Molec. Sci. 2025 15(1), e70019
     doi.org/10.1002/wcms.70019

List of papers to cite with high priority. The work reported in these papers was absolutely
necessary for this run to complete.
Our perspective: the developers of density functionals and basis sets usually get cited in chemistry papers
Good! But without the algorithms to do something with them, the functionals or basis sets would not do anything.
Hence, in our opinion, the algorithm design and method developments papers are equally worthy of getting cited

  1. Neese, F.; Olbrich, G.
     Efficient use of the resolution of the identity approximation in time-dependent density functional calculations with hybrid density functionals
     Chem. Phys. Lett. 2002 362 , 170-178
     doi.org/10.1016/s0009-2614(02)01053-9
  2. Neese, F.
     An improvement of the resolution of the identity approximation for the formation of the Coulomb matrix
     J. Comp. Chem. 2003 24(14), 1740-1747
     doi.org/10.1002/jcc.10318
  3. Neese, F.; Wennmohs, F.; Hansen, A.; Becker, U.
     Efficient, approximate and parallel Hartree-Fock and hybrid DFT calculations. A 'chain-of-spheres' algorithm for the Hartree-Fock exchange
     Chem. Phys. 2009 356(1-3), 98-109
     doi.org/10.1016/j.chemphys.2008.10.036
  4. Garcia-Rates, M.; Neese, F.
     Effect of the Solute Cavity on the Solvation Energy and its Derivatives within the Framework of the Gaussian Charge Scheme
     J. Comput. Chem. 2020 41 , 922-939
     doi.org/10.1002/jcc.26139
  5. Helmich-Paris, B.; de Souza, B.; Neese, F.; Izsák, R.
     An improved chain of spheres for exchange algorithm
     J. Chem. Phys. 2021 155(10), 104109
     doi.org/10.1063/5.0058766
  6. Neese, F.
     The SHARK Integral Generation and Digestion System
     J. Comp. Chem. 2022 44(3), 381
     doi.org/10.1002/jcc.26942

List of suggested additional citations. These are papers that are important in the 'surrounding' of 
of this run, or papers that preceded the highly important papers. If you like your results we are grateful for a citation.

  1. Izsak, R.; Neese, F.
     An overlap fitted chain of spheres exchange method
     J. Chem. Phys. 2011 135 , 144105
     doi.org/10.1063/1.3646921
  2. Izsak, R.; Hansen, A.; Neese, F.
     The resolution of identity and chain of spheres approximations for the LPNO-CCSD singles Fock term
     Molec. Phys. 2012 110 , 2413-2417
     doi.org/10.1080/00268976.2012.687466
  3. Neese, F.
     The ORCA program system
     WIRES Comput. Molec. Sci. 2012 2(1), 73-78
     doi.org/10.1002/wcms.81
  4. Izsak, R.; Neese, F.; Klopper, W.
     Robust fitting techniques in the chain of spheres approximation to the Fock exchange: The role of the complementary space
     J. Chem. Phys. 2013 139 , 
     doi.org/10.1063/1.4819264
  5. Neese, F.
     Software update: the ORCA program system, version 4.0
     WIRES Comput. Molec. Sci. 2018 8(1), 1-6
     doi.org/10.1002/wcms.1327
  6. Neese, F.; Wennmohs, F.; Becker, U.; Riplinger, C.
     The ORCA quantum chemistry program package
     J. Chem. Phys. 2020 152(22), 224108
     doi.org/10.1063/5.0004608
  7. Neese, F.
     Software update: The ORCA program system—Version 5.0
     WIRES Comput. Molec. Sci. 2022 12(1), e1606
     doi.org/10.1002/wcms.1606

List of optional additional citations

  1. Neese, F.
     Approximate second-order SCF convergence for spin unrestricted wavefunctions
     Chem. Phys. Lett. 2000 325(1-3), 93-98
     doi.org/10.1016/s0009-2614(00)00662-x

Timings for individual modules:

Sum of individual times          ...    16252.092 sec (= 270.868 min)
Startup calculation              ...       37.320 sec (=   0.622 min)   0.2 %
SCF iterations                   ...     2267.959 sec (=  37.799 min)  14.0 %
Property integrals               ...        1.612 sec (=   0.027 min)   0.0 %
Property calculations            ...        0.674 sec (=   0.011 min)   0.0 %
CIS module                       ...    13944.527 sec (= 232.409 min)  85.8 %
                             ****ORCA TERMINATED NORMALLY****
TOTAL RUN TIME: 0 days 4 hours 30 minutes 52 seconds 485 msec
