
                                 *****************
                                 * O   R   C   A *
                                 *****************

                                            #,                                       
                                            ###                                      
                                            ####                                     
                                            #####                                    
                                            ######                                   
                                           ########,                                 
                                     ,,################,,,,,                         
                               ,,#################################,,                 
                          ,,##########################################,,             
                       ,#########################################, ''#####,          
                    ,#############################################,,   '####,        
                  ,##################################################,,,,####,       
                ,###########''''           ''''###############################       
              ,#####''   ,,,,##########,,,,          '''####'''          '####       
            ,##' ,,,,###########################,,,                        '##       
           ' ,,###''''                  '''############,,,                           
         ,,##''                                '''############,,,,        ,,,,,,###''
      ,#''                                            '''#######################'''  
     '                                                          ''''####''''         
             ,#######,   #######,   ,#######,      ##                                
            ,#'     '#,  ##    ##  ,#'     '#,    #''#        ,####,    ,#,          
            ##       ##  ##   ,#'  ##            #'  '#       #'       ,# #          
            ##       ##  #######   ##           ,######,      #####,      #          
            '#,     ,#'  ##    ##  '#,     ,#' ,#      #,     #,   #      #          
             '#######'   ##     ##  '#######'  #'      '#     '####' #    #          



                #########################################################
                #                        -***-                          #
                #          Department of theory and spectroscopy        #
                #                                                       #
                #                      Frank Neese                      #
                #                                                       #
                #     Directorship, Architecture, Infrastructure        #
                #                    SHARK, DRIVERS                     #
                #        Core code/Algorithms in most modules           #
                #                                                       #
                #        Max Planck Institute fuer Kohlenforschung      #
                #                Kaiser Wilhelm Platz 1                 #
                #                 D-45470 Muelheim/Ruhr                 #
                #                      Germany                          #
                #                                                       #
                #                  All rights reserved                  #
                #                        -***-                          #
                #########################################################


                         Program Version 6.1.1  -  RELEASE   -
                                (GIT: $487d211c$)
                          ($2025-11-21 10:33:24 +0100$)


 With contributions from (in alphabetic order):
[Max-Planck-Institut fuer Kohlenforschung]                               
  Daniel Aravena         : Magnetic Suceptibility                        
  Michael Atanasov       : Ab Initio Ligand Field Theory (pilot matlab implementation)
  Alexander A. Auer      : GIAO ZORA, VPT2 properties, NMR spectrum      
  Ute Becker             : All parallelization in ORCA, NUMFREQ, NUMCALC 
  Giovanni Bistoni       : ED, misc. LED, open-shell LED, HFLD           
  Dmytro Bykov           : pre 5.0 version of the SCF Hessian            
  Marcos Casanova-Páez   : Triplet and SCS-CIS(D). UHF-(DLPNO)-IP/EA/STEOM-CCSD. UHF-CVS-IP/STEOM-CCSD   
  Vijay G. Chilkuri      : MRCI spin determinant printing, contributions to CSF-ICE 
  Pauline Colinet        : FMM embedding                                 
  Dipayan Datta          : RHF DLPNO-CCSD density                        
  Achintya Kumar Dutta   : EOM-CC, STEOM-CC                              
  Nicolas Foglia         : Exact transition moments, OPA infrastructure, MCD improvements    
  Dmitry Ganyushin       : Spin-Orbit,Spin-Spin,Magnetic field MRCI      
  Miquel Garcia-Rates    : C-PCM and meta-GGA Hessian, CCSD/C-PCM, Gaussian charge scheme 
  Tiago L. C. Gouveia    : GS-ROHF, GS-ROCIS                             
  Yang Guo               : DLPNO-NEVPT2, F12-NEVPT2, CIM, IAO-localization        
  Andreas Hansen         : Spin unrestricted coupled pair/coupled cluster methods 
  Ingolf Harden          : AUTO-CI MPn and infrastructure                
  Benjamin Helmich-Paris : MC-RPA, TRAH-(SCF,CASSCF), AVAS, COSX integrals, SCF dyn. polar., MC-PDFT, srDFT 
  Lee Huntington         : MR-EOM, pCC                                   
  Robert Izsak           : Overlap fitted RIJCOSX, COSX-SCS-MP3, EOM     
  Riya Kayal             : Wick's Theorem for AUTO-CI, AUTO-CI UHF-CCSDT 
  Emily Kempfer          : AUTO-CI RHF CISDT and CCSDT, approximate NEVPT4
  Christian Kollmar      : KDIIS, OOCD, Brueckner-CCSD(T), CCSD density, CASPT2, CASPT2-K, improved NEVPT2 
  Axel Koslowski         : Symmetry handling                             
  Simone Kossmann        : meta-GGA functionals, TD-DFT gradient, OOMP2, (MP2 Hessian; deprecated post 5.0) 
  Lucas Lang             : DCDCAS, Hyperfine gauge corrections, ICE-SOC+SSC
  Marvin Lechner         : AUTO-CI (C++ implementation), FIC-MRCC        
  Spencer Leger          : CASSCF response                               
  Dagmar Lenk            : GEPOL surface, SMD, ORCA-2-JSON               
  Dimitrios Liakos       : Extrapolation schemes; Compound Job, Property file
  Dimitrios Manganas     : Further ROCIS development; embedding schemes. LFT, Crystal Embedding 
  Dimitrios Pantazis     : SARC Basis sets                               
  Anastasios Papadopoulos: AUTO-CI, single reference methods and gradients 
  Taras Petrenko         : pre 6.0 DFT Hessian and TD-DFT gradient,  ECA, NRVS 
  Petra Pikulova         : Analytic Raman intensities                    
  Peter Pinski           : DLPNO-MP2, DLPNO-MP2 Gradient                 
  Shashank Vittal Rao    : ES-AILFT, MagRelax                            
  Christoph Reimann      : Effective Core Potentials                     
  Marius Retegan         : Local ZFS, SOC                                
  Christoph Riplinger    : Optimizer, TS searches, QM/MM, DLPNO-CCSD(T), (RO)-DLPNO pert. Triples 
  Michael Roemelt        : Original ROCIS implementation, recursive CI coupling coefficients
  Masaaki Saitow         : Open-shell DLPNO-CCSD energy and density      
  Barbara Sandhoefer     : DKH picture change effects                    
  Yorick L. A. Schmerwitz: GMF and freeze-and-release deltaSCF, NEB S-IDPP initial path                    
  Kantharuban Sivalingam : CASSCF convergence/infrastructure, NEVPT2, NEVPT3, NEVPT4(SD), FIC-MRCI and CEPA variants
  Bernardo de Souza      : ESD, SOC TD-DFT                               
  Georgi L. Stoychev     : AutoAux, RI-MP2 NMR, DLPNO-MP2 response, X2C  
  Van Anh Tran           : RI-MP2 g-tensors                              
  Willem Van den Heuvel  : Paramagnetic NMR                              
  Zikuan Wang            : NOTCH, Electric field optimization            
  Frank Wennmohs         : Technical directorship and infrastructure     
  Hang Xu                : AUTO-CI-Response properties                   
                                                                         
[FACCTs GmbH]                                                            
  Markus Bursch, Nicolas Foglia, Miquel Garcia-Rates, Ingolf Harden, Hagen Neugebauer, Anastasios Papadopoulos, 
  Christoph Riplinger, Bernardo de Souza, Georgi L. Stoychev                                                    
                                                                 
  APM, various basis sets, CI-OPT, improved COSX, DLPNO-Multilevel,           
  DOCKER, DRACO, updates on ESD, Fragmentator, GOAT, IRC, LR-CPCM, L-BFGS, MBIS, meta-GGA TD-DFT gradient, ML-optimized integration grids, 
  MM, NACMEs, nearIR, NEB, NEB-TS, NL-DFT gradient (VV10), 2- and 3-layer-ONIOM, interface openCOSMO-RS, QMMM,   
  Crystal-QMMM, RESP, rigid body optimization, SF, symmetry and pop. for TD-DFT, various functionals, SOLVATOR                                   
                                                                         
[Other institutions]                                                     
  V. Asgeirsson          : NEB                                           
  Christoph Bannwarth    : sTDA-DFT, sTD-DFT, PBEh-3c, B97-3c, D3        
  Giovanni Bistoni       : ETS/NOCV, ADLD/ADEX, COVALED                  
  Martin Brehm           : Molecular dynamics                            
  Ronald Cardenas        : ETS/NOCV                                      
  Martina Colucci        : COVALED                                       
  Sebastian Ehlert       : rSCAN, r2SCAN, r2SCAN-3c, D4, dhf basis sets  
  Marvin Friede          : D4 for Fr, Ra, Ac-Lr                          
  Lars Goerigk           : TD-DFT with DH, B97 family of functionals     
  Stefan Grimme          : VdW corrections, initial TS optimization, DFT functionals, gCP, sTDA/sTD-DF 
  Waldemar Hujo          : DFT-NL                                        
  H. Jonsson             : NEB                                           
  Holger Kruse           : gCP                                           
  Marcel Mueller         : wB97X-3c, vDZP basis set                      
  Hagen Neugebauer       : wr2SCAN, Native XTB                           
  Gianluca Regni         : ADLD/ADEX                                     
  Tobias Risthaus        : pre 6.0 range-separated hybrid DFT and stability analysis
  Lukas Wittmann         : regularized MP2, r2SCAN double-hybrids, wr2SCAN        
                                                                         
We gratefully acknowledge several colleagues who have allowed us to      
interface, adapt or use parts of their codes:                            
  Ed Valeev, F. Pavosevic, A. Kumar             : LibInt (2-el integral package), F12 methods 
  Garnet Chan, S. Sharma, J. Yang, R. Olivares  : DMRG                   
  Ulf Ekstrom                                   : XCFun DFT Library      
  Mihaly Kallay                                 : mrcc  (arbitrary order and MRCC methods)
  Frank Weinhold                                : gennbo (NPA and NBO analysis)           
  Simon Mueller                                 : openCOSMO-RS                            
  Christopher J. Cramer and Donald G. Truhlar   : smd solvation model                     
  S Lehtola, MJT Oliveira, MAL Marques          : LibXC Library                           
  Liviu Ungur et al                             : ANISO software                          


 Your calculation uses the libint2 library for the computation of 2-el integrals
 For citations please refer to: http://libint.valeyev.net

 Your ORCA version has been built with support for libXC version: 7.0.0
 For citations please refer to: https://libxc.gitlab.io

 This ORCA versions uses:
   CBLAS   interface :  Fast vector & matrix operations
   LAPACKE interface :  Fast linear algebra routines
   SCALAPACK package :  Parallel linear algebra routines
   Shared memory     :  Shared parallel matrices
   BLAS/LAPACK       :  OpenBLAS 0.3.29  USE64BITINT DYNAMIC_ARCH NO_AFFINITY Haswell SINGLE_THREADED
        Core in use  :  Haswell
   Copyright (c) 2011-2014, The OpenBLAS Project


  ***********************************
  * Starting time: Fri Jun 19 15:35:54 2026
  * Host name:     steezy
  * Process ID:    4192339
  * Working dir.:  /home/jannes/metaltpp/pdtpp/02_tddft_tda_comparison/runs/tdaoff_pbe0
  ***********************************

NOTE: MaxCore=3000 MB was set to SCF,MP2,MDCI,CIPSI,MRCI,RASCI and CIS
      => If you want to overwrite this, your respective input block should be placed after the MaxCore statement


***************************************
The coordinates will be read from file: /home/jannes/metaltpp/pdtpp/01_opt/pdtpp_opt_b3lyp_tzvp.xyz
***************************************


================================================================================

cite the ECPs for Pd [Def2-ECP] as follows:
Ce-Yb(ecp-28): M. Dolg, H. Stoll, H.Preuss, J. Chem. Phys., 1989, 90, 1730-1734.
Y-Cd(ecp-28), Hf-Hg(ecp-46): D. Andrae,U. Haeussermann, M. Dolg, H. Stoll, H. Preuss, Theor. Chim. Acta, 1990, 77, 123-141.
In-Sb(ecp-28), Tl-Bi(ecp-46): B. Metz, H. Stoll, M. Dolg, J. Chem. Phys., 2000, 113, 2563-2569.
Te-Xe(ecp-28), Po-Rn(ecp-46): K. A. Peterson, D. Figgen, E. Goll, H. Stoll, M. Dolg, J. Chem. Phys., 2003, 119, 11113-11123.
Rb(ecp-28), Cs(ecp-46): T. Leininger, A. Nicklass, W. Kuechle, H. Stoll, M. Dolg, A. Bergner, Chem. Phys. Lett., 1996, 255, 274-280.
Sr(ecp-28), Ba(ecp-46): M. Kaupp, P. V. Schleyer, H. Stoll and H. Preuss, J. Chem. Phys., 1991, 94, 1360-1366.
La(ecp-46): M. Dolg, H. Stoll, A. Savin, H. Preuss, Theor. Chim. Acta, 1989, 75, 173-194.
Lu(ecp-28): X. Cao, M. Dolg, J. Chem. Phys., 2001, 115, 7348-7355.

ECP parameters for Pd [Def2-ECP] have been obtained from:
TURBOMOLE (7.0.2)

----- Orbital basis set information -----
Your calculation utilizes the basis: def2-TZVP
   F. Weigend and R. Ahlrichs, Phys. Chem. Chem. Phys. 7, 3297 (2005).

----- AuxJ basis set information -----
Your calculation utilizes the auxiliary basis: def2/J
   H-Rn: F. Weigend, Phys. Chem. Chem. Phys. 8, 1057 (2006).
   Fr-Lr: K. Eichkorn, F. Weigend, O. Treutler, R. Ahlrichs; Theor. Chem. Acc. 97, 119 (1997).

================================================================================
                                        WARNINGS
                       Please study these warnings very carefully!
================================================================================


WARNING: CIS/ROCIS methods need fully converged wavefunctions
  ===> : Setting SCFConvForced true
         You can overwrite this default with %scf ConvForced false 


================================================================================
                                       INPUT FILE
================================================================================
NAME = tddft.inp
|  1> %pal nprocs 8 end
|  2> %maxcore 3000
|  3> ! PBE0 def2-TZVP def2/J RIJCOSX DefGrid3 TightSCF CPCM(Toluene)
|  4> %tddft
|  5>   nroots 30
|  6>   triplets false
|  7>   tda false
|  8> end
|  9> * xyzfile 0 1 /home/jannes/metaltpp/pdtpp/01_opt/pdtpp_opt_b3lyp_tzvp.xyz
| 10> 
| 11>                          ****END OF INPUT****
================================================================================

                       ****************************
                       * Single Point Calculation *
                       ****************************

---------------------------------
CARTESIAN COORDINATES (ANGSTROEM)
---------------------------------
  N     -2.110111    2.523986    3.526306
  H      1.680708   -2.231879    3.875943
  C     -4.350164    3.014180    3.528684
  C     -0.398700   -1.555848    3.857345
  N      0.088372    0.674508    3.642372
  C      0.949750   -1.443294    3.818760
  H     -0.984444   -2.454130    3.954075
  C      2.846209    1.835215    3.486172
  N     -0.257514    4.711523    3.290563
  C     -1.119661    6.826869    3.090611
  C      2.549230    0.478205    3.615278
  C      2.658674    4.024328    3.288459
  N      1.940905    2.861709    3.403183
  C      4.066237    3.716718    3.304558
  C     -0.940811   -0.225622    3.745087
  C      1.256652   -0.041925    3.685527
  C     -2.827643    1.361920    3.647811
  C     -3.015449    3.550925    3.450264
  C     -4.235016    1.670650    3.647688
  C     -2.303720    0.072859    3.750245
  C     -2.718588    4.907514    3.316718
  C      4.181200    2.373289    3.424687
  C     -1.426068    5.427219    3.241348
  C      0.228751    6.939530    3.051533
  C      2.134675    5.313015    3.179589
  C      0.771452    5.610948    3.179597
  H     -5.253072    3.599850    3.494400
  H     -5.025746    0.944187    3.727651
  H      5.084270    1.788820    3.472387
  H      4.857333    4.443914    3.236243
  H      0.813904    7.836710    2.942245
  H     -1.850874    7.614165    3.020414
  Pd    -0.084580    2.692939    3.465620
  C      3.695443   -0.484867    3.685036
  C      4.258932   -1.006943    2.519126
  C      5.323036   -1.900436    2.583197
  C      5.839686   -2.284575    3.815767
  C      5.286069   -1.770214    4.983115
  C      4.221669   -0.877211    4.917385
  H      3.858687   -0.709905    1.557428
  H      5.747577   -2.296217    1.668734
  H      6.668315   -2.979959    3.866242
  H      5.682559   -2.062933    5.947603
  H      3.793063   -0.478014    5.828574
  C     -3.268878   -1.066687    3.874522
  C     -3.667918   -1.788375    2.747750
  C     -4.564234   -2.845791    2.862457
  C     -5.074526   -3.197454    4.107322
  C     -4.683635   -2.485348    5.235983
  C     -3.787778   -1.427761    5.119547
  H     -3.273041   -1.516543    1.776417
  H     -4.864104   -3.393742    1.977602
  H     -5.772141   -4.020854    4.197211
  H     -5.074971   -2.752745    6.209880
  H     -3.484718   -0.875694    6.000826
  C     -3.864733    5.870703    3.247417
  C     -4.478147    6.160659    2.027095
  C     -5.541818    7.054544    1.961680
  C     -6.007913    7.671692    3.117385
  C     -5.403930    7.390113    4.337892
  C     -4.339974    6.496389    4.401583
  H     -4.117079    5.682037    1.124963
  H     -6.005261    7.268689    1.006429
  H     -6.836146    8.367565    3.067198
  H     -5.760543    7.865684    5.243313
  H     -3.871962    6.279023    5.353961
  C      3.099664    6.452146    3.053442
  C      3.661497    6.775794    1.816635
  C      4.557159    7.833246    1.698146
  C      4.905551    8.582603    2.816561
  C      4.352538    8.268463    4.053191
  C      3.455949    7.211546    4.169835
  H      3.391367    6.195061    0.943123
  H      4.981312    8.071697    0.730485
  H      5.603197    9.405802    2.725123
  H      4.619446    8.845223    4.930252
  H      3.028116    6.968877    5.134904

----------------------------
CARTESIAN COORDINATES (A.U.)
----------------------------
  NO LB      ZA    FRAG     MASS         X           Y           Z
   0 N     7.0000    0    14.007   -3.987532    4.769643    6.663752
   1 H     1.0000    0     1.008    3.176078   -4.217640    7.324470
   2 C     6.0000    0    12.011   -8.220618    5.695974    6.668247
   3 C     6.0000    0    12.011   -0.753433   -2.940127    7.289325
   4 N     7.0000    0    14.007    0.167000    1.274636    6.883085
   5 C     6.0000    0    12.011    1.794768   -2.727430    7.216410
   6 H     1.0000    0     1.008   -1.860330   -4.637633    7.472119
   7 C     6.0000    0    12.011    5.378556    3.468053    6.587911
   8 N     7.0000    0    14.007   -0.486630    8.903488    6.218263
   9 C     6.0000    0    12.011   -2.115853   12.900913    5.840409
  10 C     6.0000    0    12.011    4.817346    0.903677    6.831886
  11 C     6.0000    0    12.011    5.024166    7.604878    6.214287
  12 N     7.0000    0    14.007    3.667778    5.407845    6.431083
  13 C     6.0000    0    12.011    7.684074    7.023580    6.244710
  14 C     6.0000    0    12.011   -1.777875   -0.426364    7.077189
  15 C     6.0000    0    12.011    2.374728   -0.079226    6.964637
  16 C     6.0000    0    12.011   -5.343471    2.573656    6.893365
  17 C     6.0000    0    12.011   -5.698373    6.710275    6.520053
  18 C     6.0000    0    12.011   -8.003020    3.157071    6.893131
  19 C     6.0000    0    12.011   -4.353399    0.137684    7.086935
  20 C     6.0000    0    12.011   -5.137387    9.273858    6.267689
  21 C     6.0000    0    12.011    7.901322    4.484867    6.471720
  22 C     6.0000    0    12.011   -2.694878   10.255957    6.125260
  23 C     6.0000    0    12.011    0.432276   13.113811    5.766562
  24 C     6.0000    0    12.011    4.033951   10.040142    6.008552
  25 C     6.0000    0    12.011    1.457834   10.603155    6.008567
  26 H     1.0000    0     1.008   -9.926868    6.802731    6.603459
  27 H     1.0000    0     1.008   -9.497284    1.784254    7.044239
  28 H     1.0000    0     1.008    9.607878    3.380380    6.561861
  29 H     1.0000    0     1.008    9.179030    8.397781    6.115613
  30 H     1.0000    0     1.008    1.538055   14.809236    5.560037
  31 H     1.0000    0     1.008   -3.497646   14.388686    5.707755
  32 Pd   18.0000*   0   106.400   -0.159833    5.088918    6.549072
  33 C     6.0000    0    12.011    6.983374   -0.916266    6.963708
  34 C     6.0000    0    12.011    8.048215   -1.902846    4.760457
  35 C     6.0000    0    12.011   10.059080   -3.591304    4.881536
  36 C     6.0000    0    12.011   11.035408   -4.317220    7.210756
  37 C     6.0000    0    12.011    9.989222   -3.345220    9.416722
  38 C     6.0000    0    12.011    7.977797   -1.657689    9.292512
  39 H     1.0000    0     1.008    7.291861   -1.341526    2.943112
  40 H     1.0000    0     1.008   10.861347   -4.339222    3.153449
  41 H     1.0000    0     1.008   12.601290   -5.631306    7.306139
  42 H     1.0000    0     1.008   10.738480   -3.898379   11.239342
  43 H     1.0000    0     1.008    7.167849   -0.903316   11.014408
  44 C     6.0000    0    12.011   -6.177283   -2.015746    7.321785
  45 C     6.0000    0    12.011   -6.931360   -3.379539    5.192495
  46 C     6.0000    0    12.011   -8.625153   -5.377765    5.409260
  47 C     6.0000    0    12.011   -9.589465   -6.042312    7.761714
  48 C     6.0000    0    12.011   -8.850788   -4.696626    9.894574
  49 C     6.0000    0    12.011   -7.157863   -2.698078    9.674541
  50 H     1.0000    0     1.008   -6.185151   -2.865852    3.356941
  51 H     1.0000    0     1.008   -9.191825   -6.413243    3.737127
  52 H     1.0000    0     1.008  -10.907766   -7.598313    7.931580
  53 H     1.0000    0     1.008   -9.590305   -5.201934   11.734973
  54 H     1.0000    0     1.008   -6.585162   -1.654821   11.339918
  55 C     6.0000    0    12.011   -7.303287   11.094021    6.136729
  56 C     6.0000    0    12.011   -8.462472   11.641958    3.830655
  57 C     6.0000    0    12.011  -10.472518   13.331156    3.707038
  58 C     6.0000    0    12.011  -11.353310   14.497398    5.891003
  59 C     6.0000    0    12.011  -10.211947   13.965290    8.197428
  60 C     6.0000    0    12.011   -8.201361   12.276396    8.317786
  61 H     1.0000    0     1.008   -7.780152   10.737494    2.125873
  62 H     1.0000    0     1.008  -11.348298   13.735832    1.901875
  63 H     1.0000    0     1.008  -12.918444   15.812406    5.796164
  64 H     1.0000    0     1.008  -10.885848   14.863989    9.908426
  65 H     1.0000    0     1.008   -7.316948   11.865634   10.117519
  66 C     6.0000    0    12.011    5.857516   12.192790    5.770169
  67 C     6.0000    0    12.011    6.919226   12.804394    3.432943
  68 C     6.0000    0    12.011    8.611782   14.802689    3.209031
  69 C     6.0000    0    12.011    9.270147   16.218769    5.322530
  70 C     6.0000    0    12.011    8.225105   15.625130    7.659421
  71 C     6.0000    0    12.011    6.530797   13.627847    7.879847
  72 H     1.0000    0     1.008    6.408756   11.706968    1.782244
  73 H     1.0000    0     1.008    9.413315   15.253296    1.380417
  74 H     1.0000    0     1.008   10.588507   17.774390    5.149736
  75 H     1.0000    0     1.008    8.729487   16.715049    9.316826
  76 H     1.0000    0     1.008    5.722310   13.169268    9.703562
* core charge reduced due to ECP

--------------------------------
INTERNAL COORDINATES (ANGSTROEM)
--------------------------------
 N      0   0   0     0.000000000000     0.00000000     0.00000000
 H      1   0   0     6.091864519695     0.00000000     0.00000000
 C      1   2   0     2.293061668774   140.77976632     0.00000000
 C      2   1   3     2.186618710776    33.52783143     0.04252703
 N      4   2   1     2.293020439396    95.71126238     0.13201848
 C      2   1   3     1.076771071192     4.27097730     0.95018847
 H      4   2   1     1.076737357735   104.98917044   180.24197510
 C      5   4   2     2.996214647055   125.25434724   359.81268877
 N      1   2   6     2.876283733654   101.39950918   180.95456890
 C      9   1   2     2.293026306020   117.81294611   179.23280037
 C      8   5   4     1.395112866777    54.72016910     0.08516652
 C      8   5   4     2.206009583477   108.11038933   180.04091611
 N     12   8   5     1.371145497004    36.44556594   359.65156690
 C     12   8   5     1.440873091928    72.78845772   179.45502588
 C      5   4   2     1.371131839070    36.38876957   179.89822507
 C      5   4   2     1.371136533824    70.71949993   359.92072186
 C      1   2   6     1.371135984783    70.05647476     1.03551285
 C      1   2   6     1.371138730284   177.16104147   358.97779031
 C      3   1   2     1.353695948585    72.83217491     0.00000000
 C     15   5   4     1.395219876198   126.37442169   179.66696349
 C     18   1  17     1.395097281961   126.37748330   180.13749834
 C     14  12   8     1.353679735100   107.20709609     0.05323370
 C      9   1   2     1.371190110672    81.43098556   179.61880543
 C     10   9   1     1.353674188183    72.82860588   180.60441881
 C     12   8   5     1.395399661196   162.81723884     0.00000000
 C      9   1   2     1.371149126465   171.44610486     2.37032993
 H      3   1   2     1.076767616977   159.29162586   180.04288983
 H     19   3   1     1.076753670965   127.85564321   180.14471152
 H     22  14  12     1.076761799141   127.86843687   180.16669300
 H     14  12   8     1.076714671126   124.94922907   180.29620946
 H     24  10   9     1.076699071888   127.85290957   179.65835995
 H     10   9   1     1.076770499221   159.31197649     0.00000000
 Pd    13  12   8     2.033462073962   126.46781400   179.19972923
 C     11   8   5     1.498725461683   117.81049574   180.12635065
 C     34  11   8     1.396219767790   120.66842979   272.82165428
 C     35  34  11     1.390953825264   120.69543613   179.97740510
 C     36  35  34     1.390582364320   120.16603241   359.97529885
 C     37  36  35     1.390596386896   119.60239487     0.00000000
 C     38  37  36     1.390943109850   120.16249836     0.00000000
 H     35  34  11     1.083185124941   119.32249910   359.94042574
 H     36  35  34     1.083107498935   119.71566789   179.95479444
 H     37  36  35     1.082927975900   120.19786101   180.01705479
 H     38  37  36     1.083110082999   120.12050429   180.06128569
 H     39  38  37     1.083201384917   119.97650792   180.03150919
 C     20  15   5     1.498512414292   117.82573721   180.08675936
 C     45  20  15     1.396309957761   120.67602934   275.47228008
 C     46  45  20     1.390923913888   120.69950293   180.03028757
 C     47  46  45     1.390594937017   120.16864752   359.97146212
 C     48  47  46     1.390599546684   119.59914676     0.02391936
 C     49  48  47     1.390901187040   120.16385760     0.00000000
 H     46  45  20     1.083193415161   119.32361907   359.94790795
 H     47  46  45     1.083116076579   119.71172485   179.90374148
 H     48  47  46     1.082928541119   120.19742760   180.02050545
 H     49  48  47     1.083106931738   120.12000129   180.06956091
 H     50  49  48     1.083179315867   119.97573915   180.05227748
 C     21  18   1     1.498727198128   117.81570509   179.80364232
 C     56  21  18     1.396258338985   120.65372407   273.45074291
 C     57  56  21     1.390936594620   120.69852576   180.00777400
 C     58  57  56     1.390600697335   120.16129999     0.00000000
 C     59  58  57     1.390582904429   119.60335106     0.02620359
 C     60  59  58     1.390971536282   120.16672006     0.00000000
 H     57  56  21     1.083185608742   119.32096230   359.95749120
 H     58  57  56     1.083116967127   119.71873647   179.93453949
 H     59  58  57     1.082925507565   120.19933745   180.01377371
 H     60  59  58     1.083110391607   120.11852907   180.03003533
 H     61  60  59     1.083192681126   119.97900133   180.02036021
 C     25  12   8     1.498245128282   117.83135176   180.16993308
 C     67  25  12     1.396457852924   120.65804047    81.98986846
 C     68  67  25     1.390846818110   120.71358375   179.98302436
 C     69  68  67     1.390599469242   120.16689149     0.06630908
 C     70  69  68     1.390596912200   119.59423432   359.96944806
 C     71  70  69     1.390881522349   120.17162991   359.96512984
 H     68  67  25     1.083164020706   119.31777031     0.12948246
 H     69  68  67     1.083112177416   119.71424993   180.15314058
 H     70  69  68     1.082925280805   120.20670543   179.97266556
 H     71  70  69     1.083110359360   120.11990499   179.87743042
 H     72  71  70     1.083183646087   119.97152232   179.92136023

---------------------------
INTERNAL COORDINATES (A.U.)
---------------------------
 N      0   0   0     0.000000000000     0.00000000     0.00000000
 H      1   0   0    11.511955587176     0.00000000     0.00000000
 C      1   2   0     4.333258562175   140.77976632     0.00000000
 C      2   1   3     4.132110522674    33.52783143     0.04252703
 N      4   2   1     4.333180649942    95.71126238     0.13201848
 C      2   1   3     2.034802433482     4.27097730     0.95018847
 H      4   2   1     2.034738724282   104.98917044   180.24197510
 C      5   4   2     5.662025121378   125.25434724   359.81268877
 N      1   2   6     5.435388540058   101.39950918   180.95456890
 C      9   1   2     4.333191736256   117.81294611   179.23280037
 C      8   5   4     2.636381244118    54.72016910     0.08516652
 C      8   5   4     4.168753961577   108.11038933   180.04091611
 N     12   8   5     2.591089479096    36.44556594   359.65156690
 C     12   8   5     2.722855537480    72.78845772   179.45502588
 C      5   4   2     2.591063669343    36.38876957   179.89822507
 C      5   4   2     2.591072541142    70.71949993   359.92072186
 C      1   2   6     2.591071503605    70.05647476     1.03551285
 C      1   2   6     2.591076691848   177.16104147   358.97779031
 C      3   1   2     2.558114611425    72.83217491     0.00000000
 C     15   5   4     2.636583462617   126.37442169   179.66696349
 C     18   1  17     2.636351793084   126.37748330   180.13749834
 C     14  12   8     2.558083972379   107.20709609     0.05323370
 C      9   1   2     2.591173786711    81.43098556   179.61880543
 C     10   9   1     2.558073490223    72.82860588   180.60441881
 C     12   8   5     2.636923207027   162.81723884     0.00000000
 C      9   1   2     2.591096337784   171.44610486     2.37032993
 H      3   1   2     2.034795905961   159.29162586   180.04288983
 H     19   3   1     2.034769551817   127.85564321   180.14471152
 H     22  14  12     2.034784911844   127.86843687   180.16669300
 H     14  12   8     2.034695852804   124.94922907   180.29620946
 H     24  10   9     2.034666374516   127.85290957   179.65835995
 H     10   9   1     2.034801352614   159.31197649     0.00000000
 Pd    13  12   8     3.842686423504   126.46781400   179.19972923
 C     11   8   5     2.832180672516   117.81049574   180.12635065
 C     34  11   8     2.638472983890   120.66842979   272.82165428
 C     35  34  11     2.628521794680   120.69543613   179.97740510
 C     36  35  34     2.627819835225   120.16603241   359.97529885
 C     37  36  35     2.627846334053   119.60239487     0.00000000
 C     38  37  36     2.628501545482   120.16249836     0.00000000
 H     35  34  11     2.046923238475   119.32249910   359.94042574
 H     36  35  34     2.046776546584   119.71566789   179.95479444
 H     37  36  35     2.046437297212   120.19786101   180.01705479
 H     38  37  36     2.046781429757   120.12050429   180.06128569
 H     39  38  37     2.046953965378   119.97650792   180.03150919
 C     20  15   5     2.831778071293   117.82573721   180.08675936
 C     45  20  15     2.638643418236   120.67602934   275.47228008
 C     46  45  20     2.628465270371   120.69950293   180.03028757
 C     47  46  45     2.627843594180   120.16864752   359.97146212
 C     48  47  46     2.627852305189   119.59914676     0.02391936
 C     49  48  47     2.628422322851   120.16385760     0.00000000
 H     46  45  20     2.046938904722   119.32361907   359.94790795
 H     47  46  45     2.046792755981   119.71172485   179.90374148
 H     48  47  46     2.046438365321   120.19742760   180.02050545
 H     49  48  47     2.046775474736   120.12000129   180.06956091
 H     50  49  48     2.046912260916   119.97573915   180.05227748
 C     21  18   1     2.832183953921   117.81570509   179.80364232
 C     56  21  18     2.638545872886   120.65372407   273.45074291
 C     57  56  21     2.628489233481   120.69852576   180.00777400
 C     58  57  56     2.627854479604   120.16129999     0.00000000
 C     59  58  57     2.627820855884   119.60335106     0.02620359
 C     60  59  58     2.628555263654   120.16672006     0.00000000
 H     57  56  21     2.046924152727   119.32096230   359.95749120
 H     58  57  56     2.046794438874   119.71873647   179.93453949
 H     59  58  57     2.046432632736   120.19933745   180.01377371
 H     60  59  58     2.046782012941   120.11852907   180.03003533
 H     61  60  59     2.046937517595   119.97900133   180.02036021
 C     25  12   8     2.831272973935   117.83135176   180.16993308
 C     67  25  12     2.638922899590   120.65804047    81.98986846
 C     68  67  25     2.628319580464   120.71358375   179.98302436
 C     69  68  67     2.627852158844   120.16689149     0.06630908
 C     70  69  68     2.627847326735   119.59423432   359.96944806
 C     71  70  69     2.628385161970   120.17162991   359.96512984
 H     68  67  25     2.046883357251   119.31777031     0.12948246
 H     69  68  67     2.046785387631   119.71424993   180.15314058
 H     70  69  68     2.046432204220   120.20670543   179.97266556
 H     71  70  69     2.046781952003   120.11990499   179.87743042
 H     72  71  70     2.046920443847   119.97152232   179.92136023

---------------------
BASIS SET INFORMATION
---------------------
There are 4 groups of distinct atoms

 Group   1 Type N   : 11s6p2d1f contracted to 5s3p2d1f pattern {62111/411/11/1}
 Group   2 Type H   : 5s1p contracted to 3s1p pattern {311/1}
 Group   3 Type C   : 11s6p2d1f contracted to 5s3p2d1f pattern {62111/411/11/1}
 Group   4 Type Pd  : 7s7p6d1f contracted to 6s4p3d1f pattern {211111/4111/411/1}

Atom   0N    basis set group =>   1
Atom   1H    basis set group =>   2
Atom   2C    basis set group =>   3
Atom   3C    basis set group =>   3
Atom   4N    basis set group =>   1
Atom   5C    basis set group =>   3
Atom   6H    basis set group =>   2
Atom   7C    basis set group =>   3
Atom   8N    basis set group =>   1
Atom   9C    basis set group =>   3
Atom  10C    basis set group =>   3
Atom  11C    basis set group =>   3
Atom  12N    basis set group =>   1
Atom  13C    basis set group =>   3
Atom  14C    basis set group =>   3
Atom  15C    basis set group =>   3
Atom  16C    basis set group =>   3
Atom  17C    basis set group =>   3
Atom  18C    basis set group =>   3
Atom  19C    basis set group =>   3
Atom  20C    basis set group =>   3
Atom  21C    basis set group =>   3
Atom  22C    basis set group =>   3
Atom  23C    basis set group =>   3
Atom  24C    basis set group =>   3
Atom  25C    basis set group =>   3
Atom  26H    basis set group =>   2
Atom  27H    basis set group =>   2
Atom  28H    basis set group =>   2
Atom  29H    basis set group =>   2
Atom  30H    basis set group =>   2
Atom  31H    basis set group =>   2
Atom  32Pd   basis set group =>   4
Atom  33C    basis set group =>   3
Atom  34C    basis set group =>   3
Atom  35C    basis set group =>   3
Atom  36C    basis set group =>   3
Atom  37C    basis set group =>   3
Atom  38C    basis set group =>   3
Atom  39H    basis set group =>   2
Atom  40H    basis set group =>   2
Atom  41H    basis set group =>   2
Atom  42H    basis set group =>   2
Atom  43H    basis set group =>   2
Atom  44C    basis set group =>   3
Atom  45C    basis set group =>   3
Atom  46C    basis set group =>   3
Atom  47C    basis set group =>   3
Atom  48C    basis set group =>   3
Atom  49C    basis set group =>   3
Atom  50H    basis set group =>   2
Atom  51H    basis set group =>   2
Atom  52H    basis set group =>   2
Atom  53H    basis set group =>   2
Atom  54H    basis set group =>   2
Atom  55C    basis set group =>   3
Atom  56C    basis set group =>   3
Atom  57C    basis set group =>   3
Atom  58C    basis set group =>   3
Atom  59C    basis set group =>   3
Atom  60C    basis set group =>   3
Atom  61H    basis set group =>   2
Atom  62H    basis set group =>   2
Atom  63H    basis set group =>   2
Atom  64H    basis set group =>   2
Atom  65H    basis set group =>   2
Atom  66C    basis set group =>   3
Atom  67C    basis set group =>   3
Atom  68C    basis set group =>   3
Atom  69C    basis set group =>   3
Atom  70C    basis set group =>   3
Atom  71C    basis set group =>   3
Atom  72H    basis set group =>   2
Atom  73H    basis set group =>   2
Atom  74H    basis set group =>   2
Atom  75H    basis set group =>   2
Atom  76H    basis set group =>   2
---------------------------------
AUXILIARY/J BASIS SET INFORMATION
---------------------------------
There are 4 groups of distinct atoms

 Group   1 Type N   : 12s5p4d2f1g contracted to 6s4p3d1f1g pattern {711111/2111/211/2/1}
 Group   2 Type H   : 5s2p1d contracted to 3s1p1d pattern {311/2/1}
 Group   3 Type C   : 12s5p4d2f1g contracted to 6s4p3d1f1g pattern {711111/2111/211/2/1}
 Group   4 Type Pd  : 11s5p5d3f3g contracted to 8s5p5d2f3g pattern {41111111/11111/11111/21/111}

Atom   0N    basis set group =>   1
Atom   1H    basis set group =>   2
Atom   2C    basis set group =>   3
Atom   3C    basis set group =>   3
Atom   4N    basis set group =>   1
Atom   5C    basis set group =>   3
Atom   6H    basis set group =>   2
Atom   7C    basis set group =>   3
Atom   8N    basis set group =>   1
Atom   9C    basis set group =>   3
Atom  10C    basis set group =>   3
Atom  11C    basis set group =>   3
Atom  12N    basis set group =>   1
Atom  13C    basis set group =>   3
Atom  14C    basis set group =>   3
Atom  15C    basis set group =>   3
Atom  16C    basis set group =>   3
Atom  17C    basis set group =>   3
Atom  18C    basis set group =>   3
Atom  19C    basis set group =>   3
Atom  20C    basis set group =>   3
Atom  21C    basis set group =>   3
Atom  22C    basis set group =>   3
Atom  23C    basis set group =>   3
Atom  24C    basis set group =>   3
Atom  25C    basis set group =>   3
Atom  26H    basis set group =>   2
Atom  27H    basis set group =>   2
Atom  28H    basis set group =>   2
Atom  29H    basis set group =>   2
Atom  30H    basis set group =>   2
Atom  31H    basis set group =>   2
Atom  32Pd   basis set group =>   4
Atom  33C    basis set group =>   3
Atom  34C    basis set group =>   3
Atom  35C    basis set group =>   3
Atom  36C    basis set group =>   3
Atom  37C    basis set group =>   3
Atom  38C    basis set group =>   3
Atom  39H    basis set group =>   2
Atom  40H    basis set group =>   2
Atom  41H    basis set group =>   2
Atom  42H    basis set group =>   2
Atom  43H    basis set group =>   2
Atom  44C    basis set group =>   3
Atom  45C    basis set group =>   3
Atom  46C    basis set group =>   3
Atom  47C    basis set group =>   3
Atom  48C    basis set group =>   3
Atom  49C    basis set group =>   3
Atom  50H    basis set group =>   2
Atom  51H    basis set group =>   2
Atom  52H    basis set group =>   2
Atom  53H    basis set group =>   2
Atom  54H    basis set group =>   2
Atom  55C    basis set group =>   3
Atom  56C    basis set group =>   3
Atom  57C    basis set group =>   3
Atom  58C    basis set group =>   3
Atom  59C    basis set group =>   3
Atom  60C    basis set group =>   3
Atom  61H    basis set group =>   2
Atom  62H    basis set group =>   2
Atom  63H    basis set group =>   2
Atom  64H    basis set group =>   2
Atom  65H    basis set group =>   2
Atom  66C    basis set group =>   3
Atom  67C    basis set group =>   3
Atom  68C    basis set group =>   3
Atom  69C    basis set group =>   3
Atom  70C    basis set group =>   3
Atom  71C    basis set group =>   3
Atom  72H    basis set group =>   2
Atom  73H    basis set group =>   2
Atom  74H    basis set group =>   2
Atom  75H    basis set group =>   2
Atom  76H    basis set group =>   2
-------------------------
ECP PARAMETER INFORMATION
-------------------------

 Group 1, Type Pd ECP Def2-ECP (replacing 28 core electrons, lmax=3)

Atom  32Pd   ECP group =>   1



           ************************************************************
           *        Program running with 8 parallel MPI-processes     *
           *              working on a common directory               *
           ************************************************************
------------------------------------------------------------------------------
                             ORCA STARTUP CALCULATIONS
                           -- RI-GTO INTEGRALS CHOSEN --
------------------------------------------------------------------------------
------------------------------------------------------------------------------
                   ___                                                        
                  /   \      - P O W E R E D   B Y -                         
                 /     \                                                     
                 |  |  |   _    _      __       _____    __    __             
                 |  |  |  | |  | |    /  \     |  _  \  |  |  /  |          
                  \  \/   | |  | |   /    \    | | | |  |  | /  /          
                 / \  \   | |__| |  /  /\  \   | |_| |  |  |/  /          
                |  |  |   |  __  | /  /__\  \  |    /   |      \           
                |  |  |   | |  | | |   __   |  |    \   |  |\   \          
                \     /   | |  | | |  |  |  |  | |\  \  |  | \   \       
                 \___/    |_|  |_| |__|  |__|  |_| \__\ |__|  \__/        
                                                                              
                      - O R C A' S   B I G   F R I E N D -                    
                                      &                                       
                       - I N T E G R A L  F E E D E R -                       
                                                                              
 v1 FN, 2020, v2 2021, v3 2022-2024                                           
------------------------------------------------------------------------------


----------------------
SHARK INTEGRAL PACKAGE
----------------------

Number of atoms                             ...     77
Number of basis functions                   ...   1696
Number of shells                            ...    654
Maximum angular momentum                    ...      3
Integral batch strategy                     ... SHARK/LIBINT Hybrid
RI-J (if used) integral strategy            ... SPLIT-RIJ (Revised 2003 algorithm where possible)
Printlevel                                  ...      1
Contraction scheme used                     ... SEGMENTED contraction
Prescreening option                         ... SCHWARTZ
   Thresh                                   ... 2.500e-11
   Tcut                                     ... 2.500e-12
   Tpresel                                  ... 2.500e-12 
Coulomb Range Separation                    ... NOT USED
Exchange Range Separation                   ... NOT USED
Multipole approximations                    ... NOT USED
Finite Nucleus Model                        ... NOT USED
CABS basis                                  ... NOT available
Auxiliary Coulomb fitting basis             ... AVAILABLE
   # of basis functions in Aux-J            ...   2749
   # of shells in Aux-J                     ...    883
   Maximum angular momentum in Aux-J        ...      4
Auxiliary J/K fitting basis                 ... NOT available
Auxiliary Correlation fitting basis         ... NOT available
Auxiliary 'external' fitting basis          ... NOT available

Checking pre-screening integrals            ... done (  0.0 sec) Dimension = 654
   => SHARK Basis and OBASIS are compatible. Storing Pre-screening
Shell pair information
Shell pair cut-off parameter TPreSel        ...   2.5e-12
Total number of shell pairs                 ...    214185
Shell pairs after pre-screening             ...    104422
Total number of primitive shell pairs       ...    661828
Primitive shell pairs kept                  ...    198973
          la=0 lb=0:  24775 shell pairs
          la=1 lb=0:  30706 shell pairs
          la=1 lb=1:   9368 shell pairs
          la=2 lb=0:  14739 shell pairs
          la=2 lb=1:   9315 shell pairs
          la=2 lb=2:   2222 shell pairs
          la=3 lb=0:   6683 shell pairs
          la=3 lb=1:   4262 shell pairs
          la=3 lb=2:   1897 shell pairs
          la=3 lb=3:    455 shell pairs

Checking whether 4 symmetric matrices of dimension 1696 fit in memory
:Max Core in MB      =   3000.00
 MB in use           =    127.08
 MB left             =   2872.92
 MB needed           =     43.92
 Data fit in memory  = YES
Calculating RI/J V-Matrix + Cholesky decomp.... done (  2.0 sec)
Calculating Nuclear repulsion               ... done (  0.0 sec) ENN=   6002.744108119021 Eh

Diagonalization of the overlap matrix:
Smallest eigenvalue                        ... 2.867e-06
Time for diagonalization                   ...    0.714 sec
Threshold for overlap eigenvalues          ... 1.000e-07
Number of eigenvalues below threshold      ... 0
Time for construction of square roots      ...    0.559 sec
Total time needed                          ...    1.328 sec

-------------------
DFT GRID GENERATION
-------------------

General Integration Accuracy     IntAcc      ... 4.959
Radial Grid Type                 RadialGrid  ... OptM3 with GC (2021)
Angular Grid (max. ang.)         AngularGrid ... 6 (Lebedev-590)
Angular grid pruning method      GridPruning ... 4 (adaptive)
Weight generation scheme         WeightScheme... mBecke (2022)
Basis function cutoff            BFCut       ... 1.0000e-11
Integration weight cutoff        WCut        ... 1.0000e-14
Partially contracted basis set               ... off
Rotationally invariant grid construction     ... off
Angular grids for H and He will be reduced by one unit

Total number of grid points                  ...   931349
Total number of batches                      ...    14594
Average number of points per batch           ...       63
Average number of grid points per atom       ...    12095

--------------------
COSX GRID GENERATION
--------------------

GRIDX 1
-------
General Integration Accuracy     IntAcc      ... 4.020
Radial Grid Type                 RadialGrid  ... OptM3 with GC (2021)
Angular Grid (max. ang.)         AngularGrid ... 2 (Lebedev-110)
Angular grid pruning method      GridPruning ... 4 (adaptive)
Weight generation scheme         WeightScheme... mBecke (2022)
Basis function cutoff            BFCut       ... 1.0000e-11
Integration weight cutoff        WCut        ... 1.0000e-14
Partially contracted basis set               ... on
Rotationally invariant grid construction     ... off
Angular grids for H and He will be reduced by one unit

Total number of grid points                  ...   107306
Total number of batches                      ...      879
Average number of points per batch           ...      122
Average number of grid points per atom       ...     1394
UseSFitting                                  ... on

GRIDX 2
-------
General Integration Accuracy     IntAcc      ... 4.338
Radial Grid Type                 RadialGrid  ... OptM3 with GC (2021)
Angular Grid (max. ang.)         AngularGrid ... 3 (Lebedev-194)
Angular grid pruning method      GridPruning ... 4 (adaptive)
Weight generation scheme         WeightScheme... mBecke (2022)
Basis function cutoff            BFCut       ... 1.0000e-11
Integration weight cutoff        WCut        ... 1.0000e-14
Partially contracted basis set               ... on
Rotationally invariant grid construction     ... off
Angular grids for H and He will be reduced by one unit

Total number of grid points                  ...   229447
Total number of batches                      ...     1831
Average number of points per batch           ...      125
Average number of grid points per atom       ...     2980
UseSFitting                                  ... on

GRIDX 3
-------
General Integration Accuracy     IntAcc      ... 4.871
Radial Grid Type                 RadialGrid  ... OptM3 with GC (2021)
Angular Grid (max. ang.)         AngularGrid ... 4 (Lebedev-302)
Angular grid pruning method      GridPruning ... 4 (adaptive)
Weight generation scheme         WeightScheme... mBecke (2022)
Basis function cutoff            BFCut       ... 1.0000e-11
Integration weight cutoff        WCut        ... 1.0000e-14
Partially contracted basis set               ... on
Rotationally invariant grid construction     ... off
Angular grids for H and He will be reduced by one unit

Total number of grid points                  ...   421122
Total number of batches                      ...     3328
Average number of points per batch           ...      126
Average number of grid points per atom       ...     5469
UseSFitting                                  ... on
Grids setup in  61.8 sec
Initializing property integral containers    ... done (  0.0 sec)

SHARK setup successfully completed in  75.1 seconds

Maximum memory used throughout the entire STARTUP-calculation: 304.5 MB


           ************************************************************
           *        Program running with 8 parallel MPI-processes     *
           *              working on a common directory               *
           ************************************************************
-------------------------------------------------------------------------------
                                 ORCA GUESS
                   Start orbitals & Density for SCF / CASSCF
-------------------------------------------------------------------------------

------------
SCF SETTINGS
------------
Hamiltonian:
 Density Functional     Method          .... DFT(GTOs)
 Exchange Functional    Exchange        .... PBE
   PBE kappa parameter   XKappa         ....  0.804000
   PBE mue parameter    XMuePBE         ....  0.219520
 Correlation Functional Correlation     .... PBE
   PBE beta parameter  CBetaPBE         ....  0.066725
 LDA part of GGA corr.  LDAOpt          .... PW91-LDA
 Gradients option       PostSCFGGA      .... off
 Hybrid DFT is turned on
   Fraction HF Exchange ScalHFX         ....  0.250000
   Scaling of DF-GGA-X  ScalDFX         ....  0.750000
   Scaling of DF-GGA-C  ScalDFC         ....  1.000000
   Scaling of DF-LDA-C  ScalLDAC        ....  1.000000
   Perturbative correction              ....  0.000000
   NL short-range parameter             ....  6.900000
 RI-approximation to the Coulomb term is turned on
   Number of AuxJ basis functions       .... 2749
   RIJ-COSX (HFX calculated with COS-X)).... on


General Settings:
 Integral files         IntName         .... tddft
 Hartree-Fock type      HFTyp           .... RHF
 Total Charge           Charge          ....    0
 Multiplicity           Mult            ....    1
 Number of Electrons    NEL             ....  338
 Basis Dimension        Dim             .... 1696
 Nuclear Repulsion      ENuc            ....   6002.7441081190 Eh

Convergence Acceleration:
 AO-DIIS                CNVDIIS         .... on
   Start iteration      DIISMaxIt       ....    12
   Startup error        DIISStart       ....  0.200000
   # of expansion vecs  DIISMaxEq       ....     5
   Bias factor          DIISBfac        ....   1.050
   Max. coefficient     DIISMaxC        ....  10.000
 MO-DIIS                CNVKDIIS        .... off
 Trust-Rad. Augm. Hess. CNVTRAH         .... auto
   Auto Start mean grad. ratio tolernc. ....  1.125000
   Auto Start start iteration           ....    50
   Auto Start num. interpolation iter.  ....    10
   Max. Number of Micro iterations      ....    24
   Max. Number of Macro iterations      .... Maxiter - #DIIS iter
   Number of Davidson start vectors     ....     2
   Converg. threshold    (grad. norm)   ....   1.000e-05
   Grad. Scal. Fac. for Micro threshold ....   0.100
   Minimum threshold for Micro iter.    ....   1.000e-02
   NR start threshold (gradient norm)   ....   1.000e-04
   Initial trust radius                 ....   0.400
   Minimum AH scaling param. (alpha)    ....   1.000
   Maximum AH scaling param. (alpha)    .... 1000.000
   Quad. conv. algorithm                .... NR
   White noise on init. David. guess    .... on
   Maximum white noise                  ....   0.010
   Pseudo random numbers                .... off
   Inactive MOs                         .... canonical
   Orbital update algorithm             .... Taylor
   Preconditioner                       .... Diag
   Full preconditioner red. dimension   ....   250
 SOSCF                 CNVSOSCF           .... on
   Start iteration     SOSCFMaxIt         ....   150
   Startup grad/error  SOSCFStart         ....  0.003300
   Hessian update      SOSCFHessUp        .... L-BFGS
   Autom. constraints  SOSCFAutoConstrain .... off
 Level Shifting         CNVShift        .... on
   Level shift para.    LevelShift      ....    0.2500
   Turn off err/grad.   ShiftErr        ....    0.0010
 Zerner damping         CNVZerner       .... off
 Static damping         CNVDamp         .... on
   Fraction old density DampFac         ....    0.7000
   Max. Damping (<1)    DampMax         ....    0.9800
   Min. Damping (>=0)   DampMin         ....    0.0000
   Turn off err/grad.   DampErr         ....    0.1000

SCF Procedure:
 Maximum # iterations   MaxIter         ....   125
 SCF integral mode      SCFMode         .... Direct
   Integral package                     .... SHARK and LIBINT hybrid scheme
 Reset frequency        DirectResetFreq ....    20
 Integral Threshold     Thresh          ....  2.500e-11 Eh
 Primitive CutOff       TCut            ....  2.500e-12 Eh

Convergence Tolerance:
 Convergence Check Mode ConvCheckMode   .... Total+1el-Energy
 Convergence forced     ConvForced      .... 1
 Energy Change          TolE            ....  1.000e-08 Eh
 1-El. energy change                    ....  1.000e-05 Eh
 Orbital Gradient       TolG            ....  1.000e-05
 Orbital Rotation angle TolX            ....  1.000e-05
 DIIS Error             TolErr          ....  5.000e-07

------------------------------
INITIAL GUESS: MODEL POTENTIAL
------------------------------
Loading Hartree-Fock densities                     ... done
Atomic calculation to generate a density for atom 32 (Pd with ECP)
  Multiplicity assumed   :    3
  Atomic configuration   : 1s2 2s2 2p6 3s2 3p6 4s2 3d10 4p6 5s2 4d8 
  Number of open shells  : 1
  Command: /opt/orca/orca tddft_atom46.inp "" > tddft_atom46.out
Returned from the atomic calculation with res=0
Calculating cut-offs                               ... done
Initializing the effective Hamiltonian             ... done
Setting up the integral package (SHARK)            ... done
Starting the Coulomb interaction                   ... done (   7.4 sec)
Making the grid                                    ... done (   2.0 sec)
Mapping shells                                     ... done
Starting the XC term evaluation                    ... done (   2.1 sec)
  promolecular density results
     # of electrons  =    365.974760046
     EX              =   -398.259369015
     EC              =    -13.259716790
     EX+EC           =   -411.519085805
Transforming the Hamiltonian                       ... done (   0.6 sec)
Diagonalizing the Hamiltonian                      ... done (   0.8 sec)
Back transforming the eigenvectors                 ... done (   1.8 sec)
Now organizing SCF variables                       ... done
                      ------------------
                      INITIAL GUESS DONE (  18.6 sec)
                      ------------------
             **** ENERGY FILE WAS UPDATED (tddft.en.tmp) ****
Finished Guess after  23.3 sec
Maximum memory used throughout the entire GUESS-calculation: 206.4 MB


           ************************************************************
           *        Program running with 8 parallel MPI-processes     *
           *              working on a common directory               *
           ************************************************************

-------------------------------------------------------------------------------------------
                                      ORCA LEAN-SCF
                              memory conserving SCF solver
-------------------------------------------------------------------------------------------

--------------------
CPCM SOLVATION MODEL
--------------------
CPCM parameters:
  Epsilon                                         ...       2.3870
  Refrac                                          ...       1.4961
  Rsolv                                           ...       1.3000
  Surface type                                    ... GAUSSIAN VDW
  Discretization scheme                           ... Constant charge density
    Threshold for H atoms                         ...       5.0000 (charges/Ang^2)
    Threshold for non-H atoms                     ...       5.0000 (charges/Ang^2)
  Epsilon function type                           ...         CPCM
Solvent:                                          ... TOLUENE
Radii:
  Scheme                                          ... Element-dependent radii
  Radius for N  used is    3.5149 Bohr (=   1.8600 Ang.)
  Radius for H  used is    2.4944 Bohr (=   1.3200 Ang.)
  Radius for C  used is    3.8550 Bohr (=   2.0400 Ang.)
  Radius for Pd used is    3.6963 Bohr (=   1.9560 Ang.)
Calculating surface                               ...        done! (  0.1s)
Cavity surface points                             ...         6812
Cavity Volume                                     ...    4937.0056
Cavity Surface-area                               ...    2293.6117
Calculating surface distance matrix               ...        done! (  1.2s)
Performing Cholesky decomposition & store         ...        done! (  9.4s)
Overall time for CPCM initialization              ...                10.6s

----------------------------------------D-I-I-S--------------------------------------------
Iteration    Energy (Eh)           Delta-E    RMSDP     MaxDP     DIISErr   Damp  Time(sec)
-------------------------------------------------------------------------------------------
               ***  Starting incremental Fock matrix formation  ***
    1    -2038.1152108261967442     0.00e+00  2.17e-03  1.07e-01  4.50e-01  0.700 337.7
    2    -2038.4899778792396319    -3.75e-01  1.78e-03  7.97e-02  3.09e-01  0.700 158.9
    3    -2038.6686254995920535    -1.79e-01  1.12e-03  4.83e-02  2.12e-01  0.700 148.3
                               ***Turning on AO-DIIS***
    4    -2038.7694647862008424    -1.01e-01  6.03e-04  3.39e-02  1.47e-01  0.700 172.6
    5    -2038.8381466217797424    -6.87e-02  3.81e-04  2.58e-02  1.03e-01  0.700 165.4
    6    -2038.8854063673452401    -4.73e-02  2.71e-04  1.88e-02  7.21e-02  0.700 155.6
    7    -2038.9182941294366174    -3.29e-02  6.49e-04  4.45e-02  5.06e-02  0.000 163.3
                              *** Initializing SOSCF ***
---------------------------------------S-O-S-C-F--------------------------------------
Iteration    Energy (Eh)           Delta-E    RMSDP     MaxDP     MaxGrad    Time(sec)
--------------------------------------------------------------------------------------
    8    -2038.9946847258588605    -7.64e-02  4.13e-05  1.34e-03  4.91e-04   166.5
               *** Restarting incremental Fock matrix formation ***
    9    -2038.9946859982537717    -1.27e-06  1.37e-04  3.31e-03  1.93e-04   337.1
   10    -2038.9946858499897644     1.48e-07  3.46e-05  1.19e-03  1.95e-04   249.7
   11    -2038.9946880452289406    -2.20e-06  3.47e-05  1.37e-03  6.31e-05   219.6
   12    -2038.9946879281906149     1.17e-07  1.21e-05  4.21e-04  1.10e-04   194.3
   13    -2038.9946882689564518    -3.41e-07  2.83e-05  9.33e-04  4.15e-05   171.2
   14    -2038.9946883219454321    -5.30e-08  1.57e-05  7.06e-04  3.78e-05   179.2
   15    -2038.9946883099719344     1.20e-08  1.69e-05  6.26e-04  1.89e-06   167.2
                  *** Gradient check signals convergence ***

               *****************************************************
               *                     SUCCESS                       *
               *           SCF CONVERGED AFTER  15 CYCLES          *
               *****************************************************

Recomputing exchange energy using gridx3       ... done (  483.194 sec)
Old exchange energy                            :    -69.149813780 Eh
New exchange energy                            :    -69.149821428 Eh
Exchange energy change after final integration :     -0.000007648 Eh
Total energy after final integration           :  -2038.994695796 Eh
             **** ENERGY FILE WAS UPDATED (tddft.en.tmp) ****

----------------
TOTAL SCF ENERGY
----------------

Total Energy       :      -2038.99469579563515 Eh          -55483.86642 eV

Components:
Nuclear Repulsion  :       6002.74410811902089 Eh          163342.97138 eV
Electronic Energy  :      -8041.72660138693482 Eh         -218826.50575 eV
One Electron Energy:     -14771.29713642128809 Eh         -401947.42969 eV
Two Electron Energy:       6729.57053503435327 Eh          183120.92395 eV
CPCM Dielectric    :         -0.01219487994378 Eh              -0.33184 eV

Virial components:
Potential Energy   :      -3988.28019380491287 Eh         -108526.62146 eV
Kinetic Energy     :       1949.28549800927772 Eh           53042.75504 eV
Virial Ratio       :          2.04602157963930

DFT components:
N(Alpha)           :      168.999977895595 electrons
N(Beta)            :      168.999977895595 electrons
N(Total)           :      337.999955791189 electrons
E(X)               :     -207.055666079253 Eh       
E(C)               :      -11.602006383842 Eh       
E(XC)              :     -218.657672463095 Eh       

CPCM Solvation Model Properties:
Surface-charge          :         -0.04903703234996
Corrected charge        :          0.00000000000000
Outlying charge corr.   :          0.00005484362737 Eh               0.00149 eV
Free-energy (cav+disp)  :  This term is not implemented in the current solvation scheme

---------------
SCF CONVERGENCE
---------------

  Last Energy change         ...   -1.1973e-08  Tolerance :   1.0000e-08
  Last MAX-Density change    ...    6.2575e-04  Tolerance :   1.0000e-07
  Last RMS-Density change    ...    1.6894e-05  Tolerance :   5.0000e-09
  Last DIIS Error            ...    4.9101e-04  Tolerance :   5.0000e-07
  Last Orbital Gradient      ...    1.8874e-06  Tolerance :   1.0000e-05
  Last Orbital Rotation      ...    6.9107e-06  Tolerance :   1.0000e-05


----------------
ORBITAL ENERGIES
----------------

  NO   OCC          E(Eh)            E(eV) 
   0   2.0000     -14.411972      -392.1697 
   1   2.0000     -14.411965      -392.1695 
   2   2.0000     -14.411945      -392.1690 
   3   2.0000     -14.411939      -392.1688 
   4   2.0000     -10.267210      -279.3850 
   5   2.0000     -10.267192      -279.3845 
   6   2.0000     -10.267167      -279.3838 
   7   2.0000     -10.267150      -279.3833 
   8   2.0000     -10.267111      -279.3823 
   9   2.0000     -10.267107      -279.3822 
  10   2.0000     -10.267094      -279.3818 
  11   2.0000     -10.267090      -279.3817 
  12   2.0000     -10.252234      -278.9775 
  13   2.0000     -10.252147      -278.9751 
  14   2.0000     -10.252107      -278.9740 
  15   2.0000     -10.252098      -278.9738 
  16   2.0000     -10.245262      -278.7877 
  17   2.0000     -10.245200      -278.7861 
  18   2.0000     -10.245168      -278.7852 
  19   2.0000     -10.245159      -278.7850 
  20   2.0000     -10.230887      -278.3966 
  21   2.0000     -10.230864      -278.3960 
  22   2.0000     -10.230860      -278.3959 
  23   2.0000     -10.230850      -278.3956 
  24   2.0000     -10.230849      -278.3955 
  25   2.0000     -10.230820      -278.3948 
  26   2.0000     -10.230816      -278.3946 
  27   2.0000     -10.230803      -278.3943 
  28   2.0000     -10.230382      -278.3828 
  29   2.0000     -10.230356      -278.3821 
  30   2.0000     -10.230354      -278.3821 
  31   2.0000     -10.230342      -278.3817 
  32   2.0000     -10.230150      -278.3765 
  33   2.0000     -10.230134      -278.3761 
  34   2.0000     -10.230132      -278.3761 
  35   2.0000     -10.230121      -278.3758 
  36   2.0000     -10.229609      -278.3618 
  37   2.0000     -10.229586      -278.3612 
  38   2.0000     -10.229585      -278.3612 
  39   2.0000     -10.229572      -278.3608 
  40   2.0000     -10.226392      -278.2743 
  41   2.0000     -10.226388      -278.2742 
  42   2.0000     -10.226370      -278.2737 
  43   2.0000     -10.226366      -278.2736 
  44   2.0000     -10.225574      -278.2520 
  45   2.0000     -10.225569      -278.2519 
  46   2.0000     -10.225551      -278.2514 
  47   2.0000     -10.225547      -278.2513 
  48   2.0000      -3.529732       -96.0489 
  49   2.0000      -2.210813       -60.1593 
  50   2.0000      -2.210811       -60.1592 
  51   2.0000      -2.174094       -59.1601 
  52   2.0000      -1.006007       -27.3748 
  53   2.0000      -0.995656       -27.0932 
  54   2.0000      -0.995649       -27.0930 
  55   2.0000      -0.986926       -26.8556 
  56   2.0000      -0.899248       -24.4698 
  57   2.0000      -0.895023       -24.3548 
  58   2.0000      -0.894988       -24.3539 
  59   2.0000      -0.893161       -24.3042 
  60   2.0000      -0.855918       -23.2907 
  61   2.0000      -0.837610       -22.7925 
  62   2.0000      -0.837593       -22.7921 
  63   2.0000      -0.818966       -22.2852 
  64   2.0000      -0.799349       -21.7514 
  65   2.0000      -0.798920       -21.7397 
  66   2.0000      -0.798913       -21.7395 
  67   2.0000      -0.795658       -21.6509 
  68   2.0000      -0.774166       -21.0661 
  69   2.0000      -0.774116       -21.0648 
  70   2.0000      -0.774095       -21.0642 
  71   2.0000      -0.774082       -21.0639 
  72   2.0000      -0.769640       -20.9430 
  73   2.0000      -0.762847       -20.7581 
  74   2.0000      -0.762836       -20.7578 
  75   2.0000      -0.747726       -20.3467 
  76   2.0000      -0.737555       -20.0699 
  77   2.0000      -0.686508       -18.6808 
  78   2.0000      -0.686485       -18.6802 
  79   2.0000      -0.644919       -17.5491 
  80   2.0000      -0.629402       -17.1269 
  81   2.0000      -0.629216       -17.1218 
  82   2.0000      -0.629124       -17.1193 
  83   2.0000      -0.629064       -17.1177 
  84   2.0000      -0.625762       -17.0278 
  85   2.0000      -0.625497       -17.0207 
  86   2.0000      -0.618387       -16.8272 
  87   2.0000      -0.617417       -16.8008 
  88   2.0000      -0.609580       -16.5875 
  89   2.0000      -0.586469       -15.9586 
  90   2.0000      -0.586441       -15.9579 
  91   2.0000      -0.576591       -15.6898 
  92   2.0000      -0.571622       -15.5546 
  93   2.0000      -0.570353       -15.5201 
  94   2.0000      -0.549540       -14.9537 
  95   2.0000      -0.549505       -14.9528 
  96   2.0000      -0.549150       -14.9431 
  97   2.0000      -0.540798       -14.7159 
  98   2.0000      -0.536917       -14.6102 
  99   2.0000      -0.536877       -14.6092 
 100   2.0000      -0.522031       -14.2052 
 101   2.0000      -0.510840       -13.9007 
 102   2.0000      -0.510731       -13.8977 
 103   2.0000      -0.479951       -13.0601 
 104   2.0000      -0.479382       -13.0447 
 105   2.0000      -0.477547       -12.9947 
 106   2.0000      -0.477427       -12.9914 
 107   2.0000      -0.475308       -12.9338 
 108   2.0000      -0.468747       -12.7552 
 109   2.0000      -0.468712       -12.7543 
 110   2.0000      -0.468331       -12.7439 
 111   2.0000      -0.466180       -12.6854 
 112   2.0000      -0.448000       -12.1907 
 113   2.0000      -0.442566       -12.0428 
 114   2.0000      -0.442123       -12.0308 
 115   2.0000      -0.442002       -12.0275 
 116   2.0000      -0.440867       -11.9966 
 117   2.0000      -0.438876       -11.9424 
 118   2.0000      -0.438832       -11.9412 
 119   2.0000      -0.436328       -11.8731 
 120   2.0000      -0.435562       -11.8522 
 121   2.0000      -0.435379       -11.8473 
 122   2.0000      -0.435372       -11.8471 
 123   2.0000      -0.432834       -11.7780 
 124   2.0000      -0.428255       -11.6534 
 125   2.0000      -0.419936       -11.4270 
 126   2.0000      -0.419903       -11.4261 
 127   2.0000      -0.418650       -11.3920 
 128   2.0000      -0.415046       -11.2940 
 129   2.0000      -0.414137       -11.2692 
 130   2.0000      -0.399463       -10.8699 
 131   2.0000      -0.394205       -10.7269 
 132   2.0000      -0.394197       -10.7267 
 133   2.0000      -0.389564       -10.6006 
 134   2.0000      -0.383116       -10.4251 
 135   2.0000      -0.383065       -10.4237 
 136   2.0000      -0.380841       -10.3632 
 137   2.0000      -0.371388       -10.1060 
 138   2.0000      -0.364657        -9.9228 
 139   2.0000      -0.363733        -9.8977 
 140   2.0000      -0.360994        -9.8231 
 141   2.0000      -0.360923        -9.8212 
 142   2.0000      -0.359889        -9.7931 
 143   2.0000      -0.359835        -9.7916 
 144   2.0000      -0.358839        -9.7645 
 145   2.0000      -0.357846        -9.7375 
 146   2.0000      -0.337174        -9.1750 
 147   2.0000      -0.337114        -9.1733 
 148   2.0000      -0.334702        -9.1077 
 149   2.0000      -0.320594        -8.7238 
 150   2.0000      -0.320556        -8.7228 
 151   2.0000      -0.311585        -8.4786 
 152   2.0000      -0.299173        -8.1409 
 153   2.0000      -0.298793        -8.1306 
 154   2.0000      -0.282414        -7.6849 
 155   2.0000      -0.276204        -7.5159 
 156   2.0000      -0.273943        -7.4544 
 157   2.0000      -0.272341        -7.4108 
 158   2.0000      -0.272154        -7.4057 
 159   2.0000      -0.271021        -7.3749 
 160   2.0000      -0.270035        -7.3480 
 161   2.0000      -0.269744        -7.3401 
 162   2.0000      -0.267724        -7.2851 
 163   2.0000      -0.266575        -7.2539 
 164   2.0000      -0.263067        -7.1584 
 165   2.0000      -0.243689        -6.6311 
 166   2.0000      -0.243671        -6.6306 
 167   2.0000      -0.213620        -5.8129 
 168   2.0000      -0.211255        -5.7485 
 169   0.0000      -0.091091        -2.4787 
 170   0.0000      -0.091019        -2.4768 
 171   0.0000      -0.035163        -0.9568 
 172   0.0000      -0.030330        -0.8253 
 173   0.0000      -0.015528        -0.4225 
 174   0.0000      -0.014297        -0.3890 
 175   0.0000      -0.014280        -0.3886 
 176   0.0000      -0.013602        -0.3701 
 177   0.0000      -0.012645        -0.3441 
 178   0.0000      -0.012295        -0.3346 
 179   0.0000      -0.011055        -0.3008 
*Only the first 10 virtual orbitals were printed.

                    ********************************
                    * MULLIKEN POPULATION ANALYSIS *
                    ********************************

-----------------------
MULLIKEN ATOMIC CHARGES
-----------------------
   0 N :   -0.225017
   1 H :    0.159775
   2 C :   -0.224516
   3 C :   -0.224143
   4 N :   -0.225018
   5 C :   -0.223976
   6 H :    0.159995
   7 C :    0.265118
   8 N :   -0.224959
   9 C :   -0.223785
  10 C :   -0.149637
  11 C :    0.264431
  12 N :   -0.224975
  13 C :   -0.224481
  14 C :    0.265311
  15 C :    0.265959
  16 C :    0.265297
  17 C :    0.266763
  18 C :   -0.224133
  19 C :   -0.146844
  20 C :   -0.149857
  21 C :   -0.224047
  22 C :    0.265065
  23 C :   -0.224842
  24 C :   -0.142214
  25 C :    0.265036
  26 H :    0.159737
  27 H :    0.159965
  28 H :    0.159773
  29 H :    0.160246
  30 H :    0.160203
  31 H :    0.159893
  32 Pd:    0.204388
  33 C :    0.006964
  34 C :   -0.168290
  35 C :   -0.170708
  36 C :   -0.098403
  37 C :   -0.170856
  38 C :   -0.167818
  39 H :    0.140575
  40 H :    0.135411
  41 H :    0.137793
  42 H :    0.135529
  43 H :    0.140645
  44 C :    0.010722
  45 C :   -0.173023
  46 C :   -0.167902
  47 C :   -0.100124
  48 C :   -0.167951
  49 C :   -0.173241
  50 H :    0.140585
  51 H :    0.135599
  52 H :    0.137811
  53 H :    0.135612
  54 H :    0.140570
  55 C :    0.007984
  56 C :   -0.168843
  57 C :   -0.170302
  58 C :   -0.098643
  59 C :   -0.170390
  60 C :   -0.169178
  61 H :    0.140685
  62 H :    0.135594
  63 H :    0.137782
  64 H :    0.135424
  65 H :    0.140616
  66 C :    0.013163
  67 C :   -0.178473
  68 C :   -0.164964
  69 C :   -0.101668
  70 C :   -0.164888
  71 C :   -0.178166
  72 H :    0.140525
  73 H :    0.135704
  74 H :    0.137834
  75 H :    0.135691
  76 H :    0.140499
Sum of atomic charges:   -0.0000000

--------------------------------
MULLIKEN REDUCED ORBITAL CHARGES
--------------------------------
  0 N s       :     3.565446  s :     3.565446
      pz      :     1.368772  p :     3.573123
      px      :     1.152629
      py      :     1.051723
      dz2     :     0.005573  d :     0.082278
      dxz     :     0.012768
      dyz     :     0.015820
      dx2y2   :     0.023026
      dxy     :     0.025091
      f0      :     0.000722  f :     0.004168
      f+1     :     0.000456
      f-1     :     0.000468
      f+2     :     0.000232
      f-2     :     0.000611
      f+3     :     0.000643
      f-3     :     0.001035

  1 H s       :     0.817459  s :     0.817459
      pz      :     0.004829  p :     0.022766
      px      :     0.008734
      py      :     0.009203

  2 C s       :     3.267152  s :     3.267152
      pz      :     0.987238  p :     2.861558
      px      :     0.922738
      py      :     0.951581
      dz2     :     0.005649  d :     0.088118
      dxz     :     0.010079
      dyz     :     0.019798
      dx2y2   :     0.019552
      dxy     :     0.033039
      f0      :     0.001458  f :     0.007688
      f+1     :     0.000787
      f-1     :     0.000623
      f+2     :     0.000940
      f-2     :     0.000418
      f+3     :     0.002273
      f-3     :     0.001189

  3 C s       :     3.266766  s :     3.266766
      pz      :     0.987495  p :     2.861556
      px      :     0.950133
      py      :     0.923928
      dz2     :     0.005288  d :     0.088132
      dxz     :     0.020362
      dyz     :     0.009927
      dx2y2   :     0.019494
      dxy     :     0.033061
      f0      :     0.001496  f :     0.007689
      f+1     :     0.000545
      f-1     :     0.000797
      f+2     :     0.000984
      f-2     :     0.000415
      f+3     :     0.001167
      f-3     :     0.002286

  4 N s       :     3.565280  s :     3.565280
      pz      :     1.369585  p :     3.573292
      px      :     1.049173
      py      :     1.154534
      dz2     :     0.005502  d :     0.082279
      dxz     :     0.016079
      dyz     :     0.012570
      dx2y2   :     0.023014
      dxy     :     0.025115
      f0      :     0.000727  f :     0.004168
      f+1     :     0.000457
      f-1     :     0.000463
      f+2     :     0.000229
      f-2     :     0.000609
      f+3     :     0.001041
      f-3     :     0.000643

  5 C s       :     3.266542  s :     3.266542
      pz      :     0.988705  p :     2.861599
      px      :     0.955649
      py      :     0.917244
      dz2     :     0.005450  d :     0.088147
      dxz     :     0.018187
      dyz     :     0.011889
      dx2y2   :     0.020907
      dxy     :     0.031714
      f0      :     0.001486  f :     0.007689
      f+1     :     0.000585
      f-1     :     0.000777
      f+2     :     0.001253
      f-2     :     0.000130
      f+3     :     0.001286
      f-3     :     0.002173

  6 H s       :     0.817229  s :     0.817229
      pz      :     0.004887  p :     0.022776
      px      :     0.007012
      py      :     0.010877

  7 C s       :     3.146681  s :     3.146681
      pz      :     0.935713  p :     2.403492
      px      :     0.758714
      py      :     0.709065
      dz2     :     0.004759  d :     0.169952
      dxz     :     0.030707
      dyz     :     0.038838
      dx2y2   :     0.049339
      dxy     :     0.046309
      f0      :     0.002175  f :     0.014756
      f+1     :     0.000951
      f-1     :     0.001127
      f+2     :     0.000720
      f-2     :     0.002357
      f+3     :     0.003684
      f-3     :     0.003742

  8 N s       :     3.565333  s :     3.565333
      pz      :     1.369900  p :     3.573179
      px      :     1.049088
      py      :     1.154191
      dz2     :     0.005517  d :     0.082280
      dxz     :     0.016090
      dyz     :     0.012566
      dx2y2   :     0.023005
      dxy     :     0.025101
      f0      :     0.000725  f :     0.004168
      f+1     :     0.000458
      f-1     :     0.000464
      f+2     :     0.000230
      f-2     :     0.000608
      f+3     :     0.001040
      f-3     :     0.000642

  9 C s       :     3.265996  s :     3.265996
      pz      :     0.988001  p :     2.861971
      px      :     0.956002
      py      :     0.917968
      dz2     :     0.005531  d :     0.088130
      dxz     :     0.018210
      dyz     :     0.011821
      dx2y2   :     0.020885
      dxy     :     0.031684
      f0      :     0.001477  f :     0.007688
      f+1     :     0.000582
      f-1     :     0.000786
      f+2     :     0.001255
      f-2     :     0.000138
      f+3     :     0.001282
      f-3     :     0.002170

 10 C s       :     3.469542  s :     3.469542
      pz      :     0.966837  p :     2.539029
      px      :     0.774545
      py      :     0.797647
      dz2     :     0.003935  d :     0.131421
      dxz     :     0.023981
      dyz     :     0.025310
      dx2y2   :     0.031314
      dxy     :     0.046881
      f0      :     0.001563  f :     0.009644
      f+1     :     0.000761
      f-1     :     0.000780
      f+2     :     0.000884
      f-2     :     0.001127
      f+3     :     0.002666
      f-3     :     0.001862

 11 C s       :     3.147274  s :     3.147274
      pz      :     0.938542  p :     2.403536
      px      :     0.754450
      py      :     0.710545
      dz2     :     0.004783  d :     0.170000
      dxz     :     0.029179
      dyz     :     0.040202
      dx2y2   :     0.047062
      dxy     :     0.048773
      f0      :     0.002175  f :     0.014759
      f+1     :     0.000885
      f-1     :     0.001197
[...]
  0-1A  ->  1-1A    2.451318   19771.2   505.8   0.000133727   0.00002  -0.00248  -0.00345   0.00022
  0-1A  ->  2-1A    2.451404   19771.9   505.8   0.000032860   0.00000   0.00182  -0.00076  -0.00075
  0-1A  ->  3-1A    3.138145   25310.9   395.1   1.533662434   0.26530  -0.34378  -0.38125   0.04199
  0-1A  ->  4-1A    3.139216   25319.5   395.0   1.521977171   0.26337  -0.38199   0.34189  -0.02379
  0-1A  ->  5-1A    3.148222   25392.1   393.8   0.000017448   0.00000  -0.00135   0.00109  -0.00011
  0-1A  ->  6-1A    3.198342   25796.4   387.7   0.000014017   0.00000  -0.00117  -0.00105   0.00012
  0-1A  ->  7-1A    3.256267   26263.6   380.8   0.000003390   0.00000   0.00056  -0.00055   0.00002
  0-1A  ->  8-1A    3.482505   28088.3   356.0   0.000000419   0.00000   0.00018   0.00022  -0.00003
  0-1A  ->  9-1A    3.587986   28939.1   345.6   0.000000037   0.00000   0.00004  -0.00007   0.00002
  0-1A  -> 10-1A    3.589249   28949.2   345.4   0.000001189   0.00000  -0.00029  -0.00039   0.00004
  0-1A  -> 11-1A    3.626826   29252.3   341.9   0.000603594   0.00012   0.00664   0.00870  -0.00093
  0-1A  -> 12-1A    3.742125   30182.3   331.3   0.000000376   0.00000   0.00025   0.00013  -0.00002
  0-1A  -> 13-1A    3.742587   30186.0   331.3   0.000000141   0.00000   0.00010  -0.00014   0.00000
  0-1A  -> 14-1A    3.783092   30512.7   327.7   0.000145894   0.00003   0.00439  -0.00333   0.00022
  0-1A  -> 15-1A    3.784314   30522.6   327.6   0.000007253   0.00000  -0.00096   0.00077  -0.00001
  0-1A  -> 16-1A    3.995827   32228.5   310.3   0.052876397   0.01165   0.07806  -0.07433   0.00527
  0-1A  -> 17-1A    3.997368   32241.0   310.2   0.054323627   0.01197  -0.07535  -0.07884   0.00876
  0-1A  -> 18-1A    4.098860   33059.5   302.5   0.000339785   0.00008  -0.00562  -0.00667   0.00079
  0-1A  -> 19-1A    4.104848   33107.8   302.0   0.000251994   0.00006   0.00579  -0.00478   0.00076
  0-1A  -> 20-1A    4.132345   33329.6   300.0   0.000026789   0.00001  -0.00116  -0.00216   0.00030
  0-1A  -> 21-1A    4.140331   33394.0   299.5   0.000547735   0.00013  -0.00730  -0.00841   0.00100
  0-1A  -> 22-1A    4.232925   34140.8   292.9   0.001039125   0.00024   0.00068  -0.00010   0.01556
  0-1A  -> 23-1A    4.242971   34221.9   292.2   0.002080158   0.00049   0.00463  -0.00250   0.02142
  0-1A  -> 24-1A    4.249054   34270.9   291.8   0.003844730   0.00090   0.01954  -0.01431   0.01772
  0-1A  -> 25-1A    4.256572   34331.6   291.3   0.000220763   0.00005  -0.00440  -0.00569   0.00039
  0-1A  -> 26-1A    4.263539   34387.8   290.8   0.000003697   0.00000   0.00070   0.00061  -0.00004
  0-1A  -> 27-1A    4.276703   34493.9   289.9   0.000017725   0.00000  -0.00053   0.00021   0.00196
  0-1A  -> 28-1A    4.283372   34547.7   289.5   0.000028198   0.00001  -0.00084   0.00083   0.00230
  0-1A  -> 29-1A    4.327699   34905.2   286.5   0.000301597   0.00007  -0.00320   0.00335   0.00711
  0-1A  -> 30-1A    4.329606   34920.6   286.4   0.000098753   0.00002  -0.00312  -0.00372   0.00004

------------------------------------------------------------------------------------------
                     CD SPECTRUM VIA TRANSITION ELECTRIC DIPOLE MOMENTS    
------------------------------------------------------------------------------------------
     Transition      Energy     Energy  Wavelength    R        MX        MY        MZ   
                      (eV)      (cm-1)    (nm)   (1e40*cgs)   (au)      (au)      (au)  
------------------------------------------------------------------------------------------
  0-1A  ->  1-1A    2.451318   19771.2   505.8    0.06201  -0.00171  -0.00201   0.00017
  0-1A  ->  2-1A    2.451404   19771.9   505.8   -0.00166   0.00012   0.00052   0.00015
  0-1A  ->  3-1A    3.138145   25310.9   395.1    6.14460  -0.00147  -0.00260   0.00004
  0-1A  ->  4-1A    3.139216   25319.5   395.0    2.49783  -0.00087   0.00053  -0.00405
  0-1A  ->  5-1A    3.148222   25392.1   393.8   -0.22653   0.01828   0.10795   1.12970
  0-1A  ->  6-1A    3.198342   25796.4   387.7   -0.00611   0.00054   0.00048  -0.00345
  0-1A  ->  7-1A    3.256267   26263.6   380.8    0.01238   0.00321  -0.00190   0.00549
  0-1A  ->  8-1A    3.482505   28088.3   356.0   -0.00494  -0.00342  -0.00370   0.00038
  0-1A  ->  9-1A    3.587986   28939.1   345.6   -0.00753  -0.01683   0.01340   0.00338
  0-1A  -> 10-1A    3.589249   28949.2   345.4    0.03861  -0.01304  -0.01686   0.00142
  0-1A  -> 11-1A    3.626826   29252.3   341.9   -0.01907  -0.00041  -0.00031  -0.00012
  0-1A  -> 12-1A    3.742125   30182.3   331.3   -0.21671  -0.14509  -0.26682   0.03228
  0-1A  -> 13-1A    3.742587   30186.0   331.3    0.13756   0.26897  -0.14349   0.02595
  0-1A  -> 14-1A    3.783092   30512.7   327.7   -0.02033  -0.00083   0.00011  -0.00941
  0-1A  -> 15-1A    3.784314   30522.6   327.6   -0.00577   0.00153  -0.00015   0.00216
  0-1A  -> 16-1A    3.995827   32228.5   310.3    1.65884   0.00364  -0.00293   0.00122
  0-1A  -> 17-1A    3.997368   32241.0   310.2   -1.47149   0.00264   0.00315  -0.00046
  0-1A  -> 18-1A    4.098860   33059.5   302.5   -2.56889   0.06007   0.07054  -0.00897
  0-1A  -> 19-1A    4.104848   33107.8   302.0    2.33212   0.07544  -0.06236   0.01529
  0-1A  -> 20-1A    4.132345   33329.6   300.0    0.01013  -0.00171  -0.00065  -0.00010
  0-1A  -> 21-1A    4.140331   33394.0   299.5   -0.12332   0.00248   0.00251  -0.00084
  0-1A  -> 22-1A    4.232925   34140.8   292.9   -9.49171  -0.06380   0.03702  -0.19569
  0-1A  -> 23-1A    4.242971   34221.9   292.2    9.17822   0.08835  -0.06229   0.11323
  0-1A  -> 24-1A    4.249054   34270.9   291.8   -3.06846  -0.03988   0.03213   0.01301
  0-1A  -> 25-1A    4.256572   34331.6   291.3   -4.33809   0.13043   0.14635  -0.01997
  0-1A  -> 26-1A    4.263539   34387.8   290.8    0.00615   0.00187   0.00137  -0.00021
  0-1A  -> 27-1A    4.276703   34493.9   289.9    1.80444  -0.06418   0.09045   0.26508
  0-1A  -> 28-1A    4.283372   34547.7   289.5    2.15451  -0.05761   0.08303   0.26738
  0-1A  -> 29-1A    4.327699   34905.2   286.5    0.02905   0.00646  -0.00514   0.00516
  0-1A  -> 30-1A    4.329606   34920.6   286.4    0.24896  -0.01571  -0.01814   0.00381

------------------------------------------------------------------------------------------
                     CD SPECTRUM VIA TRANSITION VELOCITY DIPOLE MOMENTS    
------------------------------------------------------------------------------------------
     Transition      Energy     Energy  Wavelength    R        MX        MY        MZ   
                      (eV)      (cm-1)    (nm)   (1e40*cgs)   (au)      (au)      (au)  
------------------------------------------------------------------------------------------
  0-1A  ->  1-1A    2.451318   19771.2   505.8    0.05854  -0.00171  -0.00201   0.00017
  0-1A  ->  2-1A    2.451404   19771.9   505.8   -0.00148   0.00012   0.00052   0.00015
  0-1A  ->  3-1A    3.138145   25310.9   395.1    6.11999  -0.00147  -0.00260   0.00004
  0-1A  ->  4-1A    3.139216   25319.5   395.0    2.48588  -0.00087   0.00053  -0.00405
  0-1A  ->  5-1A    3.148222   25392.1   393.8   -0.13574   0.01828   0.10795   1.12970
  0-1A  ->  6-1A    3.198342   25796.4   387.7   -0.00614   0.00054   0.00048  -0.00345
  0-1A  ->  7-1A    3.256267   26263.6   380.8    0.01156   0.00321  -0.00190   0.00549
  0-1A  ->  8-1A    3.482505   28088.3   356.0   -0.00527  -0.00342  -0.00370   0.00038
  0-1A  ->  9-1A    3.587986   28939.1   345.6   -0.00554  -0.01683   0.01340   0.00338
  0-1A  -> 10-1A    3.589249   28949.2   345.4    0.03702  -0.01304  -0.01686   0.00142
  0-1A  -> 11-1A    3.626826   29252.3   341.9   -0.01898  -0.00041  -0.00031  -0.00012
  0-1A  -> 12-1A    3.742125   30182.3   331.3   -0.24222  -0.14509  -0.26682   0.03228
  0-1A  -> 13-1A    3.742587   30186.0   331.3    0.16035   0.26897  -0.14349   0.02595
  0-1A  -> 14-1A    3.783092   30512.7   327.7   -0.02071  -0.00083   0.00011  -0.00941
  0-1A  -> 15-1A    3.784314   30522.6   327.6   -0.00542   0.00153  -0.00015   0.00216
  0-1A  -> 16-1A    3.995827   32228.5   310.3    1.63281   0.00364  -0.00293   0.00122
  0-1A  -> 17-1A    3.997368   32241.0   310.2   -1.44843   0.00264   0.00315  -0.00046
  0-1A  -> 18-1A    4.098860   33059.5   302.5   -2.55249   0.06007   0.07054  -0.00897
  0-1A  -> 19-1A    4.104848   33107.8   302.0    2.33448   0.07544  -0.06236   0.01529
  0-1A  -> 20-1A    4.132345   33329.6   300.0    0.01040  -0.00171  -0.00065  -0.00010
  0-1A  -> 21-1A    4.140331   33394.0   299.5   -0.12405   0.00248   0.00251  -0.00084
  0-1A  -> 22-1A    4.232925   34140.8   292.9   -9.36836  -0.06380   0.03702  -0.19569
  0-1A  -> 23-1A    4.242971   34221.9   292.2    9.04224   0.08835  -0.06229   0.11323
  0-1A  -> 24-1A    4.249054   34270.9   291.8   -3.04453  -0.03988   0.03213   0.01301
  0-1A  -> 25-1A    4.256572   34331.6   291.3   -4.25920   0.13043   0.14635  -0.01997
  0-1A  -> 26-1A    4.263539   34387.8   290.8    0.00649   0.00187   0.00137  -0.00021
  0-1A  -> 27-1A    4.276703   34493.9   289.9    1.72027  -0.06418   0.09045   0.26508
  0-1A  -> 28-1A    4.283372   34547.7   289.5    2.18889  -0.05761   0.08303   0.26738
  0-1A  -> 29-1A    4.327699   34905.2   286.5   -0.00350   0.00646  -0.00514   0.00516
  0-1A  -> 30-1A    4.329606   34920.6   286.4    0.34561  -0.01571  -0.01814   0.00381

Total run time:    22426.810 sec

           *** ORCA-CIS/TD-DFT FINISHED WITHOUT ERROR ***
-----------------------
CIS/TD-DFT TOTAL ENERGY
-----------------------

    E(SCF)  =  -2038.994695796 Eh
    DE(CIS) =      0.090084294 Eh (Root  1)
    ----------------------------- ---------
    E(tot)  =  -2038.904611501 Eh


Maximum memory used throughout the entire CIS-calculation: 2548.7 MB
=> NOW LEAVING ORCA_CIS

-------------------------   --------------------
FINAL SINGLE POINT ENERGY     -2038.904611501164
-------------------------   --------------------



           ************************************************************
           *        Program running with 8 parallel MPI-processes     *
           *              working on a common directory               *
           ************************************************************

------------------------------------------------------------------------------
                              ORCA PROPERTY CALCULATIONS
------------------------------------------------------------------------------

GBWName                                 ... tddft.gbw
Number of atoms                         ...     77
Number of basis functions               ...   1696
Max core memory                         ...   3000 MB

Electric properties:
Dipole moment                           ... YES
Quadrupole moment                       ...  NO
Static polarizability (Dipole/Dipole)   ...  NO
Static polarizability (Dipole/Quad.)    ...  NO
Static polarizability (Quad./Quad.)     ...  NO
Static polarizability (Velocity)        ...  NO
Static hyperpolarizability              ...  NO

Atomic electric properties:
Dipole moment                           ...  NO
Quadrupole moment                       ...  NO
Static polarizability                   ...  NO

Choice of electric origin               ... Center of mass
Position of electric origin             ...    -0.159753     5.088910     6.548211

General magnetic properties:
Magnetizability                         ...  NO

EPR properties:
g-Tensor (aka g-matrix)                 ...  NO
Zero-Field splitting spin-orbit         ...  NO
Zero-field splitting spin-spin          ...  NO
Hyperfine couplings                     ...  NO (   0 nuclei)
Quadrupole couplings                    ...  NO (   0 nuclei)
Contact density                         ...  NO (   0 nuclei)

NMR properties:
Chemical shifts                         ...  NO (   0 nuclei)
Spin-rotation constants                 ...  NO (   0 nuclei)
Spin-spin couplings                     ...  NO (   0 nuclei,    0 pairs)

Choice of magnetic origin               ... GIAO
Position of magnetic origin             ...     0.000000     0.000000     0.000000

Properties with geometric perturbations:
SCF Hessian                             ...  NO
IR spectrum                             ...  NO
VCD spectrum                            ...  NO
X-ray spectroscopy properties:
SCF XES/XAS/RIXS spectra                ...  NO

SCF SOC stabilization energy            ...  NO
Diagonal Born-Oppenheimer correction    ...  NO

-------------
DIPOLE MOMENT
-------------

Method             : SCF
Type of density    : Electron Density
Multiplicity       :   1
Irrep              :   0
Energy             : -2038.9946957956351525 Eh
Basis              : AO
                                X                 Y                 Z
Electronic contribution:     -0.004613817      -0.000589594       0.039622210
Nuclear contribution   :      0.005433271       0.002089139      -0.040561520
                        -----------------------------------------
Total Dipole Moment    :      0.000819454       0.001499545      -0.000939310
                        -----------------------------------------
Magnitude (a.u.)       :      0.001949985
Magnitude (Debye)      :      0.004956468



--------------------
Rotational spectrum 
--------------------
 
Rotational constants in cm-1:             0.001953             0.001952             0.001017 
Rotational constants in MHz :            58.536381            58.523332            30.495208 

Dipole components along the rotational axes: 
x,y,z [a.u.] :     0.000975     0.001497    -0.000782 
x,y,z [Debye]:     0.002479     0.003804    -0.001987 

 

Dipole moment calculation done in   1.7 sec 

Maximum memory used throughout the entire PROP-calculation: 233.3 MB

--------------------------------
SUGGESTED CITATIONS FOR THIS RUN
--------------------------------

Below you find a list of papers that are relevant to this ORCA run
We neither can nor want to force you to cite these papers, but we appreciate if you do
You receive ORCA, which is the product of decades of hard work by many enthusiastic individuals, for free
The only thing we kindly ask in return is that you cite our papers,
We deeply appreciate it, if you show your appreciation for ORCA by not just citing the generic ORCA reference.

Please note that relegating all ORCA citations to the supporting information does *not* help us.
SI sections are not indexed - citations you put there will not count into any citation statistics
But we need these citations in order to attract the funding resources that allow us to do what we are doing

Therefore, if you are a happy ORCA user, please consider citing a few of the papers listed below in the main body of your paper

In addition to the list printed below, the program has created the file tddft.bibtex that contains the list in bibtex format
You can import this file easily into all common literature databanks and citation aid programs

It goes without saying that in many instances, there are alternative algorithms to achieve similar
results as the ones you have gotten from ORCA. It is, of course, also the case that in some instances
ORCA just re-implements algorithms worked out by others. We are fully aware of that and we are also
fully appreciative of our colleagues work. Hence this citation list should not be read as indicating
that the listed papers, which are focused on our own work, are the only ones worth citing. It simply
meant to make it easier for users to cite ORCA specific papers. It is not a substitute for doing your
own literature research and citing the relevant literature in a scientifically appropriate manner.

List of essential papers. We consider these as the minimum necessary citations

  1. Neese, F.
     Software update: the ORCA program system, version 6.0
     WIRES Comput. Molec. Sci. 2025 15(1), e70019
     doi.org/10.1002/wcms.70019

List of papers to cite with high priority. The work reported in these papers was absolutely
necessary for this run to complete.
Our perspective: the developers of density functionals and basis sets usually get cited in chemistry papers
Good! But without the algorithms to do something with them, the functionals or basis sets would not do anything.
Hence, in our opinion, the algorithm design and method developments papers are equally worthy of getting cited

  1. Neese, F.; Olbrich, G.
     Efficient use of the resolution of the identity approximation in time-dependent density functional calculations with hybrid density functionals
     Chem. Phys. Lett. 2002 362 , 170-178
     doi.org/10.1016/s0009-2614(02)01053-9
  2. Neese, F.
     An improvement of the resolution of the identity approximation for the formation of the Coulomb matrix
     J. Comp. Chem. 2003 24(14), 1740-1747
     doi.org/10.1002/jcc.10318
  3. Neese, F.; Wennmohs, F.; Hansen, A.; Becker, U.
     Efficient, approximate and parallel Hartree-Fock and hybrid DFT calculations. A 'chain-of-spheres' algorithm for the Hartree-Fock exchange
     Chem. Phys. 2009 356(1-3), 98-109
     doi.org/10.1016/j.chemphys.2008.10.036
  4. Garcia-Rates, M.; Neese, F.
     Effect of the Solute Cavity on the Solvation Energy and its Derivatives within the Framework of the Gaussian Charge Scheme
     J. Comput. Chem. 2020 41 , 922-939
     doi.org/10.1002/jcc.26139
  5. Helmich-Paris, B.; de Souza, B.; Neese, F.; Izsák, R.
     An improved chain of spheres for exchange algorithm
     J. Chem. Phys. 2021 155(10), 104109
     doi.org/10.1063/5.0058766
  6. Neese, F.
     The SHARK Integral Generation and Digestion System
     J. Comp. Chem. 2022 44(3), 381
     doi.org/10.1002/jcc.26942

List of suggested additional citations. These are papers that are important in the 'surrounding' of 
of this run, or papers that preceded the highly important papers. If you like your results we are grateful for a citation.

  1. Izsak, R.; Neese, F.
     An overlap fitted chain of spheres exchange method
     J. Chem. Phys. 2011 135 , 144105
     doi.org/10.1063/1.3646921
  2. Izsak, R.; Hansen, A.; Neese, F.
     The resolution of identity and chain of spheres approximations for the LPNO-CCSD singles Fock term
     Molec. Phys. 2012 110 , 2413-2417
     doi.org/10.1080/00268976.2012.687466
  3. Neese, F.
     The ORCA program system
     WIRES Comput. Molec. Sci. 2012 2(1), 73-78
     doi.org/10.1002/wcms.81
  4. Izsak, R.; Neese, F.; Klopper, W.
     Robust fitting techniques in the chain of spheres approximation to the Fock exchange: The role of the complementary space
     J. Chem. Phys. 2013 139 , 
     doi.org/10.1063/1.4819264
  5. Neese, F.
     Software update: the ORCA program system, version 4.0
     WIRES Comput. Molec. Sci. 2018 8(1), 1-6
     doi.org/10.1002/wcms.1327
  6. Neese, F.; Wennmohs, F.; Becker, U.; Riplinger, C.
     The ORCA quantum chemistry program package
     J. Chem. Phys. 2020 152(22), 224108
     doi.org/10.1063/5.0004608
  7. Neese, F.
     Software update: The ORCA program system—Version 5.0
     WIRES Comput. Molec. Sci. 2022 12(1), e1606
     doi.org/10.1002/wcms.1606

List of optional additional citations

  1. Neese, F.
     Approximate second-order SCF convergence for spin unrestricted wavefunctions
     Chem. Phys. Lett. 2000 325(1-3), 93-98
     doi.org/10.1016/s0009-2614(00)00662-x

Timings for individual modules:

Sum of individual times          ...    26183.968 sec (= 436.399 min)
Startup calculation              ...       75.791 sec (=   1.263 min)   0.3 %
SCF iterations                   ...     3666.267 sec (=  61.104 min)  14.0 %
Property integrals               ...        6.027 sec (=   0.100 min)   0.0 %
Property calculations            ...        7.964 sec (=   0.133 min)   0.0 %
CIS module                       ...    22427.918 sec (= 373.799 min)  85.7 %
                             ****ORCA TERMINATED NORMALLY****
TOTAL RUN TIME: 0 days 7 hours 16 minutes 25 seconds 406 msec
