
                                 *****************
                                 * O   R   C   A *
                                 *****************

                                            #,                                       
                                            ###                                      
                                            ####                                     
                                            #####                                    
                                            ######                                   
                                           ########,                                 
                                     ,,################,,,,,                         
                               ,,#################################,,                 
                          ,,##########################################,,             
                       ,#########################################, ''#####,          
                    ,#############################################,,   '####,        
                  ,##################################################,,,,####,       
                ,###########''''           ''''###############################       
              ,#####''   ,,,,##########,,,,          '''####'''          '####       
            ,##' ,,,,###########################,,,                        '##       
           ' ,,###''''                  '''############,,,                           
         ,,##''                                '''############,,,,        ,,,,,,###''
      ,#''                                            '''#######################'''  
     '                                                          ''''####''''         
             ,#######,   #######,   ,#######,      ##                                
            ,#'     '#,  ##    ##  ,#'     '#,    #''#        ,####,    ,#,          
            ##       ##  ##   ,#'  ##            #'  '#       #'       ,# #          
            ##       ##  #######   ##           ,######,      #####,      #          
            '#,     ,#'  ##    ##  '#,     ,#' ,#      #,     #,   #      #          
             '#######'   ##     ##  '#######'  #'      '#     '####' #    #          



                #########################################################
                #                        -***-                          #
                #          Department of theory and spectroscopy        #
                #                                                       #
                #                      Frank Neese                      #
                #                                                       #
                #     Directorship, Architecture, Infrastructure        #
                #                    SHARK, DRIVERS                     #
                #        Core code/Algorithms in most modules           #
                #                                                       #
                #        Max Planck Institute fuer Kohlenforschung      #
                #                Kaiser Wilhelm Platz 1                 #
                #                 D-45470 Muelheim/Ruhr                 #
                #                      Germany                          #
                #                                                       #
                #                  All rights reserved                  #
                #                        -***-                          #
                #########################################################


                         Program Version 6.1.1  -  RELEASE   -
                                (GIT: $487d211c$)
                          ($2025-11-21 10:33:24 +0100$)


 With contributions from (in alphabetic order):
[Max-Planck-Institut fuer Kohlenforschung]                               
  Daniel Aravena         : Magnetic Suceptibility                        
  Michael Atanasov       : Ab Initio Ligand Field Theory (pilot matlab implementation)
  Alexander A. Auer      : GIAO ZORA, VPT2 properties, NMR spectrum      
  Ute Becker             : All parallelization in ORCA, NUMFREQ, NUMCALC 
  Giovanni Bistoni       : ED, misc. LED, open-shell LED, HFLD           
  Dmytro Bykov           : pre 5.0 version of the SCF Hessian            
  Marcos Casanova-Páez   : Triplet and SCS-CIS(D). UHF-(DLPNO)-IP/EA/STEOM-CCSD. UHF-CVS-IP/STEOM-CCSD   
  Vijay G. Chilkuri      : MRCI spin determinant printing, contributions to CSF-ICE 
  Pauline Colinet        : FMM embedding                                 
  Dipayan Datta          : RHF DLPNO-CCSD density                        
  Achintya Kumar Dutta   : EOM-CC, STEOM-CC                              
  Nicolas Foglia         : Exact transition moments, OPA infrastructure, MCD improvements    
  Dmitry Ganyushin       : Spin-Orbit,Spin-Spin,Magnetic field MRCI      
  Miquel Garcia-Rates    : C-PCM and meta-GGA Hessian, CCSD/C-PCM, Gaussian charge scheme 
  Tiago L. C. Gouveia    : GS-ROHF, GS-ROCIS                             
  Yang Guo               : DLPNO-NEVPT2, F12-NEVPT2, CIM, IAO-localization        
  Andreas Hansen         : Spin unrestricted coupled pair/coupled cluster methods 
  Ingolf Harden          : AUTO-CI MPn and infrastructure                
  Benjamin Helmich-Paris : MC-RPA, TRAH-(SCF,CASSCF), AVAS, COSX integrals, SCF dyn. polar., MC-PDFT, srDFT 
  Lee Huntington         : MR-EOM, pCC                                   
  Robert Izsak           : Overlap fitted RIJCOSX, COSX-SCS-MP3, EOM     
  Riya Kayal             : Wick's Theorem for AUTO-CI, AUTO-CI UHF-CCSDT 
  Emily Kempfer          : AUTO-CI RHF CISDT and CCSDT, approximate NEVPT4
  Christian Kollmar      : KDIIS, OOCD, Brueckner-CCSD(T), CCSD density, CASPT2, CASPT2-K, improved NEVPT2 
  Axel Koslowski         : Symmetry handling                             
  Simone Kossmann        : meta-GGA functionals, TD-DFT gradient, OOMP2, (MP2 Hessian; deprecated post 5.0) 
  Lucas Lang             : DCDCAS, Hyperfine gauge corrections, ICE-SOC+SSC
  Marvin Lechner         : AUTO-CI (C++ implementation), FIC-MRCC        
  Spencer Leger          : CASSCF response                               
  Dagmar Lenk            : GEPOL surface, SMD, ORCA-2-JSON               
  Dimitrios Liakos       : Extrapolation schemes; Compound Job, Property file
  Dimitrios Manganas     : Further ROCIS development; embedding schemes. LFT, Crystal Embedding 
  Dimitrios Pantazis     : SARC Basis sets                               
  Anastasios Papadopoulos: AUTO-CI, single reference methods and gradients 
  Taras Petrenko         : pre 6.0 DFT Hessian and TD-DFT gradient,  ECA, NRVS 
  Petra Pikulova         : Analytic Raman intensities                    
  Peter Pinski           : DLPNO-MP2, DLPNO-MP2 Gradient                 
  Shashank Vittal Rao    : ES-AILFT, MagRelax                            
  Christoph Reimann      : Effective Core Potentials                     
  Marius Retegan         : Local ZFS, SOC                                
  Christoph Riplinger    : Optimizer, TS searches, QM/MM, DLPNO-CCSD(T), (RO)-DLPNO pert. Triples 
  Michael Roemelt        : Original ROCIS implementation, recursive CI coupling coefficients
  Masaaki Saitow         : Open-shell DLPNO-CCSD energy and density      
  Barbara Sandhoefer     : DKH picture change effects                    
  Yorick L. A. Schmerwitz: GMF and freeze-and-release deltaSCF, NEB S-IDPP initial path                    
  Kantharuban Sivalingam : CASSCF convergence/infrastructure, NEVPT2, NEVPT3, NEVPT4(SD), FIC-MRCI and CEPA variants
  Bernardo de Souza      : ESD, SOC TD-DFT                               
  Georgi L. Stoychev     : AutoAux, RI-MP2 NMR, DLPNO-MP2 response, X2C  
  Van Anh Tran           : RI-MP2 g-tensors                              
  Willem Van den Heuvel  : Paramagnetic NMR                              
  Zikuan Wang            : NOTCH, Electric field optimization            
  Frank Wennmohs         : Technical directorship and infrastructure     
  Hang Xu                : AUTO-CI-Response properties                   
                                                                         
[FACCTs GmbH]                                                            
  Markus Bursch, Nicolas Foglia, Miquel Garcia-Rates, Ingolf Harden, Hagen Neugebauer, Anastasios Papadopoulos, 
  Christoph Riplinger, Bernardo de Souza, Georgi L. Stoychev                                                    
                                                                 
  APM, various basis sets, CI-OPT, improved COSX, DLPNO-Multilevel,           
  DOCKER, DRACO, updates on ESD, Fragmentator, GOAT, IRC, LR-CPCM, L-BFGS, MBIS, meta-GGA TD-DFT gradient, ML-optimized integration grids, 
  MM, NACMEs, nearIR, NEB, NEB-TS, NL-DFT gradient (VV10), 2- and 3-layer-ONIOM, interface openCOSMO-RS, QMMM,   
  Crystal-QMMM, RESP, rigid body optimization, SF, symmetry and pop. for TD-DFT, various functionals, SOLVATOR                                   
                                                                         
[Other institutions]                                                     
  V. Asgeirsson          : NEB                                           
  Christoph Bannwarth    : sTDA-DFT, sTD-DFT, PBEh-3c, B97-3c, D3        
  Giovanni Bistoni       : ETS/NOCV, ADLD/ADEX, COVALED                  
  Martin Brehm           : Molecular dynamics                            
  Ronald Cardenas        : ETS/NOCV                                      
  Martina Colucci        : COVALED                                       
  Sebastian Ehlert       : rSCAN, r2SCAN, r2SCAN-3c, D4, dhf basis sets  
  Marvin Friede          : D4 for Fr, Ra, Ac-Lr                          
  Lars Goerigk           : TD-DFT with DH, B97 family of functionals     
  Stefan Grimme          : VdW corrections, initial TS optimization, DFT functionals, gCP, sTDA/sTD-DF 
  Waldemar Hujo          : DFT-NL                                        
  H. Jonsson             : NEB                                           
  Holger Kruse           : gCP                                           
  Marcel Mueller         : wB97X-3c, vDZP basis set                      
  Hagen Neugebauer       : wr2SCAN, Native XTB                           
  Gianluca Regni         : ADLD/ADEX                                     
  Tobias Risthaus        : pre 6.0 range-separated hybrid DFT and stability analysis
  Lukas Wittmann         : regularized MP2, r2SCAN double-hybrids, wr2SCAN        
                                                                         
We gratefully acknowledge several colleagues who have allowed us to      
interface, adapt or use parts of their codes:                            
  Ed Valeev, F. Pavosevic, A. Kumar             : LibInt (2-el integral package), F12 methods 
  Garnet Chan, S. Sharma, J. Yang, R. Olivares  : DMRG                   
  Ulf Ekstrom                                   : XCFun DFT Library      
  Mihaly Kallay                                 : mrcc  (arbitrary order and MRCC methods)
  Frank Weinhold                                : gennbo (NPA and NBO analysis)           
  Simon Mueller                                 : openCOSMO-RS                            
  Christopher J. Cramer and Donald G. Truhlar   : smd solvation model                     
  S Lehtola, MJT Oliveira, MAL Marques          : LibXC Library                           
  Liviu Ungur et al                             : ANISO software                          


 Your calculation uses the libint2 library for the computation of 2-el integrals
 For citations please refer to: http://libint.valeyev.net

 Your ORCA version has been built with support for libXC version: 7.0.0
 For citations please refer to: https://libxc.gitlab.io

 This ORCA versions uses:
   CBLAS   interface :  Fast vector & matrix operations
   LAPACKE interface :  Fast linear algebra routines
   SCALAPACK package :  Parallel linear algebra routines
   Shared memory     :  Shared parallel matrices
   BLAS/LAPACK       :  OpenBLAS 0.3.29  USE64BITINT DYNAMIC_ARCH NO_AFFINITY Haswell SINGLE_THREADED
        Core in use  :  Haswell
   Copyright (c) 2011-2014, The OpenBLAS Project


  ***********************************
  * Starting time: Wed Jun  3 16:19:32 2026
  * Host name:     steezy
  * Process ID:    1058718
  * Working dir.:  /home/jannes/hexacyanide/fecn6/02_nkxas/bp86
  ***********************************

NOTE: MaxCore=3000 MB was set to SCF,MP2,MDCI,CIPSI,MRCI,RASCI and CIS
      => If you want to overwrite this, your respective input block should be placed after the MaxCore statement


***************************************
The coordinates will be read from file: ../../01_opt/fecn6_opt_pbe0_tzvp.xyz
***************************************


================================================================================

----- Orbital basis set information -----
Your calculation utilizes the basis: def2-TZVP
   F. Weigend and R. Ahlrichs, Phys. Chem. Chem. Phys. 7, 3297 (2005).

----- AuxJ basis set information -----
Your calculation utilizes the auxiliary basis: def2/J
   H-Rn: F. Weigend, Phys. Chem. Chem. Phys. 8, 1057 (2006).
   Fr-Lr: K. Eichkorn, F. Weigend, O. Treutler, R. Ahlrichs; Theor. Chem. Acc. 97, 119 (1997).

================================================================================
                                        WARNINGS
                       Please study these warnings very carefully!
================================================================================

WARNING: Old DensityContainer found on disk!
         Will remove this file - 
         If you want to keep old densities, please start your calculation with a different basename. 



WARNING: Found flag for RIJCOSX approximation but no HF exchange needed!
  ===> : RIJCOSX  will be disabled and Split-RI-J is turned on

WARNING: CIS/ROCIS methods need fully converged wavefunctions
  ===> : Setting SCFConvForced true
         You can overwrite this default with %scf ConvForced false 


================================================================================
                                       INPUT FILE
================================================================================
NAME = fecn6_nkxas_bp86_tzvp.inp
|  1> %pal nprocs 4 end
|  2> %maxcore 3000
|  3> ! BP86 def2-TZVP def2/J RIJCOSX DefGrid3
|  4> %tddft
|  5>   nroots 200
|  6>   OrbWin[0] = 5,10,-1,-1
|  7> end
|  8> * xyzfile -4 1 ../../01_opt/fecn6_opt_pbe0_tzvp.xyz
|  9> 
| 10>                          ****END OF INPUT****
================================================================================

                       ****************************
                       * Single Point Calculation *
                       ****************************

---------------------------------
CARTESIAN COORDINATES (ANGSTROEM)
---------------------------------
  Fe     0.000001    0.000001    0.000000
  C      1.992320   -0.000004   -0.000001
  C     -1.992317    0.000002    0.000002
  C     -0.000005    1.992321   -0.000001
  C     -0.000000   -1.992318    0.000002
  C      0.000002   -0.000002    1.992318
  C      0.000006    0.000002   -1.992319
  N      3.166046   -0.000007   -0.000004
  N     -3.166043    0.000004    0.000002
  N     -0.000013    3.166048   -0.000003
  N     -0.000001   -3.166044    0.000004
  N      0.000000   -0.000005    3.166045
  N      0.000005    0.000002   -3.166046

----------------------------
CARTESIAN COORDINATES (A.U.)
----------------------------
  NO LB      ZA    FRAG     MASS         X           Y           Z
   0 Fe   26.0000    0    55.850    0.000002    0.000002    0.000000
   1 C     6.0000    0    12.011    3.764938   -0.000007   -0.000002
   2 C     6.0000    0    12.011   -3.764934    0.000004    0.000003
   3 C     6.0000    0    12.011   -0.000009    3.764942   -0.000001
   4 C     6.0000    0    12.011   -0.000000   -3.764935    0.000004
   5 C     6.0000    0    12.011    0.000003   -0.000003    3.764935
   6 C     6.0000    0    12.011    0.000011    0.000003   -3.764937
   7 N     7.0000    0    14.007    5.982959   -0.000013   -0.000007
   8 N     7.0000    0    14.007   -5.982955    0.000007    0.000004
   9 N     7.0000    0    14.007   -0.000024    5.982963   -0.000005
  10 N     7.0000    0    14.007   -0.000002   -5.982957    0.000007
  11 N     7.0000    0    14.007    0.000001   -0.000009    5.982958
  12 N     7.0000    0    14.007    0.000009    0.000003   -5.982959

--------------------------------
INTERNAL COORDINATES (ANGSTROEM)
--------------------------------
 Fe     0   0   0     0.000000000000     0.00000000     0.00000000
 C      1   0   0     1.992318261767     0.00000000     0.00000000
 C      1   2   0     1.992318755222   179.99989449     0.00000000
 C      1   2   3     1.992320320540    90.00030639   176.08463907
 C      1   2   4     1.992318856103    89.99990346   180.00004421
 C      1   2   5     1.992318028941    90.00002332    89.99986381
 C      1   2   5     1.992318862032    89.99983068   269.99991913
 N      2   1   6     1.173726119520   179.99992353   182.76480919
 N      3   1   6     1.173726000184   179.99994479   117.62380217
 N      4   1   2     1.173726303437   179.99976173   159.22857827
 N      5   1   2     1.173726377493   179.99998099     0.00000000
 N      6   1   2     1.173726858407   179.99988695   222.45670598
 N      7   1   2     1.173726693986   179.99981964   172.72429205

---------------------------
INTERNAL COORDINATES (A.U.)
---------------------------
 Fe     0   0   0     0.000000000000     0.00000000     0.00000000
 C      1   0   0     3.764935886350     0.00000000     0.00000000
 C      1   2   0     3.764936818845   179.99989449     0.00000000
 C      1   2   3     3.764939776868    90.00030639   176.08463907
 C      1   2   4     3.764937009481    89.99990346   180.00004421
 C      1   2   5     3.764935446371    90.00002332    89.99986381
 C      1   2   5     3.764937020686    89.99983068   269.99991913
 N      2   1   6     2.218020922124   179.99992353   182.76480919
 N      3   1   6     2.218020696611   179.99994479   117.62380217
 N      4   1   2     2.218021269676   179.99976173   159.22857827
 N      5   1   2     2.218021409621   179.99998099     0.00000000
 N      6   1   2     2.218022318417   179.99988695   222.45670598
 N      7   1   2     2.218022007706   179.99981964   172.72429205

---------------------
BASIS SET INFORMATION
---------------------
There are 3 groups of distinct atoms

 Group   1 Type Fe  : 17s11p7d1f contracted to 6s4p4d1f pattern {842111/6311/4111/1}
 Group   2 Type C   : 11s6p2d1f contracted to 5s3p2d1f pattern {62111/411/11/1}
 Group   3 Type N   : 11s6p2d1f contracted to 5s3p2d1f pattern {62111/411/11/1}

Atom   0Fe   basis set group =>   1
Atom   1C    basis set group =>   2
Atom   2C    basis set group =>   2
Atom   3C    basis set group =>   2
Atom   4C    basis set group =>   2
Atom   5C    basis set group =>   2
Atom   6C    basis set group =>   2
Atom   7N    basis set group =>   3
Atom   8N    basis set group =>   3
Atom   9N    basis set group =>   3
Atom  10N    basis set group =>   3
Atom  11N    basis set group =>   3
Atom  12N    basis set group =>   3
---------------------------------
AUXILIARY/J BASIS SET INFORMATION
---------------------------------
There are 3 groups of distinct atoms

 Group   1 Type Fe  : 19s5p5d3f3g contracted to 8s5p5d2f3g pattern {121111111/11111/11111/21/111}
 Group   2 Type C   : 12s5p4d2f1g contracted to 6s4p3d1f1g pattern {711111/2111/211/2/1}
 Group   3 Type N   : 12s5p4d2f1g contracted to 6s4p3d1f1g pattern {711111/2111/211/2/1}

Atom   0Fe   basis set group =>   1
Atom   1C    basis set group =>   2
Atom   2C    basis set group =>   2
Atom   3C    basis set group =>   2
Atom   4C    basis set group =>   2
Atom   5C    basis set group =>   2
Atom   6C    basis set group =>   2
Atom   7N    basis set group =>   3
Atom   8N    basis set group =>   3
Atom   9N    basis set group =>   3
Atom  10N    basis set group =>   3
Atom  11N    basis set group =>   3
Atom  12N    basis set group =>   3


           ************************************************************
           *        Program running with 4 parallel MPI-processes     *
           *              working on a common directory               *
           ************************************************************
------------------------------------------------------------------------------
                             ORCA STARTUP CALCULATIONS
                           -- RI-GTO INTEGRALS CHOSEN --
------------------------------------------------------------------------------
------------------------------------------------------------------------------
                   ___                                                        
                  /   \      - P O W E R E D   B Y -                         
                 /     \                                                     
                 |  |  |   _    _      __       _____    __    __             
                 |  |  |  | |  | |    /  \     |  _  \  |  |  /  |          
                  \  \/   | |  | |   /    \    | | | |  |  | /  /          
                 / \  \   | |__| |  /  /\  \   | |_| |  |  |/  /          
                |  |  |   |  __  | /  /__\  \  |    /   |      \           
                |  |  |   | |  | | |   __   |  |    \   |  |\   \          
                \     /   | |  | | |  |  |  |  | |\  \  |  | \   \       
                 \___/    |_|  |_| |__|  |__|  |_| \__\ |__|  \__/        
                                                                              
                      - O R C A' S   B I G   F R I E N D -                    
                                      &                                       
                       - I N T E G R A L  F E E D E R -                       
                                                                              
 v1 FN, 2020, v2 2021, v3 2022-2024                                           
------------------------------------------------------------------------------


----------------------
SHARK INTEGRAL PACKAGE
----------------------

Number of atoms                             ...     13
Number of basis functions                   ...    417
Number of shells                            ...    147
Maximum angular momentum                    ...      3
Integral batch strategy                     ... SHARK/LIBINT Hybrid
RI-J (if used) integral strategy            ... SPLIT-RIJ (Revised 2003 algorithm where possible)
Printlevel                                  ...      1
Contraction scheme used                     ... SEGMENTED contraction
Prescreening option                         ... SCHWARTZ
   Thresh                                   ... 1.000e-10
   Tcut                                     ... 1.000e-11
   Tpresel                                  ... 1.000e-11 
Coulomb Range Separation                    ... NOT USED
Exchange Range Separation                   ... NOT USED
Multipole approximations                    ... NOT USED
Finite Nucleus Model                        ... NOT USED
CABS basis                                  ... NOT available
Auxiliary Coulomb fitting basis             ... AVAILABLE
   # of basis functions in Aux-J            ...    677
   # of shells in Aux-J                     ...    203
   Maximum angular momentum in Aux-J        ...      4
Auxiliary J/K fitting basis                 ... NOT available
Auxiliary Correlation fitting basis         ... NOT available
Auxiliary 'external' fitting basis          ... NOT available

Checking pre-screening integrals            ... done (  0.0 sec) Dimension = 147
   => SHARK Basis and OBASIS are compatible. Storing Pre-screening
Shell pair information
Shell pair cut-off parameter TPreSel        ...   1.0e-11
Total number of shell pairs                 ...     10878
Shell pairs after pre-screening             ...      8970
Total number of primitive shell pairs       ...     38549
Primitive shell pairs kept                  ...     20846
          la=0 lb=0:   1620 shell pairs
          la=1 lb=0:   2262 shell pairs
          la=1 lb=1:    784 shell pairs
          la=2 lb=0:   1458 shell pairs
          la=2 lb=1:   1054 shell pairs
          la=2 lb=2:    346 shell pairs
          la=3 lb=0:    594 shell pairs
          la=3 lb=1:    466 shell pairs
          la=3 lb=2:    316 shell pairs
          la=3 lb=3:     70 shell pairs

Checking whether 4 symmetric matrices of dimension 417 fit in memory
:Max Core in MB      =   3000.00
 MB in use           =     15.06
 MB left             =   2984.94
 MB needed           =      2.66
 Data fit in memory  = YES
Calculating RI/J V-Matrix + Cholesky decomp.... done (  0.0 sec)
Calculating Nuclear repulsion               ... done (  0.0 sec) ENN=    890.446512275459 Eh

Diagonalization of the overlap matrix:
Smallest eigenvalue                        ... 1.697e-05
Time for diagonalization                   ...    0.030 sec
Threshold for overlap eigenvalues          ... 1.000e-07
Number of eigenvalues below threshold      ... 0
Time for construction of square roots      ...    0.011 sec
Total time needed                          ...    0.044 sec

-------------------
DFT GRID GENERATION
-------------------

General Integration Accuracy     IntAcc      ... 4.959
Radial Grid Type                 RadialGrid  ... OptM3 with GC (2021)
Angular Grid (max. ang.)         AngularGrid ... 6 (Lebedev-590)
Angular grid pruning method      GridPruning ... 4 (adaptive)
Weight generation scheme         WeightScheme... mBecke (2022)
Basis function cutoff            BFCut       ... 1.0000e-10
Integration weight cutoff        WCut        ... 1.0000e-14
Partially contracted basis set               ... off
Rotationally invariant grid construction     ... off
Angular grids for H and He will be reduced by one unit
Core-polarized basis detected: some atoms will have their core
                               angular grid increased.

Total number of grid points                  ...   199820
Total number of batches                      ...     3130
Average number of points per batch           ...       63
Average number of grid points per atom       ...    15371
Grids setup in   2.2 sec
Initializing property integral containers    ... done (  0.0 sec)

SHARK setup successfully completed in   2.7 seconds

Maximum memory used throughout the entire STARTUP-calculation: 58.6 MB


           ************************************************************
           *        Program running with 4 parallel MPI-processes     *
           *              working on a common directory               *
           ************************************************************
-------------------------------------------------------------------------------
                                 ORCA GUESS
                   Start orbitals & Density for SCF / CASSCF
-------------------------------------------------------------------------------

------------
SCF SETTINGS
------------
Hamiltonian:
 Density Functional     Method          .... DFT(GTOs)
 Exchange Functional    Exchange        .... B88
   X-Alpha parameter    XAlpha          ....  0.666667
   Becke's b parameter  XBeta           ....  0.004200
 Correlation Functional Correlation     .... P86
 LDA part of GGA corr.  LDAOpt          .... PW91-LDA
 Gradients option       PostSCFGGA      .... off
   NL short-range parameter             ....  4.400000
 RI-approximation to the Coulomb term is turned on
   Number of AuxJ basis functions       .... 677


General Settings:
 Integral files         IntName         .... fecn6_nkxas_bp86_tzvp
 Hartree-Fock type      HFTyp           .... RHF
 Total Charge           Charge          ....   -4
 Multiplicity           Mult            ....    1
 Number of Electrons    NEL             ....  108
 Basis Dimension        Dim             ....  417
 Nuclear Repulsion      ENuc            ....    890.4465122755 Eh

Convergence Acceleration:
 AO-DIIS                CNVDIIS         .... on
   Start iteration      DIISMaxIt       ....    12
   Startup error        DIISStart       ....  0.200000
   # of expansion vecs  DIISMaxEq       ....     5
   Bias factor          DIISBfac        ....   1.050
   Max. coefficient     DIISMaxC        ....  10.000
 MO-DIIS                CNVKDIIS        .... off
 Trust-Rad. Augm. Hess. CNVTRAH         .... auto
   Auto Start mean grad. ratio tolernc. ....  1.125000
   Auto Start start iteration           ....    50
   Auto Start num. interpolation iter.  ....    10
   Max. Number of Micro iterations      ....    24
   Max. Number of Macro iterations      .... Maxiter - #DIIS iter
   Number of Davidson start vectors     ....     2
   Converg. threshold    (grad. norm)   ....   5.000e-05
   Grad. Scal. Fac. for Micro threshold ....   0.100
   Minimum threshold for Micro iter.    ....   1.000e-02
   NR start threshold (gradient norm)   ....   1.000e-04
   Initial trust radius                 ....   0.400
   Minimum AH scaling param. (alpha)    ....   1.000
   Maximum AH scaling param. (alpha)    .... 1000.000
   Quad. conv. algorithm                .... NR
   White noise on init. David. guess    .... on
   Maximum white noise                  ....   0.010
   Pseudo random numbers                .... off
   Inactive MOs                         .... canonical
   Orbital update algorithm             .... Taylor
   Preconditioner                       .... Diag
   Full preconditioner red. dimension   ....   250
 SOSCF                 CNVSOSCF           .... on
   Start iteration     SOSCFMaxIt         ....   150
   Startup grad/error  SOSCFStart         ....  0.003300
   Hessian update      SOSCFHessUp        .... L-BFGS
   Autom. constraints  SOSCFAutoConstrain .... off
 Level Shifting         CNVShift        .... on
   Level shift para.    LevelShift      ....    0.2500
   Turn off err/grad.   ShiftErr        ....    0.0010
 Zerner damping         CNVZerner       .... off
 Static damping         CNVDamp         .... on
   Fraction old density DampFac         ....    0.7000
   Max. Damping (<1)    DampMax         ....    0.9800
   Min. Damping (>=0)   DampMin         ....    0.0000
   Turn off err/grad.   DampErr         ....    0.1000

SCF Procedure:
 Maximum # iterations   MaxIter         ....   125
 SCF integral mode      SCFMode         .... Direct
   Integral package                     .... SHARK and LIBINT hybrid scheme
 Reset frequency        DirectResetFreq ....    20
 Integral Threshold     Thresh          ....  1.000e-10 Eh
 Primitive CutOff       TCut            ....  1.000e-11 Eh

Convergence Tolerance:
 Convergence Check Mode ConvCheckMode   .... Total+1el-Energy
 Convergence forced     ConvForced      .... 1
 Energy Change          TolE            ....  1.000e-06 Eh
 1-El. energy change                    ....  1.000e-03 Eh
 Orbital Gradient       TolG            ....  5.000e-05
 Orbital Rotation angle TolX            ....  5.000e-05
 DIIS Error             TolErr          ....  1.000e-06

------------------------------
INITIAL GUESS: MODEL POTENTIAL
------------------------------
Loading Hartree-Fock densities                     ... done
Calculating cut-offs                               ... done
Initializing the effective Hamiltonian             ... done
Setting up the integral package (SHARK)            ... done
Starting the Coulomb interaction                   ... done (   0.2 sec)
Making the grid                                    ... done (   0.2 sec)
Mapping shells                                     ... done
Starting the XC term evaluation                    ... done (   0.2 sec)
  promolecular density results
     # of electrons  =    104.003659602
     EX              =   -124.131971217
     EC              =     -4.100566179
     EX+EC           =   -128.232537395
Transforming the Hamiltonian                       ... done (   0.0 sec)
Diagonalizing the Hamiltonian                      ... done (   0.0 sec)
Back transforming the eigenvectors                 ... done (   0.0 sec)
Now organizing SCF variables                       ... done
                      ------------------
                      INITIAL GUESS DONE (   0.7 sec)
                      ------------------
             **** ENERGY FILE WAS UPDATED (fecn6_nkxas_bp86_tzvp.en.tmp) ****
Finished Guess after   0.9 sec
Maximum memory used throughout the entire GUESS-calculation: 26.2 MB


           ************************************************************
           *        Program running with 4 parallel MPI-processes     *
           *              working on a common directory               *
           ************************************************************

-------------------------------------------------------------------------------------------
                                      ORCA LEAN-SCF
                              memory conserving SCF solver
-------------------------------------------------------------------------------------------

----------------------------------------D-I-I-S--------------------------------------------
Iteration    Energy (Eh)           Delta-E    RMSDP     MaxDP     DIISErr   Damp  Time(sec)
-------------------------------------------------------------------------------------------
               ***  Starting incremental Fock matrix formation  ***
    1    -1820.3266826898761792     0.00e+00  6.93e-03  1.01e-01  2.26e-01  0.700   2.0
Warning: op=0 Small HOMO/LUMO gap (  -0.039) - skipping pre-diagonalization
         Will do a full diagonalization
    2    -1820.5832867979297589    -2.57e-01  1.27e-02  2.23e-01  9.39e-02  0.700   1.8
                               ***Turning on AO-DIIS***
    3    -1820.6669320534783765    -8.36e-02  5.45e-03  9.04e-02  1.78e-01  0.700   1.7
    4    -1820.7195820008969349    -5.26e-02  2.05e-03  2.78e-02  1.85e-01  0.700   1.6
    5    -1820.7807582446585002    -6.12e-02  1.13e-03  1.94e-02  1.34e-01  0.700   1.6
    6    -1820.8282173126358430    -4.75e-02  1.02e-03  2.29e-02  8.37e-02  0.700   1.6
    7    -1820.8589638287703565    -3.07e-02  3.37e-03  6.96e-02  4.69e-02  0.000   1.6
    8    -1820.9130832559053488    -5.41e-02  4.14e-04  7.35e-03  5.92e-02  0.000   1.8
    9    -1820.9159191061694401    -2.84e-03  1.35e-04  2.79e-03  3.01e-02  0.000   1.6
   10    -1820.9168881393393349    -9.69e-04  9.26e-05  1.85e-03  1.84e-02  0.000   1.5
   11    -1820.9171987247013931    -3.11e-04  2.15e-04  4.58e-03  7.63e-03  0.000   1.6
   12    -1820.9172761502832145    -7.74e-05  8.09e-05  1.84e-03  5.15e-03  0.000   1.6
                              *** Initializing SOSCF ***
---------------------------------------S-O-S-C-F--------------------------------------
Iteration    Energy (Eh)           Delta-E    RMSDP     MaxDP     MaxGrad    Time(sec)
--------------------------------------------------------------------------------------
   13    -1820.9173063700009152    -3.02e-05  5.62e-05  1.41e-03  3.85e-04     1.6
               *** Restarting incremental Fock matrix formation ***
   14    -1820.9173075413814331    -1.17e-06  9.20e-05  2.27e-03  4.84e-05     1.9
   15    -1820.9173070727588311     4.69e-07  3.62e-05  8.04e-04  2.81e-04     1.4
                 **** Energy Check signals convergence ****

               *****************************************************
               *                     SUCCESS                       *
               *           SCF CONVERGED AFTER  15 CYCLES          *
               *****************************************************

             **** ENERGY FILE WAS UPDATED (fecn6_nkxas_bp86_tzvp.en.tmp) ****

----------------
TOTAL SCF ENERGY
----------------

Total Energy       :      -1820.91730749148155 Eh          -49549.67899 eV

Components:
Nuclear Repulsion  :        890.44651227545910 Eh           24230.28144 eV
Electronic Energy  :      -2711.36381976694065 Eh          -73779.96044 eV
One Electron Energy:      -4337.26836116407958 Eh         -118023.07228 eV
Two Electron Energy:       1625.90454139713870 Eh           44243.11185 eV

Virial components:
Potential Energy   :      -3637.63127630422150 Eh          -98984.97933 eV
Kinetic Energy     :       1816.71396881273995 Eh           49435.30033 eV
Virial Ratio       :          2.00231370416637

DFT components:
N(Alpha)           :       54.000012926967 electrons
N(Beta)            :       54.000012926967 electrons
N(Total)           :      108.000025853934 electrons
E(X)               :     -126.023923515798 Eh       
E(C)               :       -4.289209282065 Eh       
E(XC)              :     -130.313132797862 Eh       

---------------
SCF CONVERGENCE
---------------

  Last Energy change         ...   -4.6862e-07  Tolerance :   1.0000e-06
  Last MAX-Density change    ...    8.0396e-04  Tolerance :   1.0000e-05
  Last RMS-Density change    ...    3.6185e-05  Tolerance :   1.0000e-06
  Last DIIS Error            ...    3.8461e-04  Tolerance :   1.0000e-06
  Last Orbital Gradient      ...    2.8103e-04  Tolerance :   5.0000e-05
  Last Orbital Rotation      ...    2.9873e-04  Tolerance :   5.0000e-05


----------------
ORBITAL ENERGIES
----------------

  NO   OCC          E(Eh)            E(eV) 
   0   2.0000    -254.234562     -6918.0741 
   1   2.0000     -28.983278      -788.6751 
   2   2.0000     -24.924667      -678.2347 
   3   2.0000     -24.924667      -678.2347 
   4   2.0000     -24.924667      -678.2347 
   5   2.0000     -13.412565      -364.9745 
   6   2.0000     -13.412561      -364.9743 
   7   2.0000     -13.412561      -364.9743 
   8   2.0000     -13.412556      -364.9742 
   9   2.0000     -13.412556      -364.9742 
  10   2.0000     -13.412556      -364.9742 
  11   2.0000      -9.350445      -254.4385 
  12   2.0000      -9.350445      -254.4385 
  13   2.0000      -9.350440      -254.4384 
  14   2.0000      -9.350425      -254.4380 
  15   2.0000      -9.350425      -254.4380 
  16   2.0000      -9.350425      -254.4380 
  17   2.0000      -2.685522       -73.0768 
  18   2.0000      -1.500030       -40.8179 
  19   2.0000      -1.500030       -40.8179 
  20   2.0000      -1.500030       -40.8179 
  21   2.0000      -0.244848        -6.6627 
  22   2.0000      -0.242084        -6.5874 
  23   2.0000      -0.242084        -6.5874 
  24   2.0000      -0.242084        -6.5874 
  25   2.0000      -0.241017        -6.5584 
  26   2.0000      -0.241017        -6.5584 
  27   2.0000       0.107808         2.9336 
  28   2.0000       0.174055         4.7363 
  29   2.0000       0.174055         4.7363 
  30   2.0000       0.174055         4.7363 
  31   2.0000       0.181055         4.9267 
  32   2.0000       0.181055         4.9268 
  33   2.0000       0.235895         6.4190 
  34   2.0000       0.239659         6.5215 
  35   2.0000       0.239659         6.5215 
  36   2.0000       0.239659         6.5215 
  37   2.0000       0.245094         6.6694 
  38   2.0000       0.245094         6.6694 
  39   2.0000       0.245095         6.6694 
  40   2.0000       0.258115         7.0237 
  41   2.0000       0.258115         7.0237 
  42   2.0000       0.265834         7.2337 
  43   2.0000       0.265834         7.2337 
  44   2.0000       0.265834         7.2337 
  45   2.0000       0.275580         7.4989 
  46   2.0000       0.275580         7.4989 
  47   2.0000       0.275580         7.4989 
  48   2.0000       0.294944         8.0258 
  49   2.0000       0.294944         8.0258 
  50   2.0000       0.294945         8.0259 
  51   2.0000       0.383674        10.4403 
  52   2.0000       0.383674        10.4403 
  53   2.0000       0.383674        10.4403 
  54   0.0000       0.513008        13.9597 
  55   0.0000       0.513008        13.9597 
  56   0.0000       0.521151        14.1813 
  57   0.0000       0.556840        15.1524 
  58   0.0000       0.556840        15.1524 
  59   0.0000       0.556840        15.1524 
  60   0.0000       0.564468        15.3600 
  61   0.0000       0.564468        15.3600 
  62   0.0000       0.564468        15.3600 
  63   0.0000       0.581545        15.8246 
  64   0.0000       0.581545        15.8246 
*Only the first 10 virtual orbitals were printed.

                    ********************************
                    * MULLIKEN POPULATION ANALYSIS *
                    ********************************

-----------------------
MULLIKEN ATOMIC CHARGES
-----------------------
   0 Fe:   -0.294358
   1 C :   -0.376613
   2 C :   -0.377012
   3 C :   -0.376990
   4 C :   -0.377111
   5 C :   -0.376998
   6 C :   -0.376872
   7 N :   -0.240651
   8 N :   -0.240691
   9 N :   -0.240670
  10 N :   -0.240697
  11 N :   -0.240667
  12 N :   -0.240669
Sum of atomic charges:   -4.0000000

--------------------------------
MULLIKEN REDUCED ORBITAL CHARGES
--------------------------------
  0 Fes       :     6.676936  s :     6.676936
      pz      :     4.279205  p :    12.837613
      px      :     4.279202
      py      :     4.279205
      dz2     :     0.830687  d :     6.778712
      dxz     :     1.705851
      dyz     :     1.705851
      dx2y2   :     0.830472
      dxy     :     1.705851
      f0      :     0.000319  f :     0.001097
      f+1     :     0.000149
      f-1     :     0.000149
      f+2     :     0.000046
      f-2     :     0.000000
      f+3     :     0.000217
      f-3     :     0.000217

  1 C s       :     3.621874  s :     3.621874
      pz      :     0.789552  p :     2.675930
      px      :     1.096825
      py      :     0.789553
      dz2     :     0.007187  d :     0.068813
      dxz     :     0.021378
      dyz     :     0.000826
      dx2y2   :     0.018044
      dxy     :     0.021378
      f0      :     0.001380  f :     0.009996
      f+1     :     0.000997
      f-1     :     0.000234
      f+2     :     0.002286
      f-2     :     0.000059
      f+3     :     0.001609
      f-3     :     0.003431

  2 C s       :     3.622234  s :     3.622234
      pz      :     0.789552  p :     2.675969
      px      :     1.096866
      py      :     0.789551
      dz2     :     0.007187  d :     0.068812
      dxz     :     0.021378
      dyz     :     0.000826
      dx2y2   :     0.018044
      dxy     :     0.021378
      f0      :     0.001380  f :     0.009996
      f+1     :     0.000997
      f-1     :     0.000234
      f+2     :     0.002286
      f-2     :     0.000059
      f+3     :     0.001609
      f-3     :     0.003431

  3 C s       :     3.622195  s :     3.622195
      pz      :     0.789551  p :     2.675986
      px      :     0.789551
      py      :     1.096884
      dz2     :     0.007188  d :     0.068812
      dxz     :     0.000826
      dyz     :     0.021378
      dx2y2   :     0.018043
      dxy     :     0.021378
      f0      :     0.001380  f :     0.009996
      f+1     :     0.000234
      f-1     :     0.000997
      f+2     :     0.002286
      f-2     :     0.000059
      f+3     :     0.003431
      f-3     :     0.001609

  4 C s       :     3.622338  s :     3.622338
      pz      :     0.789552  p :     2.675964
      px      :     0.789551
      py      :     1.096861
      dz2     :     0.007187  d :     0.068812
      dxz     :     0.000826
      dyz     :     0.021378
      dx2y2   :     0.018043
      dxy     :     0.021378
      f0      :     0.001380  f :     0.009996
      f+1     :     0.000234
      f-1     :     0.000997
      f+2     :     0.002286
      f-2     :     0.000059
      f+3     :     0.003431
      f-3     :     0.001609

  5 C s       :     3.622166  s :     3.622166
      pz      :     1.096919  p :     2.676023
      px      :     0.789552
      py      :     0.789552
      dz2     :     0.023472  d :     0.068813
      dxz     :     0.021378
      dyz     :     0.021378
      dx2y2   :     0.001759
      dxy     :     0.000826
      f0      :     0.002527  f :     0.009996
      f+1     :     0.003658
      f-1     :     0.003658
      f+2     :     0.000079
      f-2     :     0.000059
      f+3     :     0.000008
      f-3     :     0.000008

  6 C s       :     3.622054  s :     3.622054
      pz      :     1.096905  p :     2.676009
      px      :     0.789552
      py      :     0.789552
      dz2     :     0.023472  d :     0.068813
      dxz     :     0.021378
      dyz     :     0.021378
      dx2y2   :     0.001759
      dxy     :     0.000826
      f0      :     0.002527  f :     0.009996
      f+1     :     0.003658
      f-1     :     0.003658
      f+2     :     0.000079
      f-2     :     0.000059
      f+3     :     0.000008
      f-3     :     0.000008

  7 N s       :     3.274623  s :     3.274623
      pz      :     1.266663  p :     3.931570
      px      :     1.398243
      py      :     1.266663
      dz2     :     0.001548  d :     0.032406
      dxz     :     0.013112
      dyz     :     0.000003
      dx2y2   :     0.004633
      dxy     :     0.013112
      f0      :     0.000375  f :     0.002052
      f+1     :     0.000020
      f-1     :     0.000062
      f+2     :     0.000625
      f-2     :     0.000000
      f+3     :     0.000033
      f-3     :     0.000937

  8 N s       :     3.274670  s :     3.274670
      pz      :     1.266664  p :     3.931563
      px      :     1.398235
      py      :     1.266664
      dz2     :     0.001548  d :     0.032407
      dxz     :     0.013112
      dyz     :     0.000003
      dx2y2   :     0.004633
      dxy     :     0.013112
      f0      :     0.000375  f :     0.002052
      f+1     :     0.000020
      f-1     :     0.000062
      f+2     :     0.000625
      f-2     :     0.000000
      f+3     :     0.000033
      f-3     :     0.000937

  9 N s       :     3.274647  s :     3.274647
      pz      :     1.266664  p :     3.931565
      px      :     1.266664
      py      :     1.398237
      dz2     :     0.001548  d :     0.032406
      dxz     :     0.000003
      dyz     :     0.013112
      dx2y2   :     0.004633
      dxy     :     0.013112
      f0      :     0.000375  f :     0.002052
      f+1     :     0.000062
      f-1     :     0.000020
      f+2     :     0.000625
      f-2     :     0.000000
      f+3     :     0.000937
      f-3     :     0.000033

 10 N s       :     3.274675  s :     3.274675
      pz      :     1.266664  p :     3.931564
      px      :     1.266664
      py      :     1.398236
      dz2     :     0.001548  d :     0.032406
      dxz     :     0.000003
      dyz     :     0.013112
      dx2y2   :     0.004633
      dxy     :     0.013112
      f0      :     0.000375  f :     0.002052
      f+1     :     0.000062
      f-1     :     0.000020
      f+2     :     0.000625
      f-2     :     0.000000
      f+3     :     0.000937
      f-3     :     0.000033

 11 N s       :     3.274642  s :     3.274642
      pz      :     1.398240  p :     3.931567
      px      :     1.266664
      py      :     1.266664
      dz2     :     0.006176  d :     0.032406
      dxz     :     0.013112
      dyz     :     0.013112
      dx2y2   :     0.000005
      dxy     :     0.000003
      f0      :     0.000052  f :     0.002052
      f+1     :     0.001000
      f-1     :     0.001000
      f+2     :     0.000000
      f-2     :     0.000000
      f+3     :     0.000000
      f-3     :     0.000000

 12 N s       :     3.274641  s :     3.274641
      pz      :     1.398242  p :     3.931570
      px      :     1.266664
      py      :     1.266664
      dz2     :     0.006176  d :     0.032407
      dxz     :     0.013112
      dyz     :     0.013112
      dx2y2   :     0.000005
      dxy     :     0.000003
      f0      :     0.000052  f :     0.002052
      f+1     :     0.001000
      f-1     :     0.001000
      f+2     :     0.000000
      f-2     :     0.000000
      f+3     :     0.000000
      f-3     :     0.000000



                     *******************************
                     * LOEWDIN POPULATION ANALYSIS *
                     *******************************

----------------------
LOEWDIN ATOMIC CHARGES
----------------------
   0 Fe:   -0.763326
   1 C :   -0.280902
   2 C :   -0.280903
   3 C :   -0.280902
   4 C :   -0.280902
   5 C :   -0.280903
   6 C :   -0.280902
   7 N :   -0.258543
   8 N :   -0.258543
   9 N :   -0.258544
  10 N :   -0.258544
  11 N :   -0.258543
  12 N :   -0.258543

-------------------------------
LOEWDIN REDUCED ORBITAL CHARGES
-------------------------------
  0 Fes       :     6.277186  s :     6.277186
      pz      :     4.310152  p :    12.930456
      px      :     4.310152
      py      :     4.310152
      dz2     :     1.148739  d :     7.553238
      dxz     :     1.751920
      dyz     :     1.751920
      dx2y2   :     1.148738
      dxy     :     1.751921
      f0      :     0.000736  f :     0.002447
      f+1     :     0.000326
      f-1     :     0.000326
      f+2     :     0.000079
      f-2     :     0.000000
      f+3     :     0.000490
      f-3     :     0.000490

  1 C s       :     3.058607  s :     3.058607
      pz      :     0.784831  p :     2.816876
      px      :     1.247215
      py      :     0.784831
      dz2     :     0.033283  d :     0.352987
      dxz     :     0.112376
      dyz     :     0.001775
      dx2y2   :     0.093176
      dxy     :     0.112376
      f0      :     0.006215  f :     0.052432
      f+1     :     0.007284
      f-1     :     0.001034
      f+2     :     0.010228
      f-2     :     0.000257
      f+3     :     0.012004
      f-3     :     0.015409

  2 C s       :     3.058608  s :     3.058608
      pz      :     0.784830  p :     2.816876
      px      :     1.247215
      py      :     0.784830
      dz2     :     0.033283  d :     0.352986
      dxz     :     0.112376
      dyz     :     0.001775
      dx2y2   :     0.093176
      dxy     :     0.112376
      f0      :     0.006215  f :     0.052432
      f+1     :     0.007284
      f-1     :     0.001034
      f+2     :     0.010228
      f-2     :     0.000257
      f+3     :     0.012004
      f-3     :     0.015409

  3 C s       :     3.058609  s :     3.058609
      pz      :     0.784830  p :     2.816875
      px      :     0.784830
      py      :     1.247215
      dz2     :     0.033282  d :     0.352986
      dxz     :     0.001775
      dyz     :     0.112376
      dx2y2   :     0.093176
      dxy     :     0.112376
      f0      :     0.006215  f :     0.052432
      f+1     :     0.001034
      f-1     :     0.007284
      f+2     :     0.010228
      f-2     :     0.000257
      f+3     :     0.015409
      f-3     :     0.012004

  4 C s       :     3.058608  s :     3.058608
      pz      :     0.784830  p :     2.816875
      px      :     0.784830
      py      :     1.247214
      dz2     :     0.033283  d :     0.352986
      dxz     :     0.001775
      dyz     :     0.112376
      dx2y2   :     0.093176
      dxy     :     0.112376
      f0      :     0.006215  f :     0.052432
      f+1     :     0.001034
      f-1     :     0.007284
      f+2     :     0.010228
      f-2     :     0.000257
      f+3     :     0.015409
      f-3     :     0.012004

  5 C s       :     3.058608  s :     3.058608
      pz      :     1.247215  p :     2.816876
      px      :     0.784830
      py      :     0.784831
      dz2     :     0.123123  d :     0.352986
      dxz     :     0.112376
      dyz     :     0.112376
      dx2y2   :     0.003336
      dxy     :     0.001775
      f0      :     0.019085  f :     0.052432
      f+1     :     0.016412
      f-1     :     0.016412
      f+2     :     0.000203
      f-2     :     0.000257
      f+3     :     0.000031
      f-3     :     0.000031

  6 C s       :     3.058608  s :     3.058608
      pz      :     1.247215  p :     2.816876
      px      :     0.784830
      py      :     0.784830
      dz2     :     0.123123  d :     0.352986
      dxz     :     0.112376
      dyz     :     0.112376
      dx2y2   :     0.003336
      dxy     :     0.001775
      f0      :     0.019085  f :     0.052432
      f+1     :     0.016412
      f-1     :     0.016412
      f+2     :     0.000203
      f-2     :     0.000257
      f+3     :     0.000031
      f-3     :     0.000031

  7 N s       :     3.311086  s :     3.311086
      pz      :     1.162134  p :     3.850383
      px      :     1.526116
      py      :     1.162134
      dz2     :     0.011459  d :     0.084416
      dxz     :     0.019293
      dyz     :     0.000003
      dx2y2   :     0.034368
      dxy     :     0.019293
      f0      :     0.001160  f :     0.012658
      f+1     :     0.002425
      f-1     :     0.000194
      f+2     :     0.001936
      f-2     :     0.000001
      f+3     :     0.004041
      f-3     :     0.002902

  8 N s       :     3.311086  s :     3.311086
      pz      :     1.162134  p :     3.850383
      px      :     1.526116
      py      :     1.162134
      dz2     :     0.011459  d :     0.084416
      dxz     :     0.019293
      dyz     :     0.000003
      dx2y2   :     0.034368
      dxy     :     0.019293
      f0      :     0.001160  f :     0.012658
      f+1     :     0.002425
      f-1     :     0.000194
      f+2     :     0.001936
      f-2     :     0.000001
      f+3     :     0.004041
      f-3     :     0.002902

  9 N s       :     3.311086  s :     3.311086
      pz      :     1.162134  p :     3.850383
      px      :     1.162134
      py      :     1.526116
      dz2     :     0.011459  d :     0.084416
      dxz     :     0.000003
      dyz     :     0.019293
      dx2y2   :     0.034368
      dxy     :     0.019293
      f0      :     0.001160  f :     0.012658
      f+1     :     0.000194
      f-1     :     0.002425
      f+2     :     0.001936
      f-2     :     0.000001
      f+3     :     0.002902
      f-3     :     0.004041

 10 N s       :     3.311087  s :     3.311087
      pz      :     1.162134  p :     3.850383
      px      :     1.162134
      py      :     1.526116
      dz2     :     0.011459  d :     0.084416
      dxz     :     0.000003
      dyz     :     0.019293
      dx2y2   :     0.034368
      dxy     :     0.019293
      f0      :     0.001160  f :     0.012658
      f+1     :     0.000194
      f-1     :     0.002425
      f+2     :     0.001936
      f-2     :     0.000001
      f+3     :     0.002902
      f-3     :     0.004041

 11 N s       :     3.311086  s :     3.311086
      pz      :     1.526115  p :     3.850383
      px      :     1.162134
      py      :     1.162134
      dz2     :     0.045822  d :     0.084416
      dxz     :     0.019293
      dyz     :     0.019293
      dx2y2   :     0.000005
      dxy     :     0.000003
      f0      :     0.006466  f :     0.012658
      f+1     :     0.003096
      f-1     :     0.003096
      f+2     :     0.000000
      f-2     :     0.000001
      f+3     :     0.000000
      f-3     :     0.000000

 12 N s       :     3.311086  s :     3.311086
      pz      :     1.526116  p :     3.850383
      px      :     1.162134
      py      :     1.162134
      dz2     :     0.045822  d :     0.084416
      dxz     :     0.019293
      dyz     :     0.019293
      dx2y2   :     0.000005
      dxy     :     0.000003
      f0      :     0.006466  f :     0.012658
      f+1     :     0.003096
      f-1     :     0.003096
      f+2     :     0.000000
      f-2     :     0.000001
      f+3     :     0.000000
      f-3     :     0.000000



                      *****************************
                      * MAYER POPULATION ANALYSIS *
                      *****************************

  NA   - Mulliken gross atomic population
  ZA   - Total nuclear charge
  QA   - Mulliken gross atomic charge
  VA   - Mayer's total valence
  BVA  - Mayer's bonded valence
  FA   - Mayer's free valence

  ATOM       NA         ZA         QA         VA         BVA        FA
  0 Fe    26.2944    26.0000    -0.2944     5.1152     5.1152     0.0000
  1 C      6.3766     6.0000    -0.3766     3.9915     3.9915     0.0000
  2 C      6.3770     6.0000    -0.3770     3.9908     3.9908     0.0000
  3 C      6.3770     6.0000    -0.3770     3.9913     3.9913     0.0000
  4 C      6.3771     6.0000    -0.3771     3.9910     3.9910     0.0000
  5 C      6.3770     6.0000    -0.3770     3.9913     3.9913     0.0000
  6 C      6.3769     6.0000    -0.3769     3.9916     3.9916     0.0000
  7 N      7.2407     7.0000    -0.2407     3.0668     3.0668    -0.0000
  8 N      7.2407     7.0000    -0.2407     3.0668     3.0668     0.0000
  9 N      7.2407     7.0000    -0.2407     3.0668     3.0668     0.0000
 10 N      7.2407     7.0000    -0.2407     3.0668     3.0668     0.0000
 11 N      7.2407     7.0000    -0.2407     3.0668     3.0668     0.0000
 12 N      7.2407     7.0000    -0.2407     3.0668     3.0668     0.0000

  Mayer bond orders larger than 0.100000
B(  0-Fe,  1-C ) :   0.8321 B(  0-Fe,  2-C ) :   0.8318 B(  0-Fe,  3-C ) :   0.8321 
B(  0-Fe,  4-C ) :   0.8320 B(  0-Fe,  5-C ) :   0.8320 B(  0-Fe,  6-C ) :   0.8321 
B(  1-C ,  7-N ) :   3.0507 B(  2-C ,  8-N ) :   3.0506 B(  3-C ,  9-N ) :   3.0506 
B(  4-C , 10-N ) :   3.0505 B(  5-C , 11-N ) :   3.0506 B(  6-C , 12-N ) :   3.0506 


-------
TIMINGS
-------

Total SCF time: 0 days 0 hours 0 min 26 sec 

Total time                  ....      26.520 sec
Sum of individual times     ....      25.259 sec  ( 95.2%)

SCF preparation             ....       0.195 sec  (  0.7%)
Fock matrix formation       ....      23.280 sec  ( 87.8%)
  Startup                   ....       0.013 sec  (  0.1% of F)
  Split-RI-J                ....       5.913 sec  ( 25.4% of F)
  XC integration            ....      18.425 sec  ( 79.1% of F)
    XC Preparation          ....       0.000 sec  (  0.0% of XC)
    Basis function eval.    ....       5.937 sec  ( 32.2% of XC)
    Density eval.           ....       5.481 sec  ( 29.7% of XC)
    XC-Functional eval.     ....       0.461 sec  (  2.5% of XC)
    XC-Potential eval.      ....       5.573 sec  ( 30.2% of XC)
Diagonalization             ....       0.000 sec  (  0.0%)
Density matrix formation    ....       0.132 sec  (  0.5%)
Total Energy calculation    ....       0.051 sec  (  0.2%)
Population analysis         ....       0.056 sec  (  0.2%)
Orbital Transformation      ....       0.157 sec  (  0.6%)
Orbital Orthonormalization  ....       0.000 sec  (  0.0%)
DIIS solution               ....       1.226 sec  (  4.6%)
SOSCF solution              ....       0.152 sec  (  0.6%)
Finished LeanSCF after  26.5 sec

Maximum memory used throughout the entire LEANSCF-calculation: 30.5 MB


           ************************************************************
           *        Program running with 4 parallel MPI-processes     *
           *              working on a common directory               *
           ************************************************************

------------------------------------------------------------------------------
                         ORCA PROPERTY INTEGRAL CALCULATIONS
------------------------------------------------------------------------------

GBWName                                   ... fecn6_nkxas_bp86_tzvp.gbw
Number of atoms                           ...     13
Number of basis functions                 ...    417
Max core memory                           ...   3000 MB

Dipole integrals                          ... YES
Quadrupole integrals                      ...  NO
Linear momentum integrals                 ... YES
Angular momentum integrals                ... YES
Higher moments length integrals           ...  NO
Higher moments velocity integrals         ...  NO
Kinetic energy integrals                  ...  NO
GIAO right hand sides                     ...  NO
GIAO dipole derivative integrals          ...  NO
SOC integrals                             ...  NO
EPR diamagnetic integrals (GIAO)          ...  NO
EPR gauge integrals                       ...  NO
Field gradient integrals                  ...  NO (   0 nuclei)
Spin-dipole/Fermi contact integrals       ...  NO (   0 nuclei)
Contact density integrals                 ...  NO (   0 nuclei)
Nucleus-orbit integrals                   ...  NO (   0 nuclei)
Geometric perturbations                   ...  NO (  13 nuclei)

Choice of electric origin   ... Center of mass
Position of electric origin ... (  0.0000,  0.0000, -0.0000) 
Choice of magnetic origin   ... GIAO
Position of magnetic origin ... (  0.0000,  0.0000,  0.0000) 

Calculating integrals                     ... Electric Dipole (Length)     done (  0.0 sec)
Calculating integrals                     ... Linear Momentum              done (  0.0 sec)
Calculating integrals                     ... Angular Momentum  (ElOri)    done (  0.0 sec)

Property integrals calculated in   0.1 sec

Maximum memory used throughout the entire PROPINT-calculation: 30.2 MB


           ************************************************************
           *        Program running with 4 parallel MPI-processes     *
           *              working on a common directory               *
           ************************************************************
------------------------------------------------------------------------------
                        ORCA TD-DFT/TDA CALCULATION
------------------------------------------------------------------------------

Input orbitals are from        ... fecn6_nkxas_bp86_tzvp.gbw
CI-vector output               ... fecn6_nkxas_bp86_tzvp.cis
Solver                         ... FN-2001
Tamm-Dancoff approximation     ... operative
CIS-Integral strategy          ... AO-integrals
Integral handling              ... AO integral Direct
Max. core memory used          ... 3000 MB
Reference state                ... RHF
Generation of triplets         ... off
Follow IRoot                   ... off
Number of operators            ... 1
Orbital ranges used for CIS calculation:
 Operator 0:  Orbitals   5... 10  to  54...416
XAS localization array:
 Operator 0:  Orbitals  -1... -1

-------------------
XC-INTEGRATION GRID
-------------------

General Integration Accuracy     IntAcc      ... 3.467
Radial Grid Type                 RadialGrid  ... OptM3 with GC (2021)
Angular Grid (max. ang.)         AngularGrid ... 3 (Lebedev-194)
Angular grid pruning method      GridPruning ... 4 (adaptive)
Weight generation scheme         WeightScheme... mBecke (2022)
Basis function cutoff            BFCut       ... 1.0000e-10
Integration weight cutoff        WCut        ... 1.0000e-14
Partially contracted basis set               ... off
Rotationally invariant grid construction     ... off
Angular grids for H and He will be reduced by one unit
Core-polarized basis detected: some atoms will have their core
                               angular grid increased.

Total number of grid points                  ...    34564
Total number of batches                      ...      548
Average number of points per batch           ...       63
Average number of grid points per atom       ...     2659

---------------
TD-DFT XC SETUP
---------------

DFT calculation                         ... on
Name of the grid file                   ... fecn6_nkxas_bp86_tzvp.grid_cis.tmp
RI-approximation                        ... on
Aux-basis dimension                     ... 0
Exchange functional (TD-DFT)            ... B88
   X-Alpha parameter    XAlpha (TD-DFT) ...  0.666667
   Becke's b parameter  XBeta (TD-DFT)  ...  0.004200
Correlation functional (TD-DFT)         ... P86
 LDA part of GGA corr.  LDAOpt (TD-DFT) ... PW91-LDA

Building densities             ... done
Calculating rho(r) on the grid ... done
Building xc-kernel on the grid ... done
                    *** TD-DFT CALCULATION INITIALIZED ***

------------------------
DAVIDSON-DIAGONALIZATION
------------------------

Dimension of the eigenvalue problem            ...   2178
Number of roots to be determined               ...    200
Maximum size of the expansion space            ...   2000
Maximum number of iterations                   ...    100
Convergence tolerance for the residual         ...    1.000e-06
Convergence tolerance for the energies         ...    1.000e-06
Orthogonality tolerance                        ...    1.000e-14
Level Shift                                    ...    0.000e+00
Constructing the preconditioner                ... o.k.
Building the initial guess                     ... o.k.
Number of trial vectors determined             ...    512


                       ****Iteration    0****
   Time for iteration     :  TOTAL=190.0 TRAFO=3.0 RIJ=26.7 XC=159.4
   Size of expansion space: 512
   Lowest Energy          :    13.925563698093
   Maximum Energy change  :    14.264937183098 (vector 199)
   Maximum residual norm  :     0.004394006759

                       ****Iteration    1****
   Time for iteration     :  TOTAL=204.9 TRAFO=2.2 RIJ=15.6 XC=186.6
   Size of expansion space: 712
   Lowest Energy          :    13.925563698089
   Maximum Energy change  :     0.000433595562 (vector 159)
   Maximum residual norm  :     0.000000000003

      *** CONVERGENCE OF RESIDUAL NORM REACHED ***

Storing the converged CI vectors               ... fecn6_nkxas_bp86_tzvp.cis1

                 *** DAVIDSON DONE ***

Total time for solving the CIS problem:   413.719sec

------------------------------------
TD-DFT/TDA EXCITED STATES (SINGLETS)
------------------------------------

the weight of the individual excitations are printed if larger than 1.0e-02

STATE  1:  E=  13.925564 au    378.934 eV  3056308.0 cm**-1 <S**2> =   0.000000 Mult 1
    10a ->  54a  :     0.966148 (c=  0.98292823)
    10a ->  55a  :     0.033838 (c=  0.18395163)

STATE  2:  E=  13.925564 au    378.934 eV  3056308.0 cm**-1 <S**2> =   0.000000 Mult 1
     9a ->  54a  :     0.423563 (c=  0.65081686)
     9a ->  55a  :     0.576365 (c= -0.75918683)

STATE  3:  E=  13.925564 au    378.934 eV  3056308.1 cm**-1 <S**2> =   0.000000 Mult 1
     8a ->  54a  :     0.110367 (c=  0.33221551)
     8a ->  55a  :     0.889632 (c=  0.94320301)

STATE  4:  E=  13.925569 au    378.934 eV  3056309.2 cm**-1 <S**2> =   0.000000 Mult 1
     6a ->  55a  :     0.399306 (c=  0.63190642)
     7a ->  54a  :     0.594885 (c= -0.77128806)

STATE  5:  E=  13.925571 au    378.934 eV  3056309.6 cm**-1 <S**2> =   0.000000 Mult 1
     5a ->  54a  :     0.454098 (c= -0.67386765)
     6a ->  54a  :     0.119238 (c= -0.34530909)
     6a ->  55a  :     0.209469 (c=  0.45767737)
     7a ->  54a  :     0.107165 (c=  0.32736124)
     7a ->  55a  :     0.105134 (c=  0.32424389)

STATE  6:  E=  13.925572 au    378.934 eV  3056309.7 cm**-1 <S**2> =   0.000000 Mult 1
     5a ->  55a  :     0.529556 (c=  0.72770622)
     6a ->  54a  :     0.146224 (c= -0.38239300)
     6a ->  55a  :     0.125656 (c= -0.35447962)
     7a ->  54a  :     0.069131 (c= -0.26292829)
     7a ->  55a  :     0.124169 (c=  0.35237581)

STATE  7:  E=  13.927109 au    378.976 eV  3056647.1 cm**-1 <S**2> =   0.000000 Mult 1
    10a ->  54a  :     0.033431 (c=  0.18284019)
    10a ->  55a  :     0.954479 (c= -0.97697438)
    10a ->  56a  :     0.011473 (c=  0.10711047)

STATE  8:  E=  13.927109 au    378.976 eV  3056647.2 cm**-1 <S**2> =   0.000000 Mult 1
     9a ->  54a  :     0.569393 (c=  0.75458109)
     9a ->  55a  :     0.418426 (c=  0.64685854)
     9a ->  56a  :     0.011470 (c=  0.10709796)

STATE  9:  E=  13.927110 au    378.976 eV  3056647.2 cm**-1 <S**2> =   0.000000 Mult 1
     8a ->  54a  :     0.878895 (c=  0.93749383)
     8a ->  55a  :     0.109035 (c= -0.33020492)
     8a ->  56a  :     0.011472 (c= -0.10710585)

STATE 10:  E=  13.927116 au    378.976 eV  3056648.7 cm**-1 <S**2> =   0.000000 Mult 1
     5a ->  55a  :     0.416212 (c= -0.64514500)
     6a ->  54a  :     0.066055 (c= -0.25701232)
     6a ->  55a  :     0.062560 (c= -0.25012080)
     7a ->  54a  :     0.045514 (c= -0.21334059)
     7a ->  55a  :     0.389134 (c=  0.62380619)
     7a ->  56a  :     0.010652 (c= -0.10321034)

STATE 11:  E=  13.927116 au    378.976 eV  3056648.7 cm**-1 <S**2> =   0.000000 Mult 1
     5a ->  54a  :     0.508865 (c=  0.71334747)
     5a ->  55a  :     0.010595 (c=  0.10292982)
     6a ->  54a  :     0.014306 (c= -0.11960579)
     6a ->  55a  :     0.199562 (c=  0.44672315)
     6a ->  56a  :     0.010980 (c=  0.10478377)
     7a ->  54a  :     0.178439 (c=  0.42242016)
     7a ->  55a  :     0.076136 (c=  0.27592772)

STATE 12:  E=  13.927117 au    378.976 eV  3056648.8 cm**-1 <S**2> =   0.000000 Mult 1
     5a ->  54a  :     0.014194 (c= -0.11913973)
     5a ->  55a  :     0.032244 (c=  0.17956745)
     5a ->  56a  :     0.010949 (c=  0.10463818)
     6a ->  54a  :     0.643885 (c=  0.80242475)
     7a ->  55a  :     0.295282 (c=  0.54339859)

STATE 13:  E=  13.934571 au    379.179 eV  3058284.8 cm**-1 <S**2> =   0.000000 Mult 1
    10a ->  55a  :     0.010927 (c=  0.10453231)
    10a ->  56a  :     0.987372 (c=  0.99366577)

STATE 14:  E=  13.934571 au    379.179 eV  3058284.8 cm**-1 <S**2> =   0.000000 Mult 1
     9a ->  56a  :     0.987533 (c= -0.99374713)

STATE 15:  E=  13.934571 au    379.179 eV  3058284.9 cm**-1 <S**2> =   0.000000 Mult 1
     8a ->  54a  :     0.010062 (c=  0.10030866)
     8a ->  56a  :     0.987476 (c=  0.99371844)

STATE 16:  E=  13.934576 au    379.179 eV  3058286.0 cm**-1 <S**2> =   0.000000 Mult 1
     7a ->  56a  :     0.982304 (c=  0.99111231)

STATE 17:  E=  13.934576 au    379.179 eV  3058286.0 cm**-1 <S**2> =   0.000000 Mult 1
     6a ->  56a  :     0.982441 (c= -0.99118141)

STATE 18:  E=  13.934581 au    379.179 eV  3058286.9 cm**-1 <S**2> =   0.000000 Mult 1
     5a ->  56a  :     0.987499 (c= -0.99373007)

STATE 19:  E=  13.969396 au    380.127 eV  3065928.0 cm**-1 <S**2> =   0.000000 Mult 1
    10a ->  57a  :     0.140558 (c=  0.37491110)
    10a ->  58a  :     0.756274 (c=  0.86964038)
    10a ->  59a  :     0.103144 (c= -0.32116011)

STATE 20:  E=  13.969396 au    380.127 eV  3065928.0 cm**-1 <S**2> =   0.000000 Mult 1
     9a ->  57a  :     0.820415 (c=  0.90576767)
     9a ->  58a  :     0.072817 (c= -0.26984589)
     9a ->  59a  :     0.106665 (c=  0.32659597)

STATE 21:  E=  13.969396 au    380.127 eV  3065928.1 cm**-1 <S**2> =   0.000000 Mult 1
     8a ->  57a  :     0.038966 (c=  0.19739846)
     8a ->  58a  :     0.170895 (c= -0.41339471)
     8a ->  59a  :     0.790135 (c= -0.88889560)

STATE 22:  E=  13.969402 au    380.127 eV  3065929.4 cm**-1 <S**2> =   0.000000 Mult 1
     5a ->  57a  :     0.040742 (c= -0.20184715)
     5a ->  58a  :     0.219434 (c= -0.46843756)
     5a ->  59a  :     0.029946 (c=  0.17305031)
     6a ->  58a  :     0.032745 (c= -0.18095508)
     7a ->  57a  :     0.093751 (c=  0.30618813)
     7a ->  58a  :     0.504074 (c=  0.70998195)
     7a ->  59a  :     0.068729 (c= -0.26216280)

STATE 23:  E=  13.969403 au    380.127 eV  3065929.5 cm**-1 <S**2> =   0.000000 Mult 1
     5a ->  57a  :     0.271023 (c=  0.52059824)
     5a ->  58a  :     0.024012 (c= -0.15495732)
     5a ->  59a  :     0.035252 (c=  0.18775490)
     6a ->  57a  :     0.311863 (c=  0.55844718)
     6a ->  58a  :     0.027679 (c= -0.16637054)
     6a ->  59a  :     0.040494 (c=  0.20123091)
     7a ->  57a  :     0.237605 (c=  0.48744762)
     7a ->  58a  :     0.021130 (c= -0.14536259)
     7a ->  59a  :     0.030928 (c=  0.17586392)

STATE 24:  E=  13.969403 au    380.127 eV  3065929.6 cm**-1 <S**2> =   0.000000 Mult 1
     5a ->  57a  :     0.014680 (c= -0.12116007)
     5a ->  58a  :     0.064331 (c=  0.25363580)
     5a ->  59a  :     0.297289 (c=  0.54524181)
     6a ->  57a  :     0.022509 (c=  0.15003078)
     6a ->  58a  :     0.098806 (c= -0.31433390)
     6a ->  59a  :     0.456975 (c= -0.67599909)
     7a ->  59a  :     0.035840 (c=  0.18931431)

STATE 25:  E=  13.970986 au    380.170 eV  3066277.0 cm**-1 <S**2> =   0.000000 Mult 1
     7a ->  62a  :     0.051948 (c= -0.22792174)
     9a ->  57a  :     0.053432 (c= -0.23115375)
     9a ->  58a  :     0.306176 (c= -0.55333136)
     9a ->  59a  :     0.031930 (c=  0.17868862)
    10a ->  57a  :     0.453335 (c=  0.67330141)
    10a ->  58a  :     0.053945 (c= -0.23226028)
    10a ->  59a  :     0.026138 (c=  0.16167375)

STATE 26:  E=  13.970986 au    380.170 eV  3066277.0 cm**-1 <S**2> =   0.000000 Mult 1
     6a ->  60a  :     0.015607 (c= -0.12492941)
     6a ->  61a  :     0.010759 (c=  0.10372373)
     7a ->  60a  :     0.017008 (c=  0.13041480)
     7a ->  61a  :     0.018521 (c= -0.13609095)
     8a ->  57a  :     0.079816 (c= -0.28251746)
     8a ->  58a  :     0.245629 (c= -0.49560969)
     8a ->  59a  :     0.028163 (c=  0.16781813)
    10a ->  58a  :     0.083549 (c=  0.28904897)
    10a ->  59a  :     0.475645 (c=  0.68966992)

STATE 27:  E=  13.970986 au    380.170 eV  3066277.1 cm**-1 <S**2> =   0.000000 Mult 1
     6a ->  60a  :     0.028913 (c= -0.17003817)
     6a ->  61a  :     0.026421 (c= -0.16254444)
     8a ->  57a  :     0.317913 (c= -0.56383786)
     8a ->  58a  :     0.048827 (c=  0.22096832)
     8a ->  59a  :     0.052209 (c= -0.22849342)
     9a ->  57a  :     0.020576 (c= -0.14344190)
     9a ->  58a  :     0.081956 (c=  0.28628009)
     9a ->  59a  :     0.400667 (c=  0.63298290)

STATE 28:  E=  13.970988 au    380.170 eV  3066277.4 cm**-1 <S**2> =   0.000000 Mult 1
     5a ->  62a  :     0.034486 (c= -0.18570519)
     6a ->  62a  :     0.021337 (c= -0.14607237)
     9a ->  57a  :     0.072002 (c= -0.26833226)
     9a ->  58a  :     0.405602 (c= -0.63686882)
     9a ->  59a  :     0.049457 (c=  0.22238885)
    10a ->  57a  :     0.329034 (c= -0.57361457)
    10a ->  58a  :     0.031456 (c=  0.17735920)
    10a ->  59a  :     0.033850 (c= -0.18398439)

STATE 29:  E=  13.970988 au    380.170 eV  3066277.5 cm**-1 <S**2> =   0.000000 Mult 1
     5a ->  60a  :     0.031451 (c=  0.17734546)
     5a ->  61a  :     0.011781 (c= -0.10853874)
     8a ->  57a  :     0.191730 (c= -0.43786993)
     8a ->  58a  :     0.341466 (c= -0.58435052)
     8a ->  59a  :     0.030472 (c=  0.17456171)
     9a ->  59a  :     0.020901 (c= -0.14457209)
    10a ->  58a  :     0.052654 (c= -0.22946447)
    10a ->  59a  :     0.272489 (c= -0.52200467)

STATE 30:  E=  13.970988 au    380.170 eV  3066277.5 cm**-1 <S**2> =   0.000000 Mult 1
     5a ->  60a  :     0.012937 (c= -0.11373977)
     5a ->  61a  :     0.027132 (c= -0.16471651)
     7a ->  60a  :     0.011703 (c= -0.10818233)
     8a ->  57a  :     0.298904 (c=  0.54672107)
     8a ->  58a  :     0.130112 (c= -0.36071081)
     8a ->  59a  :     0.083350 (c=  0.28870393)
     9a ->  57a  :     0.017733 (c= -0.13316395)
     9a ->  58a  :     0.053549 (c=  0.23140561)
     9a ->  59a  :     0.315801 (c=  0.56196168)
    10a ->  59a  :     0.020283 (c= -0.14241909)

STATE 31:  E=  13.970989 au    380.170 eV  3066277.7 cm**-1 <S**2> =   0.000000 Mult 1
     6a ->  57a  :     0.127623 (c=  0.35724386)
     6a ->  59a  :     0.083126 (c=  0.28831664)
     7a ->  57a  :     0.304142 (c= -0.55149047)
     7a ->  58a  :     0.185911 (c=  0.43117397)
     7a ->  59a  :     0.221130 (c=  0.47024474)
    10a ->  61a  :     0.019868 (c= -0.14095526)

STATE 32:  E=  13.970989 au    380.170 eV  3066277.7 cm**-1 <S**2> =   0.000000 Mult 1
     6a ->  57a  :     0.240895 (c= -0.49081048)
     6a ->  58a  :     0.029081 (c=  0.17053163)
     7a ->  57a  :     0.142715 (c=  0.37777627)
     7a ->  59a  :     0.504796 (c=  0.71048979)
     8a ->  60a  :     0.010320 (c= -0.10158561)
    10a ->  62a  :     0.024462 (c= -0.15640298)

STATE 33:  E=  13.970990 au    380.170 eV  3066277.8 cm**-1 <S**2> =   0.000000 Mult 1
     6a ->  57a  :     0.094075 (c=  0.30671720)
     6a ->  58a  :     0.669069 (c=  0.81796610)
     6a ->  59a  :     0.102755 (c= -0.32055370)
     7a ->  57a  :     0.020734 (c=  0.14399400)
     7a ->  58a  :     0.030479 (c=  0.17458206)
     8a ->  60a  :     0.011864 (c=  0.10892028)
     8a ->  61a  :     0.018106 (c= -0.13455723)
     9a ->  62a  :     0.030198 (c=  0.17377539)

STATE 34:  E=  13.970995 au    380.170 eV  3066278.9 cm**-1 <S**2> =   0.000000 Mult 1
     5a ->  57a  :     0.122124 (c=  0.34946296)
     5a ->  58a  :     0.140585 (c= -0.37494636)
     5a ->  59a  :     0.320305 (c= -0.56595499)
     6a ->  58a  :     0.035127 (c= -0.18742111)
     6a ->  59a  :     0.274154 (c= -0.52359720)
     7a ->  57a  :     0.017448 (c= -0.13209130)
     7a ->  59a  :     0.011338 (c=  0.10647810)
     9a ->  60a  :     0.016984 (c=  0.13032412)
     9a ->  61a  :     0.012221 (c=  0.11054786)
    10a ->  60a  :     0.011752 (c=  0.10840641)
    10a ->  61a  :     0.018926 (c= -0.13757029)

STATE 35:  E=  13.970995 au    380.170 eV  3066278.9 cm**-1 <S**2> =   0.000000 Mult 1
     5a ->  57a  :     0.445444 (c=  0.66741613)
     5a ->  59a  :     0.171960 (c=  0.41468063)
     6a ->  57a  :     0.149877 (c= -0.38713898)
     6a ->  58a  :     0.026674 (c=  0.16332031)
     7a ->  57a  :     0.085828 (c= -0.29296446)
     7a ->  58a  :     0.014974 (c=  0.12236699)
     7a ->  59a  :     0.032116 (c= -0.17920894)
     8a ->  60a  :     0.021237 (c= -0.14572754)
    10a ->  62a  :     0.026707 (c=  0.16342158)

STATE 36:  E=  13.970995 au    380.170 eV  3066278.9 cm**-1 <S**2> =   0.000000 Mult 1
     5a ->  57a  :     0.057897 (c=  0.24061699)
     5a ->  58a  :     0.501056 (c=  0.70785282)
     5a ->  59a  :     0.099805 (c= -0.31591862)
     6a ->  58a  :     0.015947 (c= -0.12628146)
     7a ->  57a  :     0.047591 (c=  0.21815364)
     7a ->  58a  :     0.184891 (c=  0.42998950)
     7a ->  59a  :     0.020765 (c= -0.14410148)
     8a ->  60a  :     0.012215 (c= -0.11052068)
     8a ->  61a  :     0.021082 (c=  0.14519519)
     9a ->  62a  :     0.028361 (c=  0.16840806)

STATE 37:  E=  13.977158 au    380.338 eV  3067631.6 cm**-1 <S**2> =   0.000000 Mult 1
     8a ->  62a  :     0.015961 (c= -0.12633867)
     9a ->  60a  :     0.075566 (c=  0.27489289)
     9a ->  61a  :     0.085406 (c= -0.29224292)
    10a ->  60a  :     0.437891 (c= -0.66173308)
    10a ->  61a  :     0.310051 (c= -0.55682259)
    10a ->  62a  :     0.068412 (c= -0.26155610)

STATE 38:  E=  13.977159 au    380.338 eV  3067631.7 cm**-1 <S**2> =   0.000000 Mult 1
     8a ->  61a  :     0.026859 (c= -0.16388651)
     8a ->  62a  :     0.238859 (c=  0.48873155)
     9a ->  60a  :     0.292489 (c=  0.54082244)
     9a ->  61a  :     0.338694 (c= -0.58197453)
     9a ->  62a  :     0.018094 (c= -0.13451519)
    10a ->  60a  :     0.044480 (c=  0.21090340)
    10a ->  61a  :     0.030503 (c=  0.17465021)

STATE 39:  E=  13.977159 au    380.338 eV  3067631.8 cm**-1 <S**2> =   0.000000 Mult 1
     8a ->  61a  :     0.071720 (c= -0.26780582)
     8a ->  62a  :     0.633430 (c=  0.79588325)
     9a ->  60a  :     0.083211 (c= -0.28846391)
     9a ->  61a  :     0.096505 (c=  0.31065312)
    10a ->  60a  :     0.054992 (c= -0.23450354)
    10a ->  61a  :     0.038242 (c= -0.19555610)

STATE 40:  E=  13.977165 au    380.338 eV  3067633.1 cm**-1 <S**2> =   0.000000 Mult 1
     5a ->  60a  :     0.156295 (c= -0.39534168)
     5a ->  61a  :     0.110024 (c= -0.33169824)
     5a ->  62a  :     0.024330 (c= -0.15598060)
     6a ->  60a  :     0.023278 (c= -0.15257123)
     6a ->  61a  :     0.016352 (c= -0.12787495)
     7a ->  60a  :     0.357771 (c=  0.59813992)
     7a ->  61a  :     0.252407 (c=  0.50240127)
     7a ->  62a  :     0.055753 (c=  0.23612021)

STATE 41:  E=  13.977165 au    380.338 eV  3067633.2 cm**-1 <S**2> =   0.000000 Mult 1
     5a ->  60a  :     0.149233 (c=  0.38630749)
     5a ->  61a  :     0.172339 (c= -0.41513706)
     6a ->  60a  :     0.171337 (c=  0.41392891)
     6a ->  61a  :     0.197758 (c= -0.44470026)
     6a ->  62a  :     0.010596 (c= -0.10293701)
[...]
  0-1A  -> 82-1A   381.261163 3075079.0     3.3   -0.00004   0.00021  -0.00062  -0.00007
  0-1A  -> 83-1A   381.261183 3075079.1     3.3    0.00002   0.00016  -0.00026   0.00017
  0-1A  -> 84-1A   381.261193 3075079.2     3.3   -0.00001  -0.00001  -0.00009  -0.00060
  0-1A  -> 85-1A   381.372506 3075977.0     3.3    0.00000   0.00001   0.00001  -0.00001
  0-1A  -> 86-1A   381.372509 3075977.0     3.3   -0.00000   0.00000  -0.00001  -0.00002
  0-1A  -> 87-1A   381.372526 3075977.2     3.3    0.00000   0.00000   0.00000  -0.00000
  0-1A  -> 88-1A   381.372683 3075978.4     3.3   -0.00000   0.00001  -0.00000   0.00000
  0-1A  -> 89-1A   381.372690 3075978.5     3.3   -0.00000  -0.00000  -0.00000  -0.00001
  0-1A  -> 90-1A   381.372692 3075978.5     3.3    0.00000  -0.00001   0.00000   0.00001
  0-1A  -> 91-1A   381.779825 3079262.3     3.2   -0.00000   0.00000  -0.00003  -0.00000
  0-1A  -> 92-1A   381.779830 3079262.3     3.2    0.00000  -0.00007   0.00000   0.00000
  0-1A  -> 93-1A   381.779842 3079262.4     3.2   -0.00000  -0.00000  -0.00000   0.00001
  0-1A  -> 94-1A   381.780009 3079263.8     3.2   -0.00000   0.00000  -0.00210  -0.00000
  0-1A  -> 95-1A   381.780014 3079263.8     3.2   -0.00000  -0.00209   0.00000   0.00000
  0-1A  -> 96-1A   381.780025 3079263.9     3.2    0.00000   0.00000  -0.00000  -0.00210
  0-1A  -> 97-1A   381.842644 3079768.9     3.2    0.00049  -0.02432  -0.05940  -0.00010
  0-1A  -> 98-1A   381.842649 3079769.0     3.2   -0.00036   0.00029   0.00479  -0.02316
  0-1A  -> 99-1A   381.842652 3079769.0     3.2   -0.00069   0.00370  -0.00023  -0.05780
  0-1A  -> 100-1A   381.842767 3079769.9     3.2   -0.23293   2.31562  -0.11659   0.38747
  0-1A  -> 101-1A   381.842767 3079769.9     3.2    0.28795  -0.38991   0.01427   2.31251
  0-1A  -> 102-1A   381.842772 3079770.0     3.2   -0.02051  -0.16113  -2.27083  -0.00315
  0-1A  -> 103-1A   381.842786 3079770.1     3.2   -0.10549  -0.14531   0.63293  -0.00154
  0-1A  -> 104-1A   381.842790 3079770.1     3.2   -0.07320   0.00172  -0.04408  -0.09314
  0-1A  -> 105-1A   381.842793 3079770.1     3.2    0.14545  -0.01571  -0.00770  -0.25404
  0-1A  -> 106-1A   381.842891 3079770.9     3.2    0.00544  -0.03865  -0.00127  -0.07101
  0-1A  -> 107-1A   381.842891 3079770.9     3.2   -0.00501  -0.12989  -0.00041   0.02048
  0-1A  -> 108-1A   381.842897 3079771.0     3.2   -0.00115  -0.00058  -0.06162   0.00104
  0-1A  -> 109-1A   382.066842 3081577.2     3.2   -0.00000   0.00001   0.00000   0.00002
  0-1A  -> 110-1A   382.067022 3081578.7     3.2    0.00000   0.00003  -0.00000  -0.00001
  0-1A  -> 111-1A   382.067114 3081579.4     3.2    0.00000   0.00003   0.00000   0.00000
  0-1A  -> 112-1A   382.067146 3081579.7     3.2    0.00000   0.00000   0.00001   0.00000
  0-1A  -> 113-1A   382.067291 3081580.8     3.2   -0.00000   0.00005   0.00005   0.00000
  0-1A  -> 114-1A   382.067337 3081581.2     3.2    0.00000   0.00002   0.00002  -0.00001
  0-1A  -> 115-1A   382.181360 3082500.9     3.2   -0.00000  -0.00000  -0.00002   0.00003
  0-1A  -> 116-1A   382.181425 3082501.4     3.2    0.00000  -0.00001  -0.00001  -0.00000
  0-1A  -> 117-1A   382.181550 3082502.4     3.2    0.00000   0.00001   0.00004   0.00000
  0-1A  -> 118-1A   382.181626 3082503.0     3.2   -0.00000  -0.00002  -0.00000   0.00000
  0-1A  -> 119-1A   382.181682 3082503.5     3.2   -0.00001  -0.00003  -0.00000  -0.00001
  0-1A  -> 120-1A   382.181887 3082505.1     3.2    0.00000  -0.00003   0.00000  -0.00001
  0-1A  -> 121-1A   384.582062 3101863.8     3.2    0.00000  -0.00000  -0.00000   0.00000
  0-1A  -> 122-1A   384.582069 3101863.9     3.2   -0.00000   0.00000  -0.00001   0.00001
  0-1A  -> 123-1A   384.582071 3101863.9     3.2    0.00000  -0.00000   0.00000  -0.00000
  0-1A  -> 124-1A   384.582245 3101865.3     3.2    0.00000   0.00022  -0.00000  -0.00014
  0-1A  -> 125-1A   384.582252 3101865.4     3.2   -0.00000   0.00000   0.00022  -0.00016
  0-1A  -> 126-1A   384.582254 3101865.4     3.2   -0.00000   0.00016  -0.00014   0.00000
  0-1A  -> 127-1A   384.604141 3102041.9     3.2   -0.01226   0.00973   0.01925   0.02657
  0-1A  -> 128-1A   384.604147 3102042.0     3.2   -0.03883  -0.01174  -0.02960   0.00895
  0-1A  -> 129-1A   384.604149 3102042.0     3.2    0.06275  -0.00700  -0.00448   0.04075
  0-1A  -> 130-1A   384.604192 3102042.3     3.2   -0.04427   0.01984  -0.06172   0.00508
  0-1A  -> 131-1A   384.604193 3102042.3     3.2    0.03024  -0.00088  -0.01590  -0.06114
  0-1A  -> 132-1A   384.604200 3102042.4     3.2   -0.00842   0.01178  -0.01942   0.04065
  0-1A  -> 133-1A   384.604251 3102042.8     3.2    0.03012  -0.34637  -0.21594  -1.25556
  0-1A  -> 134-1A   384.604260 3102042.9     3.2   -0.00373  -1.16256  -0.48457   0.40370
  0-1A  -> 135-1A   384.604266 3102042.9     3.2   -0.01486  -0.52438   1.20978  -0.06184
  0-1A  -> 136-1A   384.604395 3102044.0     3.2   -0.00417  -0.03237   0.02469  -0.03571
  0-1A  -> 137-1A   384.604403 3102044.0     3.2    0.00001   0.04375  -0.00377   0.01821
  0-1A  -> 138-1A   384.604410 3102044.1     3.2    0.00343   0.05027  -0.03803  -0.00881
  0-1A  -> 139-1A   385.062887 3105742.0     3.2   -0.00090   0.32789   0.01000   0.51905
  0-1A  -> 140-1A   385.062891 3105742.0     3.2    0.00261   0.48448  -0.16153  -0.31152
  0-1A  -> 141-1A   385.062899 3105742.1     3.2    0.00472  -0.07233  -0.55345   0.11166
  0-1A  -> 142-1A   385.062901 3105742.1     3.2   -0.01523  -0.18522  -0.06734   0.07742
  0-1A  -> 143-1A   385.062906 3105742.1     3.2    0.00989   0.01876   0.10000   0.07880
  0-1A  -> 144-1A   385.062917 3105742.2     3.2   -0.00104   0.09757   0.21073   0.01721
  0-1A  -> 145-1A   385.063043 3105743.2     3.2   -0.00009   0.00025  -0.00257  -0.01114
  0-1A  -> 146-1A   385.063045 3105743.2     3.2    0.00004   0.00537   0.01149   0.00159
  0-1A  -> 147-1A   385.063052 3105743.3     3.2    0.00003   0.00216   0.00581  -0.00878
  0-1A  -> 148-1A   385.063127 3105743.9     3.2    0.00293  -0.00087   0.00377   0.00537
  0-1A  -> 149-1A   385.063131 3105743.9     3.2   -0.00473  -0.00334   0.00796  -0.00380
  0-1A  -> 150-1A   385.063138 3105744.0     3.2    0.00177  -0.00056   0.00240   0.00475
  0-1A  -> 151-1A   385.118589 3106191.2     3.2    0.00001  -0.00002  -0.00001  -0.00005
  0-1A  -> 152-1A   385.118601 3106191.3     3.2   -0.00001  -0.00002   0.00004   0.00001
  0-1A  -> 153-1A   385.118683 3106192.0     3.2    0.00003  -0.00000  -0.00001   0.00002
  0-1A  -> 154-1A   385.118730 3106192.4     3.2   -0.00009   0.00002   0.00000   0.00012
  0-1A  -> 155-1A   385.118733 3106192.4     3.2    0.00006  -0.00003   0.00001   0.00006
  0-1A  -> 156-1A   385.118741 3106192.5     3.2    0.00001   0.00011  -0.00004   0.00000
  0-1A  -> 157-1A   385.311321 3107745.7     3.2   -0.00000  -0.00001  -0.00000   0.00002
  0-1A  -> 158-1A   385.311364 3107746.1     3.2   -0.00001   0.00005  -0.00002  -0.00000
  0-1A  -> 159-1A   385.311384 3107746.2     3.2    0.00001  -0.00000  -0.00001  -0.00004
  0-1A  -> 160-1A   385.311409 3107746.4     3.2    0.00003   0.00001  -0.00000  -0.00002
  0-1A  -> 161-1A   385.311437 3107746.7     3.2   -0.00002   0.00001   0.00000   0.00001
  0-1A  -> 162-1A   385.311663 3107748.5     3.2    0.00000  -0.00000   0.00000  -0.00000
  0-1A  -> 163-1A   385.597357 3110052.7     3.2   -0.00000   0.00001   0.00000  -0.00000
  0-1A  -> 164-1A   385.597383 3110053.0     3.2    0.00000   0.00004  -0.00003   0.00000
  0-1A  -> 165-1A   385.597384 3110053.0     3.2   -0.00000   0.00000  -0.00000  -0.00004
  0-1A  -> 166-1A   385.597502 3110053.9     3.2   -0.00000  -0.00000   0.00000   0.00001
  0-1A  -> 167-1A   385.597521 3110054.1     3.2    0.00000  -0.00000  -0.00000  -0.00001
  0-1A  -> 168-1A   385.597656 3110055.2     3.2    0.00000  -0.00000  -0.00000   0.00000
  0-1A  -> 169-1A   386.632664 3118403.1     3.2    0.00000   0.00001  -0.00007   0.00000
  0-1A  -> 170-1A   386.632747 3118403.7     3.2   -0.00000  -0.00001   0.00000   0.00006
  0-1A  -> 171-1A   386.632837 3118404.5     3.2    0.00000  -0.00000  -0.00004  -0.00001
  0-1A  -> 172-1A   386.632841 3118404.5     3.2   -0.00000  -0.00001   0.00000   0.00000
  0-1A  -> 173-1A   386.632932 3118405.2     3.2   -0.00000  -0.00000  -0.00000   0.00001
  0-1A  -> 174-1A   386.633026 3118406.0     3.2    0.00000  -0.00000  -0.00000   0.00000
  0-1A  -> 175-1A   386.656038 3118591.6     3.2    0.00000  -0.00000  -0.00003  -0.00004
  0-1A  -> 176-1A   386.656124 3118592.3     3.2   -0.00000  -0.00007   0.00000   0.00013
  0-1A  -> 177-1A   386.656231 3118593.1     3.2   -0.00000  -0.00002  -0.00011  -0.00000
  0-1A  -> 178-1A   386.656234 3118593.2     3.2    0.00000   0.00000   0.00000  -0.00000
  0-1A  -> 179-1A   386.656320 3118593.9     3.2   -0.00000   0.00000   0.00000  -0.00001
  0-1A  -> 180-1A   386.656427 3118594.7     3.2    0.00000   0.00001   0.00000   0.00000
  0-1A  -> 181-1A   386.710528 3119031.1     3.2   -0.00000  -0.00001  -0.00000  -0.00001
  0-1A  -> 182-1A   386.710534 3119031.1     3.2   -0.00000   0.00000  -0.00001   0.00001
  0-1A  -> 183-1A   386.710542 3119031.2     3.2    0.00000   0.00001  -0.00001   0.00000
  0-1A  -> 184-1A   386.710711 3119032.6     3.2   -0.00000   0.00000  -0.00000  -0.00000
  0-1A  -> 185-1A   386.710717 3119032.6     3.2    0.00000   0.00000  -0.00000   0.00000
  0-1A  -> 186-1A   386.710725 3119032.7     3.2    0.00000   0.00000   0.00000   0.00000
  0-1A  -> 187-1A   386.747048 3119325.6     3.2   -0.00076   0.10753  -0.01274   1.67083
  0-1A  -> 188-1A   386.747052 3119325.7     3.2    0.00036   1.66807   0.03497  -0.10777
  0-1A  -> 189-1A   386.747055 3119325.7     3.2    0.00052   0.03391  -1.67453  -0.01494
  0-1A  -> 190-1A   386.747158 3119326.5     3.2   -0.00163   0.00873   0.00144   0.06469
  0-1A  -> 191-1A   386.747163 3119326.6     3.2    0.00093  -0.11518  -0.00036  -0.00034
  0-1A  -> 192-1A   386.747165 3119326.6     3.2    0.00055  -0.00477   0.04975  -0.00139
  0-1A  -> 193-1A   386.747322 3119327.8     3.2    0.00241   0.00427  -0.00041   0.01069
  0-1A  -> 194-1A   386.747323 3119327.9     3.2   -0.00249  -0.01046   0.00135   0.00440
  0-1A  -> 195-1A   386.747330 3119327.9     3.2   -0.00644  -0.00048  -0.02572   0.00983
  0-1A  -> 196-1A   386.747331 3119327.9     3.2    0.00707   0.00035   0.00941   0.02688
  0-1A  -> 197-1A   386.747336 3119328.0     3.2   -0.00009   0.00025   0.00266  -0.00047
  0-1A  -> 198-1A   386.747338 3119328.0     3.2   -0.00043  -0.00272   0.00031   0.00145
  0-1A  -> 199-1A   388.167365 3130781.3     3.2   -0.00003  -0.00054   0.00000   0.00076
  0-1A  -> 200-1A   388.167376 3130781.4     3.2    0.00004   0.00030  -0.00021   0.00046

Total run time:      431.749 sec

           *** ORCA-CIS/TD-DFT FINISHED WITHOUT ERROR ***
-----------------------
CIS/TD-DFT TOTAL ENERGY
-----------------------

    E(SCF)  =  -1820.917307491 Eh
    DE(CIS) =     13.925563698 Eh (Root  1)
    ----------------------------- ---------
    E(tot)  =  -1806.991743793 Eh


Maximum memory used throughout the entire CIS-calculation: 1508.9 MB
=> NOW LEAVING ORCA_CIS

-------------------------   --------------------
FINAL SINGLE POINT ENERGY     -1806.991743793392
-------------------------   --------------------



           ************************************************************
           *        Program running with 4 parallel MPI-processes     *
           *              working on a common directory               *
           ************************************************************

------------------------------------------------------------------------------
                              ORCA PROPERTY CALCULATIONS
------------------------------------------------------------------------------

GBWName                                 ... fecn6_nkxas_bp86_tzvp.gbw
Number of atoms                         ...     13
Number of basis functions               ...    417
Max core memory                         ...   3000 MB

Electric properties:
Dipole moment                           ... YES
Quadrupole moment                       ...  NO
Static polarizability (Dipole/Dipole)   ...  NO
Static polarizability (Dipole/Quad.)    ...  NO
Static polarizability (Quad./Quad.)     ...  NO
Static polarizability (Velocity)        ...  NO
Static hyperpolarizability              ...  NO

Atomic electric properties:
Dipole moment                           ...  NO
Quadrupole moment                       ...  NO
Static polarizability                   ...  NO

Choice of electric origin               ... Center of mass
Position of electric origin             ...     0.000000     0.000000    -0.000000

General magnetic properties:
Magnetizability                         ...  NO

EPR properties:
g-Tensor (aka g-matrix)                 ...  NO
Zero-Field splitting spin-orbit         ...  NO
Zero-field splitting spin-spin          ...  NO
Hyperfine couplings                     ...  NO (   0 nuclei)
Quadrupole couplings                    ...  NO (   0 nuclei)
Contact density                         ...  NO (   0 nuclei)

NMR properties:
Chemical shifts                         ...  NO (   0 nuclei)
Spin-rotation constants                 ...  NO (   0 nuclei)
Spin-spin couplings                     ...  NO (   0 nuclei,    0 pairs)

Choice of magnetic origin               ... GIAO
Position of magnetic origin             ...     0.000000     0.000000     0.000000

Properties with geometric perturbations:
SCF Hessian                             ...  NO
IR spectrum                             ...  NO
VCD spectrum                            ...  NO
X-ray spectroscopy properties:
SCF XES/XAS/RIXS spectra                ...  NO

SCF SOC stabilization energy            ...  NO
Diagonal Born-Oppenheimer correction    ...  NO

-------------
DIPOLE MOMENT
-------------

Method             : SCF
Type of density    : Electron Density
Multiplicity       :   1
Irrep              :   0
Energy             : -1820.9173074914815516 Eh
Basis              : AO
                                X                 Y                 Z
Electronic contribution:      0.000008878       0.000004820      -0.000000012
Nuclear contribution   :     -0.000003845      -0.000002859      -0.000000116
                        -----------------------------------------
Total Dipole Moment    :      0.000005034       0.000001960      -0.000000128
                        -----------------------------------------
Magnitude (a.u.)       :      0.000005404
Magnitude (Debye)      :      0.000013735



--------------------
Rotational spectrum 
--------------------
 
Rotational constants in cm-1:             0.022408             0.022408             0.022408 
Rotational constants in MHz :           671.763178           671.762443           671.760492 

Dipole components along the rotational axes: 
x,y,z [a.u.] :     0.000002     0.000003     0.000004 
x,y,z [Debye]:     0.000004     0.000007     0.000011 

 

Dipole moment calculation done in   0.1 sec 

Maximum memory used throughout the entire PROP-calculation: 25.8 MB

--------------------------------
SUGGESTED CITATIONS FOR THIS RUN
--------------------------------

Below you find a list of papers that are relevant to this ORCA run
We neither can nor want to force you to cite these papers, but we appreciate if you do
You receive ORCA, which is the product of decades of hard work by many enthusiastic individuals, for free
The only thing we kindly ask in return is that you cite our papers,
We deeply appreciate it, if you show your appreciation for ORCA by not just citing the generic ORCA reference.

Please note that relegating all ORCA citations to the supporting information does *not* help us.
SI sections are not indexed - citations you put there will not count into any citation statistics
But we need these citations in order to attract the funding resources that allow us to do what we are doing

Therefore, if you are a happy ORCA user, please consider citing a few of the papers listed below in the main body of your paper

In addition to the list printed below, the program has created the file fecn6_nkxas_bp86_tzvp.bibtex that contains the list in bibtex format
You can import this file easily into all common literature databanks and citation aid programs

It goes without saying that in many instances, there are alternative algorithms to achieve similar
results as the ones you have gotten from ORCA. It is, of course, also the case that in some instances
ORCA just re-implements algorithms worked out by others. We are fully aware of that and we are also
fully appreciative of our colleagues work. Hence this citation list should not be read as indicating
that the listed papers, which are focused on our own work, are the only ones worth citing. It simply
meant to make it easier for users to cite ORCA specific papers. It is not a substitute for doing your
own literature research and citing the relevant literature in a scientifically appropriate manner.

List of essential papers. We consider these as the minimum necessary citations

  1. Neese, F.
     Software update: the ORCA program system, version 6.0
     WIRES Comput. Molec. Sci. 2025 15(1), e70019
     doi.org/10.1002/wcms.70019

List of papers to cite with high priority. The work reported in these papers was absolutely
necessary for this run to complete.
Our perspective: the developers of density functionals and basis sets usually get cited in chemistry papers
Good! But without the algorithms to do something with them, the functionals or basis sets would not do anything.
Hence, in our opinion, the algorithm design and method developments papers are equally worthy of getting cited

  1. Neese, F.; Olbrich, G.
     Efficient use of the resolution of the identity approximation in time-dependent density functional calculations with hybrid density functionals
     Chem. Phys. Lett. 2002 362 , 170-178
     doi.org/10.1016/s0009-2614(02)01053-9
  2. Neese, F.
     An improvement of the resolution of the identity approximation for the formation of the Coulomb matrix
     J. Comp. Chem. 2003 24(14), 1740-1747
     doi.org/10.1002/jcc.10318
  3. Neese, F.
     The SHARK Integral Generation and Digestion System
     J. Comp. Chem. 2022 44(3), 381
     doi.org/10.1002/jcc.26942

List of suggested additional citations. These are papers that are important in the 'surrounding' of 
of this run, or papers that preceded the highly important papers. If you like your results we are grateful for a citation.

  1. Neese, F.
     The ORCA program system
     WIRES Comput. Molec. Sci. 2012 2(1), 73-78
     doi.org/10.1002/wcms.81
  2. Neese, F.
     Software update: the ORCA program system, version 4.0
     WIRES Comput. Molec. Sci. 2018 8(1), 1-6
     doi.org/10.1002/wcms.1327
  3. Neese, F.; Wennmohs, F.; Becker, U.; Riplinger, C.
     The ORCA quantum chemistry program package
     J. Chem. Phys. 2020 152(22), 224108
     doi.org/10.1063/5.0004608
  4. Neese, F.
     Software update: The ORCA program system—Version 5.0
     WIRES Comput. Molec. Sci. 2022 12(1), e1606
     doi.org/10.1002/wcms.1606

List of optional additional citations

  1. Neese, F.
     Approximate second-order SCF convergence for spin unrestricted wavefunctions
     Chem. Phys. Lett. 2000 325(1-3), 93-98
     doi.org/10.1016/s0009-2614(00)00662-x

Timings for individual modules:

Sum of individual times          ...      463.773 sec (=   7.730 min)
Startup calculation              ...        2.862 sec (=   0.048 min)   0.6 %
SCF iterations                   ...       27.767 sec (=   0.463 min)   6.0 %
Property integrals               ...        0.472 sec (=   0.008 min)   0.1 %
Property calculations            ...        0.471 sec (=   0.008 min)   0.1 %
CIS module                       ...      432.200 sec (=   7.203 min)  93.2 %
                             ****ORCA TERMINATED NORMALLY****
TOTAL RUN TIME: 0 days 0 hours 7 minutes 44 seconds 296 msec
