
                                 *****************
                                 * O   R   C   A *
                                 *****************

                                            #,                                       
                                            ###                                      
                                            ####                                     
                                            #####                                    
                                            ######                                   
                                           ########,                                 
                                     ,,################,,,,,                         
                               ,,#################################,,                 
                          ,,##########################################,,             
                       ,#########################################, ''#####,          
                    ,#############################################,,   '####,        
                  ,##################################################,,,,####,       
                ,###########''''           ''''###############################       
              ,#####''   ,,,,##########,,,,          '''####'''          '####       
            ,##' ,,,,###########################,,,                        '##       
           ' ,,###''''                  '''############,,,                           
         ,,##''                                '''############,,,,        ,,,,,,###''
      ,#''                                            '''#######################'''  
     '                                                          ''''####''''         
             ,#######,   #######,   ,#######,      ##                                
            ,#'     '#,  ##    ##  ,#'     '#,    #''#        ,####,    ,#,          
            ##       ##  ##   ,#'  ##            #'  '#       #'       ,# #          
            ##       ##  #######   ##           ,######,      #####,      #          
            '#,     ,#'  ##    ##  '#,     ,#' ,#      #,     #,   #      #          
             '#######'   ##     ##  '#######'  #'      '#     '####' #    #          



                #########################################################
                #                        -***-                          #
                #          Department of theory and spectroscopy        #
                #                                                       #
                #                      Frank Neese                      #
                #                                                       #
                #     Directorship, Architecture, Infrastructure        #
                #                    SHARK, DRIVERS                     #
                #        Core code/Algorithms in most modules           #
                #                                                       #
                #        Max Planck Institute fuer Kohlenforschung      #
                #                Kaiser Wilhelm Platz 1                 #
                #                 D-45470 Muelheim/Ruhr                 #
                #                      Germany                          #
                #                                                       #
                #                  All rights reserved                  #
                #                        -***-                          #
                #########################################################


                         Program Version 6.1.1  -  RELEASE   -
                                (GIT: $487d211c$)
                          ($2025-11-21 10:33:24 +0100$)


 With contributions from (in alphabetic order):
[Max-Planck-Institut fuer Kohlenforschung]                               
  Daniel Aravena         : Magnetic Suceptibility                        
  Michael Atanasov       : Ab Initio Ligand Field Theory (pilot matlab implementation)
  Alexander A. Auer      : GIAO ZORA, VPT2 properties, NMR spectrum      
  Ute Becker             : All parallelization in ORCA, NUMFREQ, NUMCALC 
  Giovanni Bistoni       : ED, misc. LED, open-shell LED, HFLD           
  Dmytro Bykov           : pre 5.0 version of the SCF Hessian            
  Marcos Casanova-Páez   : Triplet and SCS-CIS(D). UHF-(DLPNO)-IP/EA/STEOM-CCSD. UHF-CVS-IP/STEOM-CCSD   
  Vijay G. Chilkuri      : MRCI spin determinant printing, contributions to CSF-ICE 
  Pauline Colinet        : FMM embedding                                 
  Dipayan Datta          : RHF DLPNO-CCSD density                        
  Achintya Kumar Dutta   : EOM-CC, STEOM-CC                              
  Nicolas Foglia         : Exact transition moments, OPA infrastructure, MCD improvements    
  Dmitry Ganyushin       : Spin-Orbit,Spin-Spin,Magnetic field MRCI      
  Miquel Garcia-Rates    : C-PCM and meta-GGA Hessian, CCSD/C-PCM, Gaussian charge scheme 
  Tiago L. C. Gouveia    : GS-ROHF, GS-ROCIS                             
  Yang Guo               : DLPNO-NEVPT2, F12-NEVPT2, CIM, IAO-localization        
  Andreas Hansen         : Spin unrestricted coupled pair/coupled cluster methods 
  Ingolf Harden          : AUTO-CI MPn and infrastructure                
  Benjamin Helmich-Paris : MC-RPA, TRAH-(SCF,CASSCF), AVAS, COSX integrals, SCF dyn. polar., MC-PDFT, srDFT 
  Lee Huntington         : MR-EOM, pCC                                   
  Robert Izsak           : Overlap fitted RIJCOSX, COSX-SCS-MP3, EOM     
  Riya Kayal             : Wick's Theorem for AUTO-CI, AUTO-CI UHF-CCSDT 
  Emily Kempfer          : AUTO-CI RHF CISDT and CCSDT, approximate NEVPT4
  Christian Kollmar      : KDIIS, OOCD, Brueckner-CCSD(T), CCSD density, CASPT2, CASPT2-K, improved NEVPT2 
  Axel Koslowski         : Symmetry handling                             
  Simone Kossmann        : meta-GGA functionals, TD-DFT gradient, OOMP2, (MP2 Hessian; deprecated post 5.0) 
  Lucas Lang             : DCDCAS, Hyperfine gauge corrections, ICE-SOC+SSC
  Marvin Lechner         : AUTO-CI (C++ implementation), FIC-MRCC        
  Spencer Leger          : CASSCF response                               
  Dagmar Lenk            : GEPOL surface, SMD, ORCA-2-JSON               
  Dimitrios Liakos       : Extrapolation schemes; Compound Job, Property file
  Dimitrios Manganas     : Further ROCIS development; embedding schemes. LFT, Crystal Embedding 
  Dimitrios Pantazis     : SARC Basis sets                               
  Anastasios Papadopoulos: AUTO-CI, single reference methods and gradients 
  Taras Petrenko         : pre 6.0 DFT Hessian and TD-DFT gradient,  ECA, NRVS 
  Petra Pikulova         : Analytic Raman intensities                    
  Peter Pinski           : DLPNO-MP2, DLPNO-MP2 Gradient                 
  Shashank Vittal Rao    : ES-AILFT, MagRelax                            
  Christoph Reimann      : Effective Core Potentials                     
  Marius Retegan         : Local ZFS, SOC                                
  Christoph Riplinger    : Optimizer, TS searches, QM/MM, DLPNO-CCSD(T), (RO)-DLPNO pert. Triples 
  Michael Roemelt        : Original ROCIS implementation, recursive CI coupling coefficients
  Masaaki Saitow         : Open-shell DLPNO-CCSD energy and density      
  Barbara Sandhoefer     : DKH picture change effects                    
  Yorick L. A. Schmerwitz: GMF and freeze-and-release deltaSCF, NEB S-IDPP initial path                    
  Kantharuban Sivalingam : CASSCF convergence/infrastructure, NEVPT2, NEVPT3, NEVPT4(SD), FIC-MRCI and CEPA variants
  Bernardo de Souza      : ESD, SOC TD-DFT                               
  Georgi L. Stoychev     : AutoAux, RI-MP2 NMR, DLPNO-MP2 response, X2C  
  Van Anh Tran           : RI-MP2 g-tensors                              
  Willem Van den Heuvel  : Paramagnetic NMR                              
  Zikuan Wang            : NOTCH, Electric field optimization            
  Frank Wennmohs         : Technical directorship and infrastructure     
  Hang Xu                : AUTO-CI-Response properties                   
                                                                         
[FACCTs GmbH]                                                            
  Markus Bursch, Nicolas Foglia, Miquel Garcia-Rates, Ingolf Harden, Hagen Neugebauer, Anastasios Papadopoulos, 
  Christoph Riplinger, Bernardo de Souza, Georgi L. Stoychev                                                    
                                                                 
  APM, various basis sets, CI-OPT, improved COSX, DLPNO-Multilevel,           
  DOCKER, DRACO, updates on ESD, Fragmentator, GOAT, IRC, LR-CPCM, L-BFGS, MBIS, meta-GGA TD-DFT gradient, ML-optimized integration grids, 
  MM, NACMEs, nearIR, NEB, NEB-TS, NL-DFT gradient (VV10), 2- and 3-layer-ONIOM, interface openCOSMO-RS, QMMM,   
  Crystal-QMMM, RESP, rigid body optimization, SF, symmetry and pop. for TD-DFT, various functionals, SOLVATOR                                   
                                                                         
[Other institutions]                                                     
  V. Asgeirsson          : NEB                                           
  Christoph Bannwarth    : sTDA-DFT, sTD-DFT, PBEh-3c, B97-3c, D3        
  Giovanni Bistoni       : ETS/NOCV, ADLD/ADEX, COVALED                  
  Martin Brehm           : Molecular dynamics                            
  Ronald Cardenas        : ETS/NOCV                                      
  Martina Colucci        : COVALED                                       
  Sebastian Ehlert       : rSCAN, r2SCAN, r2SCAN-3c, D4, dhf basis sets  
  Marvin Friede          : D4 for Fr, Ra, Ac-Lr                          
  Lars Goerigk           : TD-DFT with DH, B97 family of functionals     
  Stefan Grimme          : VdW corrections, initial TS optimization, DFT functionals, gCP, sTDA/sTD-DF 
  Waldemar Hujo          : DFT-NL                                        
  H. Jonsson             : NEB                                           
  Holger Kruse           : gCP                                           
  Marcel Mueller         : wB97X-3c, vDZP basis set                      
  Hagen Neugebauer       : wr2SCAN, Native XTB                           
  Gianluca Regni         : ADLD/ADEX                                     
  Tobias Risthaus        : pre 6.0 range-separated hybrid DFT and stability analysis
  Lukas Wittmann         : regularized MP2, r2SCAN double-hybrids, wr2SCAN        
                                                                         
We gratefully acknowledge several colleagues who have allowed us to      
interface, adapt or use parts of their codes:                            
  Ed Valeev, F. Pavosevic, A. Kumar             : LibInt (2-el integral package), F12 methods 
  Garnet Chan, S. Sharma, J. Yang, R. Olivares  : DMRG                   
  Ulf Ekstrom                                   : XCFun DFT Library      
  Mihaly Kallay                                 : mrcc  (arbitrary order and MRCC methods)
  Frank Weinhold                                : gennbo (NPA and NBO analysis)           
  Simon Mueller                                 : openCOSMO-RS                            
  Christopher J. Cramer and Donald G. Truhlar   : smd solvation model                     
  S Lehtola, MJT Oliveira, MAL Marques          : LibXC Library                           
  Liviu Ungur et al                             : ANISO software                          


 Your calculation uses the libint2 library for the computation of 2-el integrals
 For citations please refer to: http://libint.valeyev.net

 Your ORCA version has been built with support for libXC version: 7.0.0
 For citations please refer to: https://libxc.gitlab.io

 This ORCA versions uses:
   CBLAS   interface :  Fast vector & matrix operations
   LAPACKE interface :  Fast linear algebra routines
   SCALAPACK package :  Parallel linear algebra routines
   Shared memory     :  Shared parallel matrices
   BLAS/LAPACK       :  OpenBLAS 0.3.29  USE64BITINT DYNAMIC_ARCH NO_AFFINITY Haswell SINGLE_THREADED
        Core in use  :  Haswell
   Copyright (c) 2011-2014, The OpenBLAS Project


  ***********************************
  * Starting time: Sat Jun  6 00:13:39 2026
  * Host name:     steezy
  * Process ID:    1635826
  * Working dir.:  /home/jannes/hexacyanide/fecn6/05_basis_comparison/bp86
  ***********************************

NOTE: MaxCore=3000 MB was set to SCF,MP2,MDCI,CIPSI,MRCI,RASCI and CIS
      => If you want to overwrite this, your respective input block should be placed after the MaxCore statement


***************************************
The coordinates will be read from file: ../../01_opt/fecn6_opt_pbe0_tzvp.xyz
***************************************


================================================================================

----- Orbital basis set information -----
Your calculation utilizes the basis: def2-TZVP
   F. Weigend and R. Ahlrichs, Phys. Chem. Chem. Phys. 7, 3297 (2005).

The basis set includes element-specific modifications.

Your calculation utilizes the basis: aug-cc-pVTZ 
    H, B-Ne : Obtained from the ccRepo (grant-hill.group.shef.ac.uk/ccrepo) Feb. 2017
              R. A. Kendall, T. H. Dunning, Jr., R. J. Harrison, J. Chem. Phys. 96, 6796 (1992)
         He : Obtained from the ccRepo (grant-hill.group.shef.ac.uk/ccrepo) Feb. 2017
              D. E. Woon, T. H. Dunning, Jr., J. Chem. Phys. 100, 2975 (1994)
  Li-Be, Na : Obtained from the ccRepo (grant-hill.group.shef.ac.uk/ccrepo) Feb. 2017
              B. P. Prascher, D. E. Woon, K. A. Peterson, T. H. Dunning, Jr., A. K. Wilson, Theor. Chem. Acc. 128, 69 (2011)
         Mg : Obtained from the Peterson Research Group Website (tyr0.chem.wsu.edu/~kipeters) Feb. 2017
              B. P. Prascher, D. E. Woon, K. A. Peterson, T. H. Dunning, Jr., A. K. Wilson, Theor. Chem. Acc. 128, 69 (2011)
      Al-Ar : Obtained from the ccRepo (grant-hill.group.shef.ac.uk/ccrepo) Feb. 2017
              D. E. Woon, T. H. Dunning, Jr., J. Chem. Phys. 98, 1358 (1993)
      Sc-Zn : Obtained from the ccRepo (grant-hill.group.shef.ac.uk/ccrepo) Feb. 2017
              N. B. Balabanov, K. A. Peterson, J. Chem. Phys. 123, 064107 (2005)
              N. B. Balabanov, K. A. Peterson, J. Chem. Phys. 125, 074110 (2006)
      Ga-Kr : Obtained from the ccRepo (grant-hill.group.shef.ac.uk/ccrepo) Feb. 2017
              A. K. Wilson, D. E. Woon, K. A. Peterson, T. H. Dunning, Jr., J. Chem. Phys. 110, 7667 (1999)
     Ag, Au : Obtained from the Peterson Research Group Website (tyr0.chem.wsu.edu/~kipeters) Feb. 2017
              K. A. Peterson, C. Puzzarini, Theor. Chem. Acc. 114, 283 (2005)

----- AuxJ basis set information -----
Your calculation utilizes the AutoAux generation procedure.
  G. L. Stoychev, A. A. Auer, F. Neese, J. Chem. Theory Comput. 13, 554 (2017)

----- AuxC basis set information -----
Your calculation utilizes the AutoAux generation procedure.
  G. L. Stoychev, A. A. Auer, F. Neese, J. Chem. Theory Comput. 13, 554 (2017)

----- AuxJK basis set information -----
Your calculation utilizes the AutoAux generation procedure.
  G. L. Stoychev, A. A. Auer, F. Neese, J. Chem. Theory Comput. 13, 554 (2017)

----- AuxX basis set information -----
Your calculation utilizes the AutoAux generation procedure.
  G. L. Stoychev, A. A. Auer, F. Neese, J. Chem. Theory Comput. 13, 554 (2017)

================================================================================
                                        WARNINGS
                       Please study these warnings very carefully!
================================================================================



WARNING: Found flag for RIJCOSX approximation but no HF exchange needed!
  ===> : RIJCOSX  will be disabled and Split-RI-J is turned on

WARNING: CIS/ROCIS methods need fully converged wavefunctions
  ===> : Setting SCFConvForced true
         You can overwrite this default with %scf ConvForced false 


================================================================================
                                       INPUT FILE
================================================================================
NAME = nkxas.inp
|  1> %pal nprocs 4 end
|  2> %maxcore 3000
|  3> ! BP86 def2-TZVP AutoAux RIJCOSX DefGrid3
|  4> %basis
|  5>   NewGTO N "aug-cc-pVTZ" end
|  6> end
|  7> %tddft
|  8>   nroots 200
|  9>   OrbWin[0] = 5,10,-1,-1
| 10> end
| 11> * xyzfile -4 1 ../../01_opt/fecn6_opt_pbe0_tzvp.xyz
| 12> 
| 13>                          ****END OF INPUT****
================================================================================

                       ****************************
                       * Single Point Calculation *
                       ****************************

---------------------------------
CARTESIAN COORDINATES (ANGSTROEM)
---------------------------------
  Fe     0.000001    0.000001    0.000000
  C      1.992320   -0.000004   -0.000001
  C     -1.992317    0.000002    0.000002
  C     -0.000005    1.992321   -0.000001
  C     -0.000000   -1.992318    0.000002
  C      0.000002   -0.000002    1.992318
  C      0.000006    0.000002   -1.992319
  N      3.166046   -0.000007   -0.000004
  N     -3.166043    0.000004    0.000002
  N     -0.000013    3.166048   -0.000003
  N     -0.000001   -3.166044    0.000004
  N      0.000000   -0.000005    3.166045
  N      0.000005    0.000002   -3.166046

----------------------------
CARTESIAN COORDINATES (A.U.)
----------------------------
  NO LB      ZA    FRAG     MASS         X           Y           Z
   0 Fe   26.0000    0    55.850    0.000002    0.000002    0.000000
   1 C     6.0000    0    12.011    3.764938   -0.000007   -0.000002
   2 C     6.0000    0    12.011   -3.764934    0.000004    0.000003
   3 C     6.0000    0    12.011   -0.000009    3.764942   -0.000001
   4 C     6.0000    0    12.011   -0.000000   -3.764935    0.000004
   5 C     6.0000    0    12.011    0.000003   -0.000003    3.764935
   6 C     6.0000    0    12.011    0.000011    0.000003   -3.764937
   7 N     7.0000    0    14.007    5.982959   -0.000013   -0.000007
   8 N     7.0000    0    14.007   -5.982955    0.000007    0.000004
   9 N     7.0000    0    14.007   -0.000024    5.982963   -0.000005
  10 N     7.0000    0    14.007   -0.000002   -5.982957    0.000007
  11 N     7.0000    0    14.007    0.000001   -0.000009    5.982958
  12 N     7.0000    0    14.007    0.000009    0.000003   -5.982959

--------------------------------
INTERNAL COORDINATES (ANGSTROEM)
--------------------------------
 Fe     0   0   0     0.000000000000     0.00000000     0.00000000
 C      1   0   0     1.992318261767     0.00000000     0.00000000
 C      1   2   0     1.992318755222   179.99989449     0.00000000
 C      1   2   3     1.992320320540    90.00030639   176.08463907
 C      1   2   4     1.992318856103    89.99990346   180.00004421
 C      1   2   5     1.992318028941    90.00002332    89.99986381
 C      1   2   5     1.992318862032    89.99983068   269.99991913
 N      2   1   6     1.173726119520   179.99992353   182.76480919
 N      3   1   6     1.173726000184   179.99994479   117.62380217
 N      4   1   2     1.173726303437   179.99976173   159.22857827
 N      5   1   2     1.173726377493   179.99998099     0.00000000
 N      6   1   2     1.173726858407   179.99988695   222.45670598
 N      7   1   2     1.173726693986   179.99981964   172.72429205

---------------------------
INTERNAL COORDINATES (A.U.)
---------------------------
 Fe     0   0   0     0.000000000000     0.00000000     0.00000000
 C      1   0   0     3.764935886350     0.00000000     0.00000000
 C      1   2   0     3.764936818845   179.99989449     0.00000000
 C      1   2   3     3.764939776868    90.00030639   176.08463907
 C      1   2   4     3.764937009481    89.99990346   180.00004421
 C      1   2   5     3.764935446371    90.00002332    89.99986381
 C      1   2   5     3.764937020686    89.99983068   269.99991913
 N      2   1   6     2.218020922124   179.99992353   182.76480919
 N      3   1   6     2.218020696611   179.99994479   117.62380217
 N      4   1   2     2.218021269676   179.99976173   159.22857827
 N      5   1   2     2.218021409621   179.99998099     0.00000000
 N      6   1   2     2.218022318417   179.99988695   222.45670598
 N      7   1   2     2.218022007706   179.99981964   172.72429205

---------------------
BASIS SET INFORMATION
---------------------
There are 3 groups of distinct atoms

 Group   1 Type Fe  : 17s11p7d1f contracted to 6s4p4d1f pattern {842111/6311/4111/1}
 Group   2 Type C   : 11s6p2d1f contracted to 5s3p2d1f pattern {62111/411/11/1}
 Group   3 Type N   : 19s6p3d2f contracted to 5s4p3d2f pattern {88111/3111/111/11}

Atom   0Fe   basis set group =>   1
Atom   1C    basis set group =>   2
Atom   2C    basis set group =>   2
Atom   3C    basis set group =>   2
Atom   4C    basis set group =>   2
Atom   5C    basis set group =>   2
Atom   6C    basis set group =>   2
Atom   7N    basis set group =>   3
Atom   8N    basis set group =>   3
Atom   9N    basis set group =>   3
Atom  10N    basis set group =>   3
Atom  11N    basis set group =>   3
Atom  12N    basis set group =>   3
---------------------------------
AUXILIARY/J BASIS SET INFORMATION
---------------------------------
There are 3 groups of distinct atoms

 Group   1 Type Fe  : 21s17p16d16f12g3h contracted to 21s17p16d16f12g3h pattern {111111111111111111111/11111111111111111/1111111111111111/1111111111111111/111111111111/111}
 Group   2 Type C   : 16s13p12d7f3g contracted to 16s13p12d7f3g pattern {1111111111111111/1111111111111/111111111111/1111111/111}
 Group   3 Type N   : 16s13p12d7f5g contracted to 16s13p12d7f5g pattern {1111111111111111/1111111111111/111111111111/1111111/11111}

Atom   0Fe   basis set group =>   1
Atom   1C    basis set group =>   2
Atom   2C    basis set group =>   2
Atom   3C    basis set group =>   2
Atom   4C    basis set group =>   2
Atom   5C    basis set group =>   2
Atom   6C    basis set group =>   2
Atom   7N    basis set group =>   3
Atom   8N    basis set group =>   3
Atom   9N    basis set group =>   3
Atom  10N    basis set group =>   3
Atom  11N    basis set group =>   3
Atom  12N    basis set group =>   3
---------------------------------
AUXILIARY/C BASIS SET INFORMATION
---------------------------------
There are 3 groups of distinct atoms

 Group   1 Type Fe  : 21s17p16d16f12g3h contracted to 21s17p16d16f12g3h pattern {111111111111111111111/11111111111111111/1111111111111111/1111111111111111/111111111111/111}
 Group   2 Type C   : 16s13p12d7f3g contracted to 16s13p12d7f3g pattern {1111111111111111/1111111111111/111111111111/1111111/111}
 Group   3 Type N   : 16s13p12d7f5g contracted to 16s13p12d7f5g pattern {1111111111111111/1111111111111/111111111111/1111111/11111}

Atom   0Fe   basis set group =>   1
Atom   1C    basis set group =>   2
Atom   2C    basis set group =>   2
Atom   3C    basis set group =>   2
Atom   4C    basis set group =>   2
Atom   5C    basis set group =>   2
Atom   6C    basis set group =>   2
Atom   7N    basis set group =>   3
Atom   8N    basis set group =>   3
Atom   9N    basis set group =>   3
Atom  10N    basis set group =>   3
Atom  11N    basis set group =>   3
Atom  12N    basis set group =>   3
----------------------------------
AUXILIARY/JK BASIS SET INFORMATION
----------------------------------
There are 3 groups of distinct atoms

 Group   1 Type Fe  : 21s17p16d16f12g3h contracted to 21s17p16d16f12g3h pattern {111111111111111111111/11111111111111111/1111111111111111/1111111111111111/111111111111/111}
 Group   2 Type C   : 16s13p12d7f3g contracted to 16s13p12d7f3g pattern {1111111111111111/1111111111111/111111111111/1111111/111}
 Group   3 Type N   : 16s13p12d7f5g contracted to 16s13p12d7f5g pattern {1111111111111111/1111111111111/111111111111/1111111/11111}

Atom   0Fe   basis set group =>   1
Atom   1C    basis set group =>   2
Atom   2C    basis set group =>   2
Atom   3C    basis set group =>   2
Atom   4C    basis set group =>   2
Atom   5C    basis set group =>   2
Atom   6C    basis set group =>   2
Atom   7N    basis set group =>   3
Atom   8N    basis set group =>   3
Atom   9N    basis set group =>   3
Atom  10N    basis set group =>   3
Atom  11N    basis set group =>   3
Atom  12N    basis set group =>   3
---------------------------------
AUXILIARY/X BASIS SET INFORMATION
---------------------------------
There are 3 groups of distinct atoms

 Group   1 Type Fe  : 21s17p16d16f12g3h contracted to 21s17p16d16f12g3h pattern {111111111111111111111/11111111111111111/1111111111111111/1111111111111111/111111111111/111}
 Group   2 Type C   : 16s13p12d7f3g contracted to 16s13p12d7f3g pattern {1111111111111111/1111111111111/111111111111/1111111/111}
 Group   3 Type N   : 16s13p12d7f5g contracted to 16s13p12d7f5g pattern {1111111111111111/1111111111111/111111111111/1111111/11111}

Atom   0Fe   basis set group =>   1
Atom   1C    basis set group =>   2
Atom   2C    basis set group =>   2
Atom   3C    basis set group =>   2
Atom   4C    basis set group =>   2
Atom   5C    basis set group =>   2
Atom   6C    basis set group =>   2
Atom   7N    basis set group =>   3
Atom   8N    basis set group =>   3
Atom   9N    basis set group =>   3
Atom  10N    basis set group =>   3
Atom  11N    basis set group =>   3
Atom  12N    basis set group =>   3


           ************************************************************
           *        Program running with 4 parallel MPI-processes     *
           *              working on a common directory               *
           ************************************************************
------------------------------------------------------------------------------
                             ORCA STARTUP CALCULATIONS
                           -- RI-GTO INTEGRALS CHOSEN --
------------------------------------------------------------------------------
------------------------------------------------------------------------------
                   ___                                                        
                  /   \      - P O W E R E D   B Y -                         
                 /     \                                                     
                 |  |  |   _    _      __       _____    __    __             
                 |  |  |  | |  | |    /  \     |  _  \  |  |  /  |          
                  \  \/   | |  | |   /    \    | | | |  |  | /  /          
                 / \  \   | |__| |  /  /\  \   | |_| |  |  |/  /          
                |  |  |   |  __  | /  /__\  \  |    /   |      \           
                |  |  |   | |  | | |   __   |  |    \   |  |\   \          
                \     /   | |  | | |  |  |  |  | |\  \  |  | \   \       
                 \___/    |_|  |_| |__|  |__|  |_| \__\ |__|  \__/        
                                                                              
                      - O R C A' S   B I G   F R I E N D -                    
                                      &                                       
                       - I N T E G R A L  F E E D E R -                       
                                                                              
 v1 FN, 2020, v2 2021, v3 2022-2024                                           
------------------------------------------------------------------------------


----------------------
SHARK INTEGRAL PACKAGE
----------------------

Number of atoms                             ...     13
Number of basis functions                   ...    543
Number of shells                            ...    201
Maximum angular momentum                    ...      3
Integral batch strategy                     ... SHARK/LIBINT Hybrid
RI-J (if used) integral strategy            ... SPLIT-RIJ (Revised 2003 algorithm where possible)
Printlevel                                  ...      1
Contraction scheme used                     ... PARTIAL GENERAL contraction
Prescreening option                         ... SCHWARTZ
   Thresh                                   ... 1.000e-10
   Tcut                                     ... 1.000e-11
   Tpresel                                  ... 1.000e-11 
Coulomb Range Separation                    ... NOT USED
Exchange Range Separation                   ... NOT USED
Multipole approximations                    ... NOT USED
Finite Nucleus Model                        ... NOT USED
CABS basis                                  ... NOT available
Auxiliary Coulomb fitting basis             ... AVAILABLE
   # of basis functions in Aux-J            ...   2805
   # of shells in Aux-J                     ...    709
   Maximum angular momentum in Aux-J        ...      5
Auxiliary J/K fitting basis                 ... AVAILABLE
   # of basis functions in Aux-JK           ...   2805
   # of shells in Aux-JK                    ...    709
   Maximum angular momentum in Aux-JK       ...      5
Auxiliary Correlation fitting basis         ... AVAILABLE
   # of basis functions in Aux-C            ...   2805
   # of shells in Aux-C                     ...    709
   Maximum angular momentum in Aux-C        ...      5
Auxiliary 'external' fitting basis          ... NOT available

Checking pre-screening integrals            ... done (  0.0 sec) Dimension = 201
Save PGC pre-screening integrals            ... done (  0.0 sec) Dimension = 201
Calculate PGC overlap integrals             ... done (  0.1 sec) Dimension = 165
Calculating pre-screening integrals (ORCA)  ... done (  0.3 sec) Dimension = 165
Shell pair information
Shell pair cut-off parameter TPreSel        ...   1.0e-11
Total number of shell pairs                 ...     20301
Shell pairs after pre-screening             ...     14941
Total number of primitive shell pairs       ...     41825
Primitive shell pairs kept                  ...     25527
          la=0 lb=0:   2952 shell pairs
          la=1 lb=0:   3666 shell pairs
          la=1 lb=1:   1009 shell pairs
          la=2 lb=0:   2478 shell pairs
          la=2 lb=1:   1462 shell pairs
          la=2 lb=2:    535 shell pairs
          la=3 lb=0:   1270 shell pairs
          la=3 lb=1:    814 shell pairs
          la=3 lb=2:    592 shell pairs
          la=3 lb=3:    163 shell pairs

Checking whether 4 symmetric matrices of dimension 543 fit in memory
:Max Core in MB      =   3000.00
 MB in use           =     27.05
 MB left             =   2972.95
 MB needed           =      4.51
 Data fit in memory  = YES
Calculating RI/J V-Matrix + Cholesky decomp.... done (  1.0 sec)
Calculating RI/JK V-Matrix + Cholesky decomp.... done (  1.0 sec)
Calculating RI/C V-Matrix + Cholesky decomp.... done (  1.0 sec)
Calculating Nuclear repulsion               ... done (  0.0 sec) ENN=    890.446512275459 Eh

Diagonalization of the overlap matrix:
Smallest eigenvalue                        ... 8.339e-06
Time for diagonalization                   ...    0.113 sec
Threshold for overlap eigenvalues          ... 1.000e-07
Number of eigenvalues below threshold      ... 0
Time for construction of square roots      ...    0.044 sec
Total time needed                          ...    0.165 sec

-------------------
DFT GRID GENERATION
-------------------

General Integration Accuracy     IntAcc      ... 4.959
Radial Grid Type                 RadialGrid  ... OptM3 with GC (2021)
Angular Grid (max. ang.)         AngularGrid ... 6 (Lebedev-590)
Angular grid pruning method      GridPruning ... 4 (adaptive)
Weight generation scheme         WeightScheme... mBecke (2022)
Basis function cutoff            BFCut       ... 1.0000e-10
Integration weight cutoff        WCut        ... 1.0000e-14
Partially contracted basis set               ... off
Rotationally invariant grid construction     ... off
Angular grids for H and He will be reduced by one unit
Diffuse basis detected: some atoms will have their outermost
                        angular grid increased by 1.
Core-polarized basis detected: some atoms will have their core
                               angular grid increased.

Total number of grid points                  ...   203300
Total number of batches                      ...     3183
Average number of points per batch           ...       63
Average number of grid points per atom       ...    15638

---------------------
SHARK GRID GENERATION
---------------------

General Integration Accuracy     IntAcc      ... 4.959
Radial Grid Type                 RadialGrid  ... OptM3 with GC (2021)
Angular Grid (max. ang.)         AngularGrid ... 6 (Lebedev-590)
Angular grid pruning method      GridPruning ... 4 (adaptive)
Weight generation scheme         WeightScheme... mBecke (2022)
Basis function cutoff            BFCut       ... 1.0000e-10
Integration weight cutoff        WCut        ... 1.0000e-14
Partially contracted basis set               ... off
Rotationally invariant grid construction     ... off
Angular grids for H and He will be reduced by one unit
Diffuse basis detected: some atoms will have their outermost
                        angular grid increased by 1.
Core-polarized basis detected: some atoms will have their core
                               angular grid increased.
Steep s-basis detected: some atoms will have their radial
                        grid points doubled.

Total number of grid points                  ...   292970
Total number of batches                      ...     4584
Average number of points per batch           ...       63
Average number of grid points per atom       ...    22536
Grids setup in  21.5 sec
Initializing property integral containers    ... done (  0.0 sec)

SHARK setup successfully completed in  26.0 seconds

Maximum memory used throughout the entire STARTUP-calculation: 93.8 MB


           ************************************************************
           *        Program running with 4 parallel MPI-processes     *
           *              working on a common directory               *
           ************************************************************
-------------------------------------------------------------------------------
                                 ORCA GUESS
                   Start orbitals & Density for SCF / CASSCF
-------------------------------------------------------------------------------

------------
SCF SETTINGS
------------
Hamiltonian:
 Density Functional     Method          .... DFT(GTOs)
 Exchange Functional    Exchange        .... B88
   X-Alpha parameter    XAlpha          ....  0.666667
   Becke's b parameter  XBeta           ....  0.004200
 Correlation Functional Correlation     .... P86
 LDA part of GGA corr.  LDAOpt          .... PW91-LDA
 Gradients option       PostSCFGGA      .... off
   NL short-range parameter             ....  4.400000
 RI-approximation to the Coulomb term is turned on
   Number of AuxJ basis functions       .... 2805


General Settings:
 Integral files         IntName         .... nkxas
 Hartree-Fock type      HFTyp           .... RHF
 Total Charge           Charge          ....   -4
 Multiplicity           Mult            ....    1
 Number of Electrons    NEL             ....  108
 Basis Dimension        Dim             ....  507
 Nuclear Repulsion      ENuc            ....    890.4465122755 Eh

Convergence Acceleration:
 AO-DIIS                CNVDIIS         .... on
   Start iteration      DIISMaxIt       ....    12
   Startup error        DIISStart       ....  0.200000
   # of expansion vecs  DIISMaxEq       ....     5
   Bias factor          DIISBfac        ....   1.050
   Max. coefficient     DIISMaxC        ....  10.000
 MO-DIIS                CNVKDIIS        .... off
 Trust-Rad. Augm. Hess. CNVTRAH         .... auto
   Auto Start mean grad. ratio tolernc. ....  1.125000
   Auto Start start iteration           ....    50
   Auto Start num. interpolation iter.  ....    10
   Max. Number of Micro iterations      ....    24
   Max. Number of Macro iterations      .... Maxiter - #DIIS iter
   Number of Davidson start vectors     ....     2
   Converg. threshold    (grad. norm)   ....   5.000e-05
   Grad. Scal. Fac. for Micro threshold ....   0.100
   Minimum threshold for Micro iter.    ....   1.000e-02
   NR start threshold (gradient norm)   ....   1.000e-04
   Initial trust radius                 ....   0.400
   Minimum AH scaling param. (alpha)    ....   1.000
   Maximum AH scaling param. (alpha)    .... 1000.000
   Quad. conv. algorithm                .... NR
   White noise on init. David. guess    .... on
   Maximum white noise                  ....   0.010
   Pseudo random numbers                .... off
   Inactive MOs                         .... canonical
   Orbital update algorithm             .... Taylor
   Preconditioner                       .... Diag
   Full preconditioner red. dimension   ....   250
 SOSCF                 CNVSOSCF           .... on
   Start iteration     SOSCFMaxIt         ....   150
   Startup grad/error  SOSCFStart         ....  0.003300
   Hessian update      SOSCFHessUp        .... L-BFGS
   Autom. constraints  SOSCFAutoConstrain .... off
 Level Shifting         CNVShift        .... on
   Level shift para.    LevelShift      ....    0.2500
   Turn off err/grad.   ShiftErr        ....    0.0010
 Zerner damping         CNVZerner       .... off
 Static damping         CNVDamp         .... on
   Fraction old density DampFac         ....    0.7000
   Max. Damping (<1)    DampMax         ....    0.9800
   Min. Damping (>=0)   DampMin         ....    0.0000
   Turn off err/grad.   DampErr         ....    0.1000

SCF Procedure:
 Maximum # iterations   MaxIter         ....   125
 SCF integral mode      SCFMode         .... Direct
   Integral package                     .... SHARK and LIBINT hybrid scheme
 Reset frequency        DirectResetFreq ....    20
 Integral Threshold     Thresh          ....  1.000e-10 Eh
 Primitive CutOff       TCut            ....  1.000e-11 Eh

Convergence Tolerance:
 Convergence Check Mode ConvCheckMode   .... Total+1el-Energy
 Convergence forced     ConvForced      .... 1
 Energy Change          TolE            ....  1.000e-06 Eh
 1-El. energy change                    ....  1.000e-03 Eh
 Orbital Gradient       TolG            ....  5.000e-05
 Orbital Rotation angle TolX            ....  5.000e-05
 DIIS Error             TolErr          ....  1.000e-06

------------------------------
INITIAL GUESS: MODEL POTENTIAL
------------------------------
Loading Hartree-Fock densities                     ... done
Calculating cut-offs                               ... done
Initializing the effective Hamiltonian             ... done
Setting up the integral package (SHARK)            ... done
Starting the Coulomb interaction                   ... done (   0.5 sec)
Making the grid                                    ... done (   0.3 sec)
Mapping shells                                     ... done
Starting the XC term evaluation                    ... done (   0.4 sec)
  promolecular density results
     # of electrons  =    104.003826316
     EX              =   -124.131991305
     EC              =     -4.100571006
     EX+EC           =   -128.232562310
Transforming the Hamiltonian                       ... done (   0.0 sec)
Diagonalizing the Hamiltonian                      ... done (   0.1 sec)
Back transforming the eigenvectors                 ... done (   0.0 sec)
Now organizing SCF variables                       ... done
                      ------------------
                      INITIAL GUESS DONE (   1.3 sec)
                      ------------------
             **** ENERGY FILE WAS UPDATED (nkxas.en.tmp) ****
Finished Guess after   1.6 sec
Maximum memory used throughout the entire GUESS-calculation: 41.9 MB


           ************************************************************
           *        Program running with 4 parallel MPI-processes     *
           *              working on a common directory               *
           ************************************************************

-------------------------------------------------------------------------------------------
                                      ORCA LEAN-SCF
                              memory conserving SCF solver
-------------------------------------------------------------------------------------------

----------------------------------------D-I-I-S--------------------------------------------
Iteration    Energy (Eh)           Delta-E    RMSDP     MaxDP     DIISErr   Damp  Time(sec)
-------------------------------------------------------------------------------------------
               ***  Starting incremental Fock matrix formation  ***
    1    -1820.3242387581021831     0.00e+00  3.89e-03  5.72e-02  2.29e-01  0.700   5.4
Warning: op=0 Small HOMO/LUMO gap (  -0.156) - skipping pre-diagonalization
         LevelShift set to 0.256 Eh
         Will do a full diagonalization
    2    -1820.5939026197916064    -2.70e-01  1.12e-02  4.23e-01  9.05e-02  0.700   5.3
                               ***Turning on AO-DIIS***
    3    -1820.6758266743104286    -8.19e-02  6.21e-03  2.90e-01  1.92e-01  0.700   5.1
    4    -1820.7241675151899472    -4.83e-02  1.91e-03  1.02e-01  1.94e-01  0.700   4.9
    5    -1820.7878637598200839    -6.37e-02  1.38e-03  4.90e-02  1.38e-01  0.700   4.9
    6    -1820.8386723825969966    -5.08e-02  2.27e-03  8.53e-02  8.46e-02  0.700   4.6
    7    -1820.8718727481491442    -3.32e-02  8.03e-03  3.29e-01  4.54e-02  0.000   5.0
    8    -1820.9290023146672866    -5.71e-02  2.21e-03  7.29e-02  6.95e-02  0.000   4.9
    9    -1820.9324919323080394    -3.49e-03  1.01e-03  3.15e-02  3.64e-02  0.000   4.5
   10    -1820.9337383754614166    -1.25e-03  6.41e-04  1.95e-02  2.86e-02  0.000   4.4
   11    -1820.9344832772126210    -7.45e-04  1.91e-04  4.58e-03  1.59e-02  0.000   4.4
   12    -1820.9347576856102933    -2.74e-04  3.04e-04  1.09e-02  1.08e-02  0.000   4.3
                              *** Initializing SOSCF ***
---------------------------------------S-O-S-C-F--------------------------------------
Iteration    Energy (Eh)           Delta-E    RMSDP     MaxDP     MaxGrad    Time(sec)
--------------------------------------------------------------------------------------
   13    -1820.9349045405465404    -1.47e-04  1.07e-04  3.92e-03  1.69e-03     5.5
               *** Restarting incremental Fock matrix formation ***
   14    -1820.9349154377032391    -1.09e-05  8.32e-04  3.00e-02  3.59e-04    11.0
   15    -1820.9348502903335429     6.51e-05  2.03e-04  7.16e-03  3.12e-03     8.3
   16    -1820.9349117142955947    -6.14e-05  5.42e-04  2.01e-02  4.96e-04     7.3
   17    -1820.9348428594125835     6.89e-05  4.56e-04  1.63e-02  1.82e-03     7.8
   18    -1820.9349179032665234    -7.50e-05  2.57e-05  9.28e-04  2.55e-05     8.0
   19    -1820.9349176843825262     2.19e-07  7.99e-05  2.77e-03  3.16e-05     7.5
                 **** Energy Check signals convergence ****

               *****************************************************
               *                     SUCCESS                       *
               *           SCF CONVERGED AFTER  19 CYCLES          *
               *****************************************************

             **** ENERGY FILE WAS UPDATED (nkxas.en.tmp) ****

----------------
TOTAL SCF ENERGY
----------------

Total Energy       :      -1820.93491799860703 Eh          -49550.15820 eV

Components:
Nuclear Repulsion  :        890.44651227545910 Eh           24230.28144 eV
Electronic Energy  :      -2711.38143027406568 Eh          -73780.43964 eV
One Electron Energy:      -4334.93562576492150 Eh         -117959.59533 eV
Two Electron Energy:       1623.55419549085559 Eh           44179.15568 eV

Virial components:
Potential Energy   :      -3636.75058011873534 Eh          -98961.01437 eV
Kinetic Energy     :       1815.81566212012854 Eh           49410.85617 eV
Virial Ratio       :          2.00281925967777

DFT components:
N(Alpha)           :       54.000538293293 electrons
N(Beta)            :       54.000538293293 electrons
N(Total)           :      108.001076586586 electrons
E(X)               :     -125.895148499133 Eh       
E(C)               :       -4.275869825769 Eh       
E(XC)              :     -130.171018324902 Eh       

---------------
SCF CONVERGENCE
---------------

  Last Energy change         ...   -2.1888e-07  Tolerance :   1.0000e-06
  Last MAX-Density change    ...    2.7705e-03  Tolerance :   1.0000e-05
  Last RMS-Density change    ...    7.9861e-05  Tolerance :   1.0000e-06
  Last DIIS Error            ...    1.6932e-03  Tolerance :   1.0000e-06
  Last Orbital Gradient      ...    3.1613e-05  Tolerance :   5.0000e-05
  Last Orbital Rotation      ...    3.7422e-05  Tolerance :   5.0000e-05


----------------
ORBITAL ENERGIES
----------------

  NO   OCC          E(Eh)            E(eV) 
   0   2.0000    -254.259387     -6918.7497 
   1   2.0000     -29.007816      -789.3428 
   2   2.0000     -24.948158      -678.8739 
   3   2.0000     -24.948158      -678.8739 
   4   2.0000     -24.948158      -678.8739 
   5   2.0000     -13.441176      -365.7530 
   6   2.0000     -13.441176      -365.7530 
   7   2.0000     -13.441174      -365.7529 
   8   2.0000     -13.441173      -365.7529 
   9   2.0000     -13.441173      -365.7529 
  10   2.0000     -13.441172      -365.7529 
  11   2.0000      -9.373533      -255.0668 
  12   2.0000      -9.373529      -255.0667 
  13   2.0000      -9.373529      -255.0667 
  14   2.0000      -9.373502      -255.0660 
  15   2.0000      -9.373502      -255.0660 
  16   2.0000      -9.373502      -255.0660 
  17   2.0000      -2.709166       -73.7202 
  18   2.0000      -1.523532       -41.4574 
  19   2.0000      -1.523532       -41.4574 
  20   2.0000      -1.523532       -41.4574 
  21   2.0000      -0.267426        -7.2770 
  22   2.0000      -0.264692        -7.2026 
  23   2.0000      -0.264692        -7.2026 
  24   2.0000      -0.264692        -7.2026 
  25   2.0000      -0.263654        -7.1744 
  26   2.0000      -0.263654        -7.1744 
  27   2.0000       0.086337         2.3493 
  28   2.0000       0.153293         4.1713 
  29   2.0000       0.153293         4.1713 
  30   2.0000       0.153294         4.1713 
  31   2.0000       0.160042         4.3550 
  32   2.0000       0.160042         4.3550 
  33   2.0000       0.215006         5.8506 
  34   2.0000       0.218874         5.9559 
  35   2.0000       0.218874         5.9559 
  36   2.0000       0.218874         5.9559 
  37   2.0000       0.224284         6.1031 
  38   2.0000       0.224284         6.1031 
  39   2.0000       0.224284         6.1031 
  40   2.0000       0.236232         6.4282 
  41   2.0000       0.236232         6.4282 
  42   2.0000       0.245078         6.6689 
  43   2.0000       0.245078         6.6689 
  44   2.0000       0.245078         6.6689 
  45   2.0000       0.254824         6.9341 
  46   2.0000       0.254824         6.9341 
  47   2.0000       0.254824         6.9341 
  48   2.0000       0.273428         7.4404 
  49   2.0000       0.273428         7.4404 
  50   2.0000       0.273429         7.4404 
  51   2.0000       0.360286         9.8039 
  52   2.0000       0.360286         9.8039 
  53   2.0000       0.360287         9.8039 
  54   0.0000       0.403311        10.9747 
  55   0.0000       0.425118        11.5680 
  56   0.0000       0.425157        11.5691 
  57   0.0000       0.427125        11.6227 
  58   0.0000       0.427126        11.6227 
  59   0.0000       0.427132        11.6229 
  60   0.0000       0.479502        13.0479 
  61   0.0000       0.479505        13.0480 
  62   0.0000       0.479506        13.0480 
  63   0.0000       0.492577        13.4037 
  64   0.0000       0.492579        13.4038 
*Only the first 10 virtual orbitals were printed.

                    ********************************
                    * MULLIKEN POPULATION ANALYSIS *
                    ********************************

-----------------------
MULLIKEN ATOMIC CHARGES
-----------------------
   0 Fe:   -0.621518
   1 C :    0.312099
   2 C :    0.311844
   3 C :    0.312378
   4 C :    0.312649
   5 C :    0.312947
   6 C :    0.312543
   7 N :   -0.875517
   8 N :   -0.875526
   9 N :   -0.875442
  10 N :   -0.875533
  11 N :   -0.875464
  12 N :   -0.875460
Sum of atomic charges:   -4.0000000

--------------------------------
MULLIKEN REDUCED ORBITAL CHARGES
--------------------------------
  0 Fes       :     7.190411  s :     7.190411
      pz      :     4.259171  p :    12.777517
      px      :     4.259175
      py      :     4.259171
      dz2     :     0.717466  d :     6.652478
      dxz     :     1.739247
      dyz     :     1.739249
      dx2y2   :     0.717269
      dxy     :     1.739248
      f0      :     0.000324  f :     0.001112
      f+1     :     0.000151
      f-1     :     0.000151
      f+2     :     0.000047
      f-2     :     0.000000
      f+3     :     0.000220
      f-3     :     0.000220

  1 C s       :     3.308981  s :     3.308981
      pz      :     0.734314  p :     2.302614
      px      :     0.833984
      py      :     0.734316
      dz2     :     0.003385  d :     0.066455
      dxz     :     0.028197
      dyz     :     0.000951
      dx2y2   :     0.005725
      dxy     :     0.028197
      f0      :     0.001479  f :     0.009851
      f+1     :     0.000736
      f-1     :     0.000255
      f+2     :     0.002461
      f-2     :     0.000060
      f+3     :     0.001175
      f-3     :     0.003686

  2 C s       :     3.309302  s :     3.309302
      pz      :     0.734313  p :     2.302549
      px      :     0.833923
      py      :     0.734313
      dz2     :     0.003386  d :     0.066454
      dxz     :     0.028196
      dyz     :     0.000951
      dx2y2   :     0.005726
      dxy     :     0.028196
      f0      :     0.001479  f :     0.009851
      f+1     :     0.000736
      f-1     :     0.000255
      f+2     :     0.002461
      f-2     :     0.000060
      f+3     :     0.001175
      f-3     :     0.003686

  3 C s       :     3.308874  s :     3.308874
      pz      :     0.734314  p :     2.302441
      px      :     0.734317
      py      :     0.833810
      dz2     :     0.003386  d :     0.066456
      dxz     :     0.000951
      dyz     :     0.028196
      dx2y2   :     0.005726
      dxy     :     0.028196
      f0      :     0.001479  f :     0.009851
      f+1     :     0.000255
      f-1     :     0.000736
      f+2     :     0.002461
      f-2     :     0.000060
      f+3     :     0.003686
      f-3     :     0.001175

  4 C s       :     3.308738  s :     3.308738
      pz      :     0.734315  p :     2.302305
      px      :     0.734319
      py      :     0.833672
      dz2     :     0.003386  d :     0.066457
      dxz     :     0.000951
      dyz     :     0.028197
      dx2y2   :     0.005726
      dxy     :     0.028197
      f0      :     0.001479  f :     0.009851
      f+1     :     0.000255
      f-1     :     0.000736
      f+2     :     0.002461
      f-2     :     0.000060
      f+3     :     0.003686
      f-3     :     0.001175

  5 C s       :     3.308475  s :     3.308475
      pz      :     0.833639  p :     2.302270
      px      :     0.734317
      py      :     0.734315
      dz2     :     0.006897  d :     0.066457
      dxz     :     0.028197
      dyz     :     0.028197
      dx2y2   :     0.002216
      dxy     :     0.000951
      f0      :     0.001832  f :     0.009851
      f+1     :     0.003931
      f-1     :     0.003931
      f+2     :     0.000079
      f-2     :     0.000060
      f+3     :     0.000009
      f-3     :     0.000009

  6 C s       :     3.308793  s :     3.308793
      pz      :     0.833724  p :     2.302357
      px      :     0.734318
      py      :     0.734315
      dz2     :     0.006895  d :     0.066456
      dxz     :     0.028197
      dyz     :     0.028197
      dx2y2   :     0.002216
      dxy     :     0.000951
      f0      :     0.001832  f :     0.009851
      f+1     :     0.003931
      f-1     :     0.003931
      f+2     :     0.000079
      f-2     :     0.000060
      f+3     :     0.000009
      f-3     :     0.000009

  7 N s       :     3.867835  s :     3.867835
      pz      :     1.303206  p :     3.952084
      px      :     1.345673
      py      :     1.303205
      dz2     :     0.006308  d :     0.052595
      dxz     :     0.013792
      dyz     :     0.000067
      dx2y2   :     0.018636
      dxy     :     0.013792
      f0      :     0.000451  f :     0.003003
      f+1     :     0.000243
      f-1     :     0.000069
      f+2     :     0.000719
      f-2     :    -0.000005
      f+3     :     0.000424
      f-3     :     0.001101

  8 N s       :     3.867794  s :     3.867794
      pz      :     1.303211  p :     3.952142
      px      :     1.345720
      py      :     1.303210
      dz2     :     0.006307  d :     0.052588
      dxz     :     0.013792
      dyz     :     0.000067
      dx2y2   :     0.018631
      dxy     :     0.013792
      f0      :     0.000451  f :     0.003003
      f+1     :     0.000243
      f-1     :     0.000069
      f+2     :     0.000719
      f-2     :    -0.000005
      f+3     :     0.000424
      f-3     :     0.001101

  9 N s       :     3.867728  s :     3.867728
      pz      :     1.303209  p :     3.952128
      px      :     1.303208
      py      :     1.345711
      dz2     :     0.006306  d :     0.052583
      dxz     :     0.000067
      dyz     :     0.013792
      dx2y2   :     0.018628
      dxy     :     0.013791
      f0      :     0.000451  f :     0.003002
      f+1     :     0.000069
      f-1     :     0.000243
      f+2     :     0.000719
      f-2     :    -0.000005
      f+3     :     0.001101
      f-3     :     0.000424

 10 N s       :     3.867769  s :     3.867769
      pz      :     1.303206  p :     3.952174
      px      :     1.303204
      py      :     1.345764
      dz2     :     0.006307  d :     0.052587
      dxz     :     0.000067
      dyz     :     0.013792
      dx2y2   :     0.018631
      dxy     :     0.013791
      f0      :     0.000451  f :     0.003002
      f+1     :     0.000069
      f-1     :     0.000242
      f+2     :     0.000719
      f-2     :    -0.000005
      f+3     :     0.001101
      f-3     :     0.000424

 11 N s       :     3.867747  s :     3.867747
      pz      :     1.345698  p :     3.952114
      px      :     1.303208
      py      :     1.303209
      dz2     :     0.024807  d :     0.052600
      dxz     :     0.013791
      dyz     :     0.013791
      dx2y2   :     0.000144
      dxy     :     0.000067
      f0      :     0.000697  f :     0.003003
      f+1     :     0.001168
      f-1     :     0.001168
      f+2     :    -0.000030
      f-2     :    -0.000005
      f+3     :     0.000002
      f-3     :     0.000002

 12 N s       :     3.867765  s :     3.867765
      pz      :     1.345685  p :     3.952098
      px      :     1.303206
      py      :     1.303207
      dz2     :     0.024802  d :     0.052595
      dxz     :     0.013791
      dyz     :     0.013791
      dx2y2   :     0.000144
      dxy     :     0.000067
      f0      :     0.000697  f :     0.003002
      f+1     :     0.001168
      f-1     :     0.001168
      f+2     :    -0.000030
      f-2     :    -0.000005
      f+3     :     0.000002
      f-3     :     0.000002



                     *******************************
                     * LOEWDIN POPULATION ANALYSIS *
                     *******************************

----------------------
LOEWDIN ATOMIC CHARGES
----------------------
   0 Fe:   -0.454918
   1 C :   -0.008610
   2 C :   -0.008610
   3 C :   -0.008610
   4 C :   -0.008609
   5 C :   -0.008607
   6 C :   -0.008608
   7 N :   -0.582238
   8 N :   -0.582238
   9 N :   -0.582237
  10 N :   -0.582238
  11 N :   -0.582239
  12 N :   -0.582239

-------------------------------
LOEWDIN REDUCED ORBITAL CHARGES
-------------------------------
  0 Fes       :     6.201224  s :     6.201224
      pz      :     4.275215  p :    12.825644
      px      :     4.275215
      py      :     4.275215
      dz2     :     1.123020  d :     7.425657
      dxz     :     1.726539
      dyz     :     1.726539
      dx2y2   :     1.123019
      dxy     :     1.726540
      f0      :     0.000718  f :     0.002393
      f+1     :     0.000319
      f-1     :     0.000319
      f+2     :     0.000080
      f-2     :     0.000000
      f+3     :     0.000479
      f-3     :     0.000479

  1 C s       :     2.931905  s :     2.931905
      pz      :     0.720958  p :     2.649043
      px      :     1.207127
      py      :     0.720958
      dz2     :     0.036211  d :     0.369739
      dxz     :     0.114490
      dyz     :     0.001664
      dx2y2   :     0.102886
      dxy     :     0.114490
      f0      :     0.006865  f :     0.057922
      f+1     :     0.008085
      f-1     :     0.001121
      f+2     :     0.011258
      f-2     :     0.000252
      f+3     :     0.013340
      f-3     :     0.017001

  2 C s       :     2.931906  s :     2.931906
      pz      :     0.720957  p :     2.649043
      px      :     1.207128
      py      :     0.720957
      dz2     :     0.036211  d :     0.369739
      dxz     :     0.114490
      dyz     :     0.001664
      dx2y2   :     0.102886
      dxy     :     0.114490
      f0      :     0.006865  f :     0.057922
      f+1     :     0.008085
      f-1     :     0.001121
      f+2     :     0.011258
      f-2     :     0.000252
      f+3     :     0.013340
      f-3     :     0.017001

  3 C s       :     2.931907  s :     2.931907
      pz      :     0.720957  p :     2.649042
      px      :     0.720958
      py      :     1.207127
      dz2     :     0.036211  d :     0.369739
      dxz     :     0.001664
      dyz     :     0.114489
      dx2y2   :     0.102885
      dxy     :     0.114490
      f0      :     0.006865  f :     0.057922
      f+1     :     0.001121
      f-1     :     0.008085
      f+2     :     0.011258
      f-2     :     0.000252
      f+3     :     0.017001
      f-3     :     0.013340

  4 C s       :     2.931906  s :     2.931906
      pz      :     0.720958  p :     2.649042
      px      :     0.720958
      py      :     1.207126
      dz2     :     0.036211  d :     0.369739
      dxz     :     0.001664
      dyz     :     0.114490
      dx2y2   :     0.102886
      dxy     :     0.114490
      f0      :     0.006865  f :     0.057922
      f+1     :     0.001121
      f-1     :     0.008085
      f+2     :     0.011258
      f-2     :     0.000252
      f+3     :     0.017001
      f-3     :     0.013340

  5 C s       :     2.931905  s :     2.931905
      pz      :     1.207126  p :     2.649041
      px      :     0.720958
      py      :     0.720957
      dz2     :     0.136223  d :     0.369739
      dxz     :     0.114490
      dyz     :     0.114490
      dx2y2   :     0.002873
      dxy     :     0.001664
      f0      :     0.021224  f :     0.057922
      f+1     :     0.018099
      f-1     :     0.018099
      f+2     :     0.000201
      f-2     :     0.000252
      f+3     :     0.000023
      f-3     :     0.000023

  6 C s       :     2.931906  s :     2.931906
      pz      :     1.207126  p :     2.649042
      px      :     0.720958
      py      :     0.720957
      dz2     :     0.136223  d :     0.369739
      dxz     :     0.114490
      dyz     :     0.114490
      dx2y2   :     0.002873
      dxy     :     0.001664
      f0      :     0.021224  f :     0.057922
      f+1     :     0.018099
      f-1     :     0.018099
      f+2     :     0.000201
      f-2     :     0.000252
      f+3     :     0.000023
      f-3     :     0.000023

  7 N s       :     3.363110  s :     3.363110
      pz      :     1.186246  p :     3.929771
      px      :     1.557280
      py      :     1.186246
      dz2     :     0.031839  d :     0.206312
      dxz     :     0.039997
      dyz     :     0.000075
      dx2y2   :     0.094404
      dxy     :     0.039997
      f0      :     0.008200  f :     0.083043
      f+1     :     0.014806
      f-1     :     0.001350
      f+2     :     0.013585
      f-2     :     0.000007
      f+3     :     0.024661
      f-3     :     0.020434

  8 N s       :     3.363110  s :     3.363110
      pz      :     1.186246  p :     3.929774
      px      :     1.557281
      py      :     1.186246
      dz2     :     0.031839  d :     0.206312
      dxz     :     0.039997
      dyz     :     0.000075
      dx2y2   :     0.094404
      dxy     :     0.039997
      f0      :     0.008200  f :     0.083043
      f+1     :     0.014806
      f-1     :     0.001350
      f+2     :     0.013585
      f-2     :     0.000007
      f+3     :     0.024661
      f-3     :     0.020434

  9 N s       :     3.363108  s :     3.363108
      pz      :     1.186246  p :     3.929774
      px      :     1.186246
      py      :     1.557282
      dz2     :     0.031839  d :     0.206312
      dxz     :     0.000075
      dyz     :     0.039997
      dx2y2   :     0.094404
      dxy     :     0.039997
      f0      :     0.008200  f :     0.083043
      f+1     :     0.001350
      f-1     :     0.014806
      f+2     :     0.013584
      f-2     :     0.000007
      f+3     :     0.020434
      f-3     :     0.024661

 10 N s       :     3.363109  s :     3.363109
      pz      :     1.186246  p :     3.929774
      px      :     1.186246
      py      :     1.557282
      dz2     :     0.031839  d :     0.206312
      dxz     :     0.000075
      dyz     :     0.039997
      dx2y2   :     0.094404
      dxy     :     0.039997
      f0      :     0.008200  f :     0.083043
      f+1     :     0.001350
      f-1     :     0.014806
      f+2     :     0.013585
      f-2     :     0.000007
      f+3     :     0.020434
      f-3     :     0.024661

 11 N s       :     3.363109  s :     3.363109
      pz      :     1.557281  p :     3.929774
      px      :     1.186247
      py      :     1.186247
      dz2     :     0.125687  d :     0.206312
      dxz     :     0.039997
      dyz     :     0.039997
      dx2y2   :     0.000557
      dxy     :     0.000075
      f0      :     0.039444  f :     0.083043
      f+1     :     0.021780
      f-1     :     0.021780
      f+2     :     0.000023
      f-2     :     0.000007
      f+3     :     0.000004
      f-3     :     0.000004

 12 N s       :     3.363109  s :     3.363109
      pz      :     1.557281  p :     3.929774
      px      :     1.186246
      py      :     1.186246
      dz2     :     0.125687  d :     0.206312
      dxz     :     0.039997
      dyz     :     0.039997
      dx2y2   :     0.000557
      dxy     :     0.000075
      f0      :     0.039444  f :     0.083043
      f+1     :     0.021780
      f-1     :     0.021780
      f+2     :     0.000023
      f-2     :     0.000007
      f+3     :     0.000004
      f-3     :     0.000004



                      *****************************
                      * MAYER POPULATION ANALYSIS *
                      *****************************

  NA   - Mulliken gross atomic population
  ZA   - Total nuclear charge
  QA   - Mulliken gross atomic charge
  VA   - Mayer's total valence
  BVA  - Mayer's bonded valence
  FA   - Mayer's free valence

  ATOM       NA         ZA         QA         VA         BVA        FA
  0 Fe    26.6215    26.0000    -0.6215     6.4232     6.4232     0.0000
  1 C      5.6879     6.0000     0.3121     3.2040     3.2040     0.0000
  2 C      5.6882     6.0000     0.3118     3.2036     3.2036     0.0000
  3 C      5.6876     6.0000     0.3124     3.2028     3.2028     0.0000
  4 C      5.6874     6.0000     0.3126     3.2029     3.2029     0.0000
  5 C      5.6871     6.0000     0.3129     3.2038     3.2038     0.0000
  6 C      5.6875     6.0000     0.3125     3.2035     3.2035     0.0000
  7 N      7.8755     7.0000    -0.8755     2.5878     2.5878     0.0000
  8 N      7.8755     7.0000    -0.8755     2.5878     2.5878     0.0000
  9 N      7.8754     7.0000    -0.8754     2.5877     2.5877     0.0000
 10 N      7.8755     7.0000    -0.8755     2.5877     2.5877    -0.0000
 11 N      7.8755     7.0000    -0.8755     2.5879     2.5879     0.0000
 12 N      7.8755     7.0000    -0.8755     2.5879     2.5879     0.0000

  Mayer bond orders larger than 0.100000
B(  0-Fe,  1-C ) :   0.9488 B(  0-Fe,  2-C ) :   0.9486 B(  0-Fe,  3-C ) :   0.9483 
B(  0-Fe,  4-C ) :   0.9484 B(  0-Fe,  5-C ) :   0.9479 B(  0-Fe,  6-C ) :   0.9477 
B(  0-Fe,  7-N ) :   0.1223 B(  0-Fe,  8-N ) :   0.1222 B(  0-Fe,  9-N ) :   0.1223 
B(  0-Fe, 10-N ) :   0.1224 B(  0-Fe, 11-N ) :   0.1221 B(  0-Fe, 12-N ) :   0.1222 
B(  1-C ,  7-N ) :   2.4722 B(  2-C ,  8-N ) :   2.4722 B(  3-C ,  9-N ) :   2.4721 
B(  4-C , 10-N ) :   2.4721 B(  5-C , 11-N ) :   2.4724 B(  6-C , 12-N ) :   2.4723 


-------
TIMINGS
-------

Total SCF time: 0 days 0 hours 1 min 58 sec 

Total time                  ....     118.723 sec
Sum of individual times     ....     113.753 sec  ( 95.8%)

SCF preparation             ....       0.312 sec  (  0.3%)
Fock matrix formation       ....     108.592 sec  ( 91.5%)
  Startup                   ....       0.042 sec  (  0.0% of F)
  Split-RI-J                ....      54.374 sec  ( 50.1% of F)
  XC integration            ....      58.586 sec  ( 54.0% of F)
    XC Preparation          ....       0.000 sec  (  0.0% of XC)
    Basis function eval.    ....      16.517 sec  ( 28.2% of XC)
    Density eval.           ....      20.016 sec  ( 34.2% of XC)
    XC-Functional eval.     ....       0.918 sec  (  1.6% of XC)
    XC-Potential eval.      ....      19.326 sec  ( 33.0% of XC)
Diagonalization             ....       0.000 sec  (  0.0%)
Density matrix formation    ....       0.378 sec  (  0.3%)
Total Energy calculation    ....       0.143 sec  (  0.1%)
Population analysis         ....       0.122 sec  (  0.1%)
Orbital Transformation      ....       0.331 sec  (  0.3%)
Orbital Orthonormalization  ....       0.000 sec  (  0.0%)
DIIS solution               ....       2.618 sec  (  2.2%)
SOSCF solution              ....       1.238 sec  (  1.0%)
Finished LeanSCF after 118.8 sec

Maximum memory used throughout the entire LEANSCF-calculation: 62.0 MB


           ************************************************************
           *        Program running with 4 parallel MPI-processes     *
           *              working on a common directory               *
           ************************************************************

------------------------------------------------------------------------------
                         ORCA PROPERTY INTEGRAL CALCULATIONS
------------------------------------------------------------------------------

GBWName                                   ... nkxas.gbw
Number of atoms                           ...     13
Number of basis functions                 ...    543
Max core memory                           ...   3000 MB

Dipole integrals                          ... YES
Quadrupole integrals                      ...  NO
Linear momentum integrals                 ... YES
Angular momentum integrals                ... YES
Higher moments length integrals           ...  NO
Higher moments velocity integrals         ...  NO
Kinetic energy integrals                  ...  NO
GIAO right hand sides                     ...  NO
GIAO dipole derivative integrals          ...  NO
SOC integrals                             ...  NO
EPR diamagnetic integrals (GIAO)          ...  NO
EPR gauge integrals                       ...  NO
Field gradient integrals                  ...  NO (   0 nuclei)
Spin-dipole/Fermi contact integrals       ...  NO (   0 nuclei)
Contact density integrals                 ...  NO (   0 nuclei)
Nucleus-orbit integrals                   ...  NO (   0 nuclei)
Geometric perturbations                   ...  NO (  13 nuclei)

Choice of electric origin   ... Center of mass
Position of electric origin ... (  0.0000,  0.0000, -0.0000) 
Choice of magnetic origin   ... GIAO
Position of magnetic origin ... (  0.0000,  0.0000,  0.0000) 

Calculating integrals                     ... Electric Dipole (Length)     done (  0.0 sec)
Calculating integrals                     ... Linear Momentum              done (  0.1 sec)
Calculating integrals                     ... Angular Momentum  (ElOri)    done (  0.1 sec)

Property integrals calculated in   0.2 sec

Maximum memory used throughout the entire PROPINT-calculation: 49.2 MB


           ************************************************************
           *        Program running with 4 parallel MPI-processes     *
           *              working on a common directory               *
           ************************************************************
------------------------------------------------------------------------------
                        ORCA TD-DFT/TDA CALCULATION
------------------------------------------------------------------------------

Input orbitals are from        ... nkxas.gbw
CI-vector output               ... nkxas.cis
Solver                         ... FN-2001
Tamm-Dancoff approximation     ... operative
CIS-Integral strategy          ... AO-integrals
Integral handling              ... AO integral Direct
Max. core memory used          ... 3000 MB
Reference state                ... RHF
Generation of triplets         ... off
Follow IRoot                   ... off
Number of operators            ... 1
Orbital ranges used for CIS calculation:
 Operator 0:  Orbitals   5... 10  to  54...506
XAS localization array:
 Operator 0:  Orbitals  -1... -1

-------------------
XC-INTEGRATION GRID
-------------------

General Integration Accuracy     IntAcc      ... 3.467
Radial Grid Type                 RadialGrid  ... OptM3 with GC (2021)
Angular Grid (max. ang.)         AngularGrid ... 3 (Lebedev-194)
Angular grid pruning method      GridPruning ... 4 (adaptive)
Weight generation scheme         WeightScheme... mBecke (2022)
Basis function cutoff            BFCut       ... 1.0000e-10
Integration weight cutoff        WCut        ... 1.0000e-14
Partially contracted basis set               ... off
Rotationally invariant grid construction     ... off
Angular grids for H and He will be reduced by one unit
Diffuse basis detected: some atoms will have their outermost
                        angular grid increased by 1.
Core-polarized basis detected: some atoms will have their core
                               angular grid increased.

Total number of grid points                  ...    35524
Total number of batches                      ...      561
Average number of points per batch           ...       63
Average number of grid points per atom       ...     2733

---------------
TD-DFT XC SETUP
---------------

DFT calculation                         ... on
Name of the grid file                   ... nkxas.grid_cis.tmp
RI-approximation                        ... on
Aux-basis dimension                     ... 2805
Exchange functional (TD-DFT)            ... B88
   X-Alpha parameter    XAlpha (TD-DFT) ...  0.666667
   Becke's b parameter  XBeta (TD-DFT)  ...  0.004200
Correlation functional (TD-DFT)         ... P86
 LDA part of GGA corr.  LDAOpt (TD-DFT) ... PW91-LDA

Building densities             ... done
Calculating rho(r) on the grid ... done
Building xc-kernel on the grid ... done
                    *** TD-DFT CALCULATION INITIALIZED ***

------------------------
DAVIDSON-DIAGONALIZATION
------------------------

Dimension of the eigenvalue problem            ...   2718
Number of roots to be determined               ...    200
Maximum size of the expansion space            ...   2000
Maximum number of iterations                   ...    100
Convergence tolerance for the residual         ...    1.000e-06
Convergence tolerance for the energies         ...    1.000e-06
Orthogonality tolerance                        ...    1.000e-14
Level Shift                                    ...    0.000e+00
Constructing the preconditioner                ... o.k.
Building the initial guess                     ... o.k.
Number of trial vectors determined             ...    512


                       ****Iteration    0****
   Time for iteration     :  TOTAL=693.9 TRAFO=5.8 RIJ=186.5 XC=499.7
   Size of expansion space: 512
   Lowest Energy          :    13.844955541754
   Maximum Energy change  :    14.029440809765 (vector 199)
   Maximum residual norm  :     0.001403868136

                       ****Iteration    1****
   Time for iteration     :  TOTAL=511.3 TRAFO=1.0 RIJ=88.5 XC=421.4
   Size of expansion space: 712
   Lowest Energy          :    13.844918790191
   Maximum Energy change  :     0.000243167615 (vector 35)
   Maximum residual norm  :     0.000000000022

      *** CONVERGENCE OF RESIDUAL NORM REACHED ***

Storing the converged CI vectors               ... nkxas.cis1

                 *** DAVIDSON DONE ***

Total time for solving the CIS problem:  1234.115sec

------------------------------------
TD-DFT/TDA EXCITED STATES (SINGLETS)
------------------------------------

the weight of the individual excitations are printed if larger than 1.0e-02

STATE  1:  E=  13.844919 au    376.739 eV  3038608.4 cm**-1 <S**2> =   0.000000 Mult 1
     8a ->  54a  :     0.996385 (c=  0.99819091)

STATE  2:  E=  13.844919 au    376.739 eV  3038608.5 cm**-1 <S**2> =   0.000000 Mult 1
     5a ->  54a  :     0.055155 (c= -0.23485102)
     9a ->  54a  :     0.058267 (c= -0.24138592)
    10a ->  54a  :     0.878576 (c= -0.93732376)

STATE  3:  E=  13.844919 au    376.739 eV  3038608.6 cm**-1 <S**2> =   0.000000 Mult 1
     9a ->  54a  :     0.933883 (c=  0.96637614)
    10a ->  54a  :     0.049060 (c= -0.22149457)

STATE  4:  E=  13.844922 au    376.739 eV  3038609.0 cm**-1 <S**2> =   0.000000 Mult 1
     5a ->  54a  :     0.018308 (c=  0.13530796)
     6a ->  54a  :     0.010937 (c=  0.10458233)
     7a ->  54a  :     0.961991 (c= -0.98081148)

STATE  5:  E=  13.844922 au    376.739 eV  3038609.1 cm**-1 <S**2> =   0.000000 Mult 1
     5a ->  54a  :     0.112028 (c= -0.33470637)
     6a ->  54a  :     0.828969 (c= -0.91047745)
     7a ->  54a  :     0.024756 (c= -0.15734060)
    10a ->  54a  :     0.026122 (c=  0.16162420)

STATE  6:  E=  13.844924 au    376.740 eV  3038609.5 cm**-1 <S**2> =   0.000000 Mult 1
     5a ->  54a  :     0.805429 (c= -0.89745692)
     6a ->  54a  :     0.145276 (c=  0.38115134)
    10a ->  54a  :     0.037298 (c=  0.19312593)

STATE  7:  E=  13.866298 au    377.321 eV  3043300.7 cm**-1 <S**2> =   0.000000 Mult 1
     9a ->  55a  :     0.808240 (c= -0.89902188)
     9a ->  56a  :     0.185983 (c= -0.43125691)

STATE  8:  E=  13.866300 au    377.321 eV  3043301.0 cm**-1 <S**2> =   0.000000 Mult 1
     5a ->  55a  :     0.041624 (c= -0.20401980)
     6a ->  55a  :     0.348796 (c=  0.59058939)
     6a ->  56a  :     0.135978 (c=  0.36875226)
    10a ->  55a  :     0.411576 (c= -0.64154178)
    10a ->  56a  :     0.051535 (c= -0.22701395)

STATE  9:  E=  13.866302 au    377.321 eV  3043301.6 cm**-1 <S**2> =   0.000000 Mult 1
     8a ->  55a  :     0.728614 (c=  0.85358904)
     8a ->  56a  :     0.266526 (c= -0.51626166)

STATE 10:  E=  13.866304 au    377.321 eV  3043301.9 cm**-1 <S**2> =   0.000000 Mult 1
     5a ->  55a  :     0.230917 (c=  0.48053805)
     5a ->  56a  :     0.086978 (c= -0.29492010)
     6a ->  55a  :     0.358923 (c=  0.59910155)
     6a ->  56a  :     0.059387 (c= -0.24369453)
    10a ->  55a  :     0.139431 (c=  0.37340483)
    10a ->  56a  :     0.118094 (c= -0.34364831)

STATE 11:  E=  13.866330 au    377.322 eV  3043307.7 cm**-1 <S**2> =   0.000000 Mult 1
     7a ->  56a  :     0.981930 (c=  0.99092388)
    10a ->  56a  :     0.013772 (c=  0.11735214)

STATE 12:  E=  13.866332 au    377.322 eV  3043308.1 cm**-1 <S**2> =   0.000000 Mult 1
     5a ->  56a  :     0.634436 (c= -0.79651472)
     6a ->  56a  :     0.090739 (c=  0.30122838)
    10a ->  56a  :     0.262719 (c=  0.51256091)

STATE 13:  E=  13.866785 au    377.334 eV  3043407.6 cm**-1 <S**2> =   0.000000 Mult 1
     5a ->  55a  :     0.233223 (c= -0.48293122)
     5a ->  58a  :     0.060733 (c=  0.24644141)
     6a ->  55a  :     0.035168 (c=  0.18753232)
     7a ->  55a  :     0.518916 (c= -0.72035793)
     7a ->  58a  :     0.052229 (c=  0.22853657)
    10a ->  55a  :     0.066549 (c=  0.25797065)
    10a ->  58a  :     0.020399 (c= -0.14282588)

STATE 14:  E=  13.866790 au    377.335 eV  3043408.5 cm**-1 <S**2> =   0.000000 Mult 1
     5a ->  55a  :     0.294403 (c= -0.54258950)
     5a ->  58a  :     0.028844 (c= -0.16983647)
     6a ->  55a  :     0.042840 (c=  0.20697846)
     7a ->  55a  :     0.328244 (c=  0.57292560)
     7a ->  58a  :     0.089793 (c=  0.29965524)
    10a ->  55a  :     0.186463 (c=  0.43181340)
    10a ->  58a  :     0.020882 (c=  0.14450660)

STATE 15:  E=  13.866811 au    377.335 eV  3043413.2 cm**-1 <S**2> =   0.000000 Mult 1
     5a ->  56a  :     0.056385 (c= -0.23745476)
     6a ->  55a  :     0.076424 (c= -0.27644887)
     6a ->  56a  :     0.042017 (c=  0.20498030)
     6a ->  59a  :     0.031854 (c=  0.17847586)
     8a ->  55a  :     0.026882 (c=  0.16395611)
     8a ->  56a  :     0.087347 (c=  0.29554539)
     8a ->  57a  :     0.018144 (c=  0.13470135)
     9a ->  55a  :     0.062868 (c=  0.25073399)
     9a ->  56a  :     0.266560 (c= -0.51629438)
     9a ->  59a  :     0.048124 (c= -0.21937096)
    10a ->  56a  :     0.225810 (c= -0.47519489)
    10a ->  59a  :     0.025904 (c= -0.16094809)

STATE 16:  E=  13.866811 au    377.335 eV  3043413.3 cm**-1 <S**2> =   0.000000 Mult 1
     5a ->  55a  :     0.028448 (c= -0.16866477)
     5a ->  56a  :     0.038948 (c= -0.19735356)
     5a ->  57a  :     0.027939 (c= -0.16714827)
     6a ->  56a  :     0.177731 (c= -0.42158174)
     6a ->  57a  :     0.025342 (c= -0.15919033)
     6a ->  59a  :     0.012816 (c= -0.11320878)
     8a ->  55a  :     0.120891 (c=  0.34769376)
     8a ->  56a  :     0.322940 (c=  0.56827792)
     8a ->  57a  :     0.033077 (c=  0.18186995)
     9a ->  55a  :     0.021525 (c= -0.14671361)
     9a ->  56a  :     0.105650 (c=  0.32503831)
     9a ->  59a  :     0.013509 (c=  0.11622778)
    10a ->  55a  :     0.035961 (c= -0.18963464)
    10a ->  57a  :     0.022790 (c= -0.15096292)

STATE 17:  E=  13.866815 au    377.335 eV  3043414.1 cm**-1 <S**2> =   0.000000 Mult 1
     5a ->  55a  :     0.054925 (c= -0.23436093)
     5a ->  56a  :     0.137974 (c= -0.37144792)
     5a ->  57a  :     0.016810 (c=  0.12965255)
     6a ->  55a  :     0.043458 (c= -0.20846516)
     6a ->  56a  :     0.132260 (c= -0.36367570)
     6a ->  57a  :     0.015714 (c=  0.12535496)
     8a ->  55a  :     0.077631 (c= -0.27862311)
     8a ->  56a  :     0.216612 (c= -0.46541600)
     8a ->  57a  :     0.093638 (c=  0.30600252)
     9a ->  56a  :     0.011259 (c=  0.10610842)
    10a ->  55a  :     0.046935 (c= -0.21664521)
    10a ->  56a  :     0.130229 (c= -0.36087230)
    10a ->  57a  :     0.018298 (c=  0.13526859)

STATE 18:  E=  13.866821 au    377.335 eV  3043415.4 cm**-1 <S**2> =   0.000000 Mult 1
     6a ->  55a  :     0.045453 (c= -0.21319744)
     6a ->  56a  :     0.260224 (c=  0.51012159)
     6a ->  59a  :     0.038281 (c= -0.19565632)
     9a ->  55a  :     0.071755 (c= -0.26787049)
     9a ->  56a  :     0.313402 (c=  0.55982280)
     9a ->  59a  :     0.083375 (c= -0.28874722)
    10a ->  55a  :     0.035566 (c=  0.18858911)
    10a ->  56a  :     0.115895 (c= -0.34043296)
    10a ->  59a  :     0.022569 (c=  0.15023102)

[...]
  0-1A  -> 84-1A   379.241657 3058790.6     3.3    0.00000   0.00000  -0.00000  -0.00001
  0-1A  -> 85-1A   379.423482 3060257.1     3.3    0.00000   0.00000   0.00002  -0.00061
  0-1A  -> 86-1A   379.423502 3060257.2     3.3   -0.00000   0.00052  -0.00003  -0.00001
  0-1A  -> 87-1A   379.423508 3060257.3     3.3    0.00000   0.00003  -0.00016   0.00045
  0-1A  -> 88-1A   379.423510 3060257.3     3.3    0.00000   0.00055   0.00001   0.00066
  0-1A  -> 89-1A   379.423527 3060257.4     3.3   -0.00000   0.00046  -0.00012  -0.00002
  0-1A  -> 90-1A   379.423535 3060257.5     3.3   -0.00000   0.00032  -0.00001   0.00027
  0-1A  -> 91-1A   379.423657 3060258.5     3.3    0.00000   0.00003   0.06982   0.02529
  0-1A  -> 92-1A   379.423661 3060258.5     3.3   -0.00012   0.00975   0.07314  -0.00994
  0-1A  -> 93-1A   379.423661 3060258.5     3.3    0.00010  -0.00136   0.01659  -0.06874
  0-1A  -> 94-1A   379.423667 3060258.6     3.3    0.00002   0.00033  -0.00192  -0.07071
  0-1A  -> 95-1A   379.423673 3060258.6     3.3   -0.00003  -0.07517   0.00966   0.00051
  0-1A  -> 96-1A   379.423675 3060258.6     3.3    0.00000   0.06802   0.00090   0.00073
  0-1A  -> 97-1A   379.423685 3060258.7     3.3    0.00010   0.00027  -0.00375   0.01152
  0-1A  -> 98-1A   379.423687 3060258.7     3.3    0.00006   0.01309  -0.00177  -0.00033
  0-1A  -> 99-1A   379.423689 3060258.8     3.3   -0.00013   0.00744  -0.00066   0.00223
  0-1A  -> 100-1A   379.423737 3060259.1     3.3   -0.00001  -0.00014  -0.00101  -0.00312
  0-1A  -> 101-1A   379.423740 3060259.2     3.3   -0.00005  -0.00082  -0.00054  -0.00125
  0-1A  -> 102-1A   379.423741 3060259.2     3.3    0.00007   0.00406   0.00033  -0.00056
  0-1A  -> 103-1A   379.551229 3061287.4     3.3    0.00000   0.00000   0.00000  -0.00001
  0-1A  -> 104-1A   379.551247 3061287.6     3.3   -0.00000  -0.00000   0.00002  -0.00004
  0-1A  -> 105-1A   379.551251 3061287.6     3.3   -0.00000   0.00004  -0.00006  -0.00000
  0-1A  -> 106-1A   379.551272 3061287.8     3.3   -0.00000   0.00001   0.00000  -0.00004
  0-1A  -> 107-1A   379.551321 3061288.2     3.3   -0.00000   0.00000  -0.00000   0.00001
  0-1A  -> 108-1A   379.551340 3061288.3     3.3    0.00000   0.00001  -0.00000  -0.00001
  0-1A  -> 109-1A   379.787534 3063193.4     3.3    0.00000  -0.00186  -0.00067  -0.02683
  0-1A  -> 110-1A   379.787549 3063193.5     3.3   -0.00001  -0.00411   0.02726  -0.00031
  0-1A  -> 111-1A   379.787550 3063193.5     3.3    0.00000   0.00030   0.00022   0.00218
  0-1A  -> 112-1A   379.787557 3063193.5     3.3    0.00008   0.02397   0.00438  -0.00199
  0-1A  -> 113-1A   379.787559 3063193.6     3.3   -0.00010  -0.00301  -0.00041  -0.00016
  0-1A  -> 114-1A   379.787564 3063193.6     3.3    0.00003   0.00256   0.00020  -0.00028
  0-1A  -> 115-1A   379.787570 3063193.7     3.3   -0.00001   0.00023   0.00464  -0.00002
  0-1A  -> 116-1A   379.787574 3063193.7     3.3    0.00000  -0.00021  -0.00053   0.00002
  0-1A  -> 117-1A   379.787577 3063193.7     3.3    0.00001  -0.00001   0.00019  -0.00052
  0-1A  -> 118-1A   379.787585 3063193.8     3.3   -0.00001  -0.00002   0.00043  -0.00000
  0-1A  -> 119-1A   379.787597 3063193.9     3.3    0.00001   0.00013   0.00005  -0.00004
  0-1A  -> 120-1A   379.787602 3063193.9     3.3    0.00000   0.00001   0.00013   0.00001
  0-1A  -> 121-1A   379.787627 3063194.1     3.3   -0.00001   0.00157   0.00006  -0.02086
  0-1A  -> 122-1A   379.787644 3063194.2     3.3   -0.00003   0.00075  -0.01150   0.00828
  0-1A  -> 123-1A   379.787644 3063194.3     3.3    0.00000   0.00564   0.01549   0.00577
  0-1A  -> 124-1A   379.787651 3063194.3     3.3    0.00006   0.02376  -0.00562  -0.00040
  0-1A  -> 125-1A   379.787654 3063194.3     3.3   -0.00003   0.00695   0.00882   0.00032
  0-1A  -> 126-1A   379.787672 3063194.5     3.3   -0.00000  -0.00301   0.00120   0.00094
  0-1A  -> 127-1A   380.392277 3068070.9     3.3    0.00000   0.00000   0.00000  -0.00000
  0-1A  -> 128-1A   380.392298 3068071.1     3.3   -0.00000   0.00000  -0.00000   0.00000
  0-1A  -> 129-1A   380.392302 3068071.1     3.3   -0.00000   0.00000  -0.00000  -0.00000
  0-1A  -> 130-1A   380.392316 3068071.3     3.3    0.00000  -0.00000  -0.00001   0.00002
  0-1A  -> 131-1A   380.392338 3068071.4     3.3   -0.00000  -0.00002   0.00001  -0.00000
  0-1A  -> 132-1A   380.392343 3068071.5     3.3    0.00000   0.00001   0.00000  -0.00001
  0-1A  -> 133-1A   380.423144 3068319.9     3.3    0.12660   0.00588   0.04838   0.01096
  0-1A  -> 134-1A   380.423146 3068319.9     3.3   -0.23324  -0.02085  -0.04788   0.02375
  0-1A  -> 135-1A   380.423150 3068319.9     3.3   -0.00877  -0.00220   0.01470   0.01428
  0-1A  -> 136-1A   380.423151 3068320.0     3.3    0.21091  -0.07996   0.04095   0.00637
  0-1A  -> 137-1A   380.423155 3068320.0     3.3    0.02350   0.00208   0.29464   0.19718
  0-1A  -> 138-1A   380.423157 3068320.0     3.3   -0.65096  -0.03140   0.15954  -0.28030
  0-1A  -> 139-1A   380.423158 3068320.0     3.3    0.53069  -0.16495  -0.04324   0.14909
  0-1A  -> 140-1A   380.423172 3068320.1     3.3   -0.28484   0.03833  -0.12580  -0.02226
  0-1A  -> 141-1A   380.423178 3068320.2     3.3    1.79564  -0.65454   0.01609  -0.25445
  0-1A  -> 142-1A   380.423179 3068320.2     3.3   -1.51108  -0.38493  -0.02594   0.12923
  0-1A  -> 143-1A   380.423191 3068320.3     3.3   -0.03351  -0.00316  -0.70693  -0.01136
  0-1A  -> 144-1A   380.423199 3068320.3     3.3    0.03505   0.15492   0.01584  -0.64401
  0-1A  -> 145-1A   380.473873 3068729.1     3.3   -0.00009  -0.00013   0.00047  -0.00004
  0-1A  -> 146-1A   380.473885 3068729.2     3.3    0.00016  -0.00003  -0.00037  -0.00009
  0-1A  -> 147-1A   380.473914 3068729.4     3.3    0.00002   0.00001   0.00006   0.00000
  0-1A  -> 148-1A   380.473920 3068729.4     3.3   -0.00096  -0.00002  -0.00027  -0.00002
  0-1A  -> 149-1A   380.473922 3068729.5     3.3    0.00087  -0.00002   0.00031   0.00007
  0-1A  -> 150-1A   380.473955 3068729.7     3.3    0.00000   0.00000  -0.00002   0.00006
  0-1A  -> 151-1A   380.553573 3069371.9     3.3   -0.05467  -2.43950   0.08393  -1.00708
  0-1A  -> 152-1A   380.553587 3069372.0     3.3    0.16196   0.29897  -2.43471  -0.91662
  0-1A  -> 153-1A   380.553594 3069372.1     3.3   -0.10138  -0.96226  -0.96619   2.23422
  0-1A  -> 154-1A   380.553676 3069372.7     3.3    0.01264  -0.02250   0.02267   0.04413
  0-1A  -> 155-1A   380.553679 3069372.7     3.3   -0.04675  -0.03550   0.00616  -0.03309
  0-1A  -> 156-1A   380.553737 3069373.2     3.3    0.04507   0.00736  -0.00376  -0.01262
  0-1A  -> 157-1A   380.553809 3069373.8     3.3    0.21786  -0.00323  -0.00884  -0.02567
  0-1A  -> 158-1A   380.553813 3069373.8     3.3   -0.31112  -0.02281  -0.00683   0.01518
  0-1A  -> 159-1A   380.553826 3069373.9     3.3    0.13331  -0.01023   0.02220   0.04346
  0-1A  -> 160-1A   380.553850 3069374.1     3.3    0.10581  -0.00884  -0.32823  -0.03917
  0-1A  -> 161-1A   380.553857 3069374.2     3.3   -0.32396  -0.09149  -0.00922   0.34844
  0-1A  -> 162-1A   380.553872 3069374.3     3.3    0.16123   0.01296   0.00094  -0.04747
  0-1A  -> 163-1A   381.322600 3075574.5     3.3   -0.00000   0.00000  -0.00004  -0.00004
  0-1A  -> 164-1A   381.322626 3075574.7     3.3   -0.00000   0.00002   0.00004  -0.00000
  0-1A  -> 165-1A   381.322629 3075574.7     3.3    0.00000   0.00003   0.00000   0.00004
  0-1A  -> 166-1A   381.322640 3075574.8     3.3    0.00000   0.00000   0.00000   0.00000
  0-1A  -> 167-1A   381.322666 3075575.0     3.3   -0.00000   0.00000   0.00000   0.00000
  0-1A  -> 168-1A   381.322669 3075575.1     3.3   -0.00000   0.00000   0.00000   0.00000
  0-1A  -> 169-1A   381.409431 3076274.8     3.3   -0.05914  -0.53426  -2.07443  -1.30521
  0-1A  -> 170-1A   381.409436 3076274.9     3.3    0.06117   0.36158  -1.38835   2.05669
  0-1A  -> 171-1A   381.409444 3076274.9     3.3    0.00435  -2.42268   0.24963   0.59356
  0-1A  -> 172-1A   381.409510 3076275.5     3.3   -0.01952   0.00430   0.01761  -0.02151
  0-1A  -> 173-1A   381.409516 3076275.5     3.3    0.00172   0.04835  -0.03053   0.04689
  0-1A  -> 174-1A   381.409519 3076275.6     3.3    0.01159  -0.05363   0.00303   0.03777
  0-1A  -> 175-1A   381.409679 3076276.8     3.3   -0.00988  -0.02864   0.02678   0.04453
  0-1A  -> 176-1A   381.409682 3076276.9     3.3   -0.01610   0.00154   0.01118   0.03960
  0-1A  -> 177-1A   381.409692 3076276.9     3.3    0.03325   0.05251   0.01285  -0.03933
  0-1A  -> 178-1A   381.409739 3076277.3     3.3   -0.02261   0.00314   0.00051   0.00444
  0-1A  -> 179-1A   381.409742 3076277.4     3.3    0.00388   0.01044   0.00899   0.01433
  0-1A  -> 180-1A   381.409748 3076277.4     3.3    0.01130  -0.01753  -0.00020   0.01312
  0-1A  -> 181-1A   381.535703 3077293.3     3.2   -0.00000   0.00000   0.00025   0.00109
  0-1A  -> 182-1A   381.535737 3077293.6     3.2    0.00000   0.00000   0.00001  -0.00006
  0-1A  -> 183-1A   381.535754 3077293.7     3.2   -0.00000  -0.00006   0.00000   0.00064
  0-1A  -> 184-1A   381.535796 3077294.0     3.2    0.00000   0.00001   0.00001  -0.00007
  0-1A  -> 185-1A   381.535888 3077294.8     3.2    0.00000   0.00029  -0.00042  -0.00000
  0-1A  -> 186-1A   381.535932 3077295.1     3.2   -0.00000   0.00001   0.00000  -0.00000
  0-1A  -> 187-1A   381.556881 3077464.1     3.2   -0.00001   0.00117   0.00073   0.00000
  0-1A  -> 188-1A   381.556917 3077464.4     3.2   -0.00004  -0.00011  -0.00020   0.00003
  0-1A  -> 189-1A   381.556986 3077465.0     3.2    0.00049   0.00037   0.00005   0.00023
  0-1A  -> 190-1A   381.557017 3077465.2     3.2   -0.00079   0.00013  -0.00015   0.00031
  0-1A  -> 191-1A   381.557064 3077465.6     3.2    0.00046   0.00018   0.00003   0.00004
  0-1A  -> 192-1A   381.557109 3077466.0     3.2   -0.00012  -0.00007   0.00002  -0.00016
  0-1A  -> 193-1A   381.758198 3079087.8     3.2   -0.14084   1.37964   0.20946   0.77537
  0-1A  -> 194-1A   381.758213 3079088.0     3.2    0.22067   0.79251  -0.64523  -0.92360
  0-1A  -> 195-1A   381.758270 3079088.4     3.2    3.29511  -0.14451  -1.17497   0.65680
  0-1A  -> 196-1A   381.758272 3079088.4     3.2   -3.63105   0.03223   0.29893  -0.13028
  0-1A  -> 197-1A   381.758296 3079088.6     3.2    0.43601   0.04388   0.02905  -0.00445
  0-1A  -> 198-1A   381.758303 3079088.7     3.2   -0.21427  -0.08169  -0.13667  -0.02679
  0-1A  -> 199-1A   381.758314 3079088.8     3.2   -0.04625   0.09504   0.04588   0.03584
  0-1A  -> 200-1A   381.758336 3079089.0     3.2    0.07265  -0.00824  -0.02405   0.00672

Total run time:     1271.339 sec

           *** ORCA-CIS/TD-DFT FINISHED WITHOUT ERROR ***
-----------------------
CIS/TD-DFT TOTAL ENERGY
-----------------------

    E(SCF)  =  -1820.934917999 Eh
    DE(CIS) =     13.844918790 Eh (Root  1)
    ----------------------------- ---------
    E(tot)  =  -1807.089999208 Eh


Maximum memory used throughout the entire CIS-calculation: 2308.0 MB
=> NOW LEAVING ORCA_CIS

-------------------------   --------------------
FINAL SINGLE POINT ENERGY     -1807.089999208416
-------------------------   --------------------



           ************************************************************
           *        Program running with 4 parallel MPI-processes     *
           *              working on a common directory               *
           ************************************************************

------------------------------------------------------------------------------
                              ORCA PROPERTY CALCULATIONS
------------------------------------------------------------------------------

GBWName                                 ... nkxas.gbw
Number of atoms                         ...     13
Number of basis functions               ...    543
Max core memory                         ...   3000 MB

Electric properties:
Dipole moment                           ... YES
Quadrupole moment                       ...  NO
Static polarizability (Dipole/Dipole)   ...  NO
Static polarizability (Dipole/Quad.)    ...  NO
Static polarizability (Quad./Quad.)     ...  NO
Static polarizability (Velocity)        ...  NO
Static hyperpolarizability              ...  NO

Atomic electric properties:
Dipole moment                           ...  NO
Quadrupole moment                       ...  NO
Static polarizability                   ...  NO

Choice of electric origin               ... Center of mass
Position of electric origin             ...     0.000000     0.000000    -0.000000

General magnetic properties:
Magnetizability                         ...  NO

EPR properties:
g-Tensor (aka g-matrix)                 ...  NO
Zero-Field splitting spin-orbit         ...  NO
Zero-field splitting spin-spin          ...  NO
Hyperfine couplings                     ...  NO (   0 nuclei)
Quadrupole couplings                    ...  NO (   0 nuclei)
Contact density                         ...  NO (   0 nuclei)

NMR properties:
Chemical shifts                         ...  NO (   0 nuclei)
Spin-rotation constants                 ...  NO (   0 nuclei)
Spin-spin couplings                     ...  NO (   0 nuclei,    0 pairs)

Choice of magnetic origin               ... GIAO
Position of magnetic origin             ...     0.000000     0.000000     0.000000

Properties with geometric perturbations:
SCF Hessian                             ...  NO
IR spectrum                             ...  NO
VCD spectrum                            ...  NO
X-ray spectroscopy properties:
SCF XES/XAS/RIXS spectra                ...  NO

SCF SOC stabilization energy            ...  NO
Diagonal Born-Oppenheimer correction    ...  NO

-------------
DIPOLE MOMENT
-------------

Method             : SCF
Type of density    : Electron Density
Multiplicity       :   1
Irrep              :   0
Energy             : -1820.9349179986070340 Eh
Basis              : AO
                                X                 Y                 Z
Electronic contribution:      0.000021668       0.000000713      -0.000001458
Nuclear contribution   :     -0.000003845      -0.000002859      -0.000000116
                        -----------------------------------------
Total Dipole Moment    :      0.000017823      -0.000002146      -0.000001573
                        -----------------------------------------
Magnitude (a.u.)       :      0.000018020
Magnitude (Debye)      :      0.000045804



--------------------
Rotational spectrum 
--------------------
 
Rotational constants in cm-1:             0.022408             0.022408             0.022408 
Rotational constants in MHz :           671.763178           671.762443           671.760492 

Dipole components along the rotational axes: 
x,y,z [a.u.] :     0.000012     0.000009     0.000009 
x,y,z [Debye]:     0.000031     0.000023     0.000024 

 

Dipole moment calculation done in   0.1 sec 

Maximum memory used throughout the entire PROP-calculation: 42.4 MB

--------------------------------
SUGGESTED CITATIONS FOR THIS RUN
--------------------------------

Below you find a list of papers that are relevant to this ORCA run
We neither can nor want to force you to cite these papers, but we appreciate if you do
You receive ORCA, which is the product of decades of hard work by many enthusiastic individuals, for free
The only thing we kindly ask in return is that you cite our papers,
We deeply appreciate it, if you show your appreciation for ORCA by not just citing the generic ORCA reference.

Please note that relegating all ORCA citations to the supporting information does *not* help us.
SI sections are not indexed - citations you put there will not count into any citation statistics
But we need these citations in order to attract the funding resources that allow us to do what we are doing

Therefore, if you are a happy ORCA user, please consider citing a few of the papers listed below in the main body of your paper

In addition to the list printed below, the program has created the file nkxas.bibtex that contains the list in bibtex format
You can import this file easily into all common literature databanks and citation aid programs

It goes without saying that in many instances, there are alternative algorithms to achieve similar
results as the ones you have gotten from ORCA. It is, of course, also the case that in some instances
ORCA just re-implements algorithms worked out by others. We are fully aware of that and we are also
fully appreciative of our colleagues work. Hence this citation list should not be read as indicating
that the listed papers, which are focused on our own work, are the only ones worth citing. It simply
meant to make it easier for users to cite ORCA specific papers. It is not a substitute for doing your
own literature research and citing the relevant literature in a scientifically appropriate manner.

List of essential papers. We consider these as the minimum necessary citations

  1. Neese, F.
     Software update: the ORCA program system, version 6.0
     WIRES Comput. Molec. Sci. 2025 15(1), e70019
     doi.org/10.1002/wcms.70019

List of papers to cite with high priority. The work reported in these papers was absolutely
necessary for this run to complete.
Our perspective: the developers of density functionals and basis sets usually get cited in chemistry papers
Good! But without the algorithms to do something with them, the functionals or basis sets would not do anything.
Hence, in our opinion, the algorithm design and method developments papers are equally worthy of getting cited

  1. Neese, F.; Olbrich, G.
     Efficient use of the resolution of the identity approximation in time-dependent density functional calculations with hybrid density functionals
     Chem. Phys. Lett. 2002 362 , 170-178
     doi.org/10.1016/s0009-2614(02)01053-9
  2. Neese, F.
     An improvement of the resolution of the identity approximation for the formation of the Coulomb matrix
     J. Comp. Chem. 2003 24(14), 1740-1747
     doi.org/10.1002/jcc.10318
  3. Stoychev, G.L.; Auer, A.A.; Neese, F.
     Automatic Generation of Auxiliary Basis Sets
     J. Theo. Comp. Chem. 2017 13 , 554-562
     doi.org/10.1021/acs.jctc.6b01041
  4. Neese, F.
     The SHARK Integral Generation and Digestion System
     J. Comp. Chem. 2022 44(3), 381
     doi.org/10.1002/jcc.26942

List of suggested additional citations. These are papers that are important in the 'surrounding' of 
of this run, or papers that preceded the highly important papers. If you like your results we are grateful for a citation.

  1. Neese, F.
     The ORCA program system
     WIRES Comput. Molec. Sci. 2012 2(1), 73-78
     doi.org/10.1002/wcms.81
  2. Neese, F.
     Software update: the ORCA program system, version 4.0
     WIRES Comput. Molec. Sci. 2018 8(1), 1-6
     doi.org/10.1002/wcms.1327
  3. Neese, F.; Wennmohs, F.; Becker, U.; Riplinger, C.
     The ORCA quantum chemistry program package
     J. Chem. Phys. 2020 152(22), 224108
     doi.org/10.1063/5.0004608
  4. Neese, F.
     Software update: The ORCA program system—Version 5.0
     WIRES Comput. Molec. Sci. 2022 12(1), e1606
     doi.org/10.1002/wcms.1606

List of optional additional citations

  1. Neese, F.
     Approximate second-order SCF convergence for spin unrestricted wavefunctions
     Chem. Phys. Lett. 2000 325(1-3), 93-98
     doi.org/10.1016/s0009-2614(00)00662-x

Timings for individual modules:

Sum of individual times          ...     1420.412 sec (=  23.674 min)
Startup calculation              ...       26.352 sec (=   0.439 min)   1.9 %
SCF iterations                   ...      120.700 sec (=   2.012 min)   8.5 %
Property integrals               ...        0.706 sec (=   0.012 min)   0.0 %
Property calculations            ...        0.701 sec (=   0.012 min)   0.0 %
CIS module                       ...     1271.953 sec (=  21.199 min)  89.5 %
                             ****ORCA TERMINATED NORMALLY****
TOTAL RUN TIME: 0 days 0 hours 23 minutes 41 seconds 155 msec
