
                                 *****************
                                 * O   R   C   A *
                                 *****************

                                            #,                                       
                                            ###                                      
                                            ####                                     
                                            #####                                    
                                            ######                                   
                                           ########,                                 
                                     ,,################,,,,,                         
                               ,,#################################,,                 
                          ,,##########################################,,             
                       ,#########################################, ''#####,          
                    ,#############################################,,   '####,        
                  ,##################################################,,,,####,       
                ,###########''''           ''''###############################       
              ,#####''   ,,,,##########,,,,          '''####'''          '####       
            ,##' ,,,,###########################,,,                        '##       
           ' ,,###''''                  '''############,,,                           
         ,,##''                                '''############,,,,        ,,,,,,###''
      ,#''                                            '''#######################'''  
     '                                                          ''''####''''         
             ,#######,   #######,   ,#######,      ##                                
            ,#'     '#,  ##    ##  ,#'     '#,    #''#        ,####,    ,#,          
            ##       ##  ##   ,#'  ##            #'  '#       #'       ,# #          
            ##       ##  #######   ##           ,######,      #####,      #          
            '#,     ,#'  ##    ##  '#,     ,#' ,#      #,     #,   #      #          
             '#######'   ##     ##  '#######'  #'      '#     '####' #    #          



                #########################################################
                #                        -***-                          #
                #          Department of theory and spectroscopy        #
                #                                                       #
                #                      Frank Neese                      #
                #                                                       #
                #     Directorship, Architecture, Infrastructure        #
                #                    SHARK, DRIVERS                     #
                #        Core code/Algorithms in most modules           #
                #                                                       #
                #        Max Planck Institute fuer Kohlenforschung      #
                #                Kaiser Wilhelm Platz 1                 #
                #                 D-45470 Muelheim/Ruhr                 #
                #                      Germany                          #
                #                                                       #
                #                  All rights reserved                  #
                #                        -***-                          #
                #########################################################


                         Program Version 6.1.1  -  RELEASE   -
                                (GIT: $487d211c$)
                          ($2025-11-21 10:33:24 +0100$)


 With contributions from (in alphabetic order):
[Max-Planck-Institut fuer Kohlenforschung]                               
  Daniel Aravena         : Magnetic Suceptibility                        
  Michael Atanasov       : Ab Initio Ligand Field Theory (pilot matlab implementation)
  Alexander A. Auer      : GIAO ZORA, VPT2 properties, NMR spectrum      
  Ute Becker             : All parallelization in ORCA, NUMFREQ, NUMCALC 
  Giovanni Bistoni       : ED, misc. LED, open-shell LED, HFLD           
  Dmytro Bykov           : pre 5.0 version of the SCF Hessian            
  Marcos Casanova-Páez   : Triplet and SCS-CIS(D). UHF-(DLPNO)-IP/EA/STEOM-CCSD. UHF-CVS-IP/STEOM-CCSD   
  Vijay G. Chilkuri      : MRCI spin determinant printing, contributions to CSF-ICE 
  Pauline Colinet        : FMM embedding                                 
  Dipayan Datta          : RHF DLPNO-CCSD density                        
  Achintya Kumar Dutta   : EOM-CC, STEOM-CC                              
  Nicolas Foglia         : Exact transition moments, OPA infrastructure, MCD improvements    
  Dmitry Ganyushin       : Spin-Orbit,Spin-Spin,Magnetic field MRCI      
  Miquel Garcia-Rates    : C-PCM and meta-GGA Hessian, CCSD/C-PCM, Gaussian charge scheme 
  Tiago L. C. Gouveia    : GS-ROHF, GS-ROCIS                             
  Yang Guo               : DLPNO-NEVPT2, F12-NEVPT2, CIM, IAO-localization        
  Andreas Hansen         : Spin unrestricted coupled pair/coupled cluster methods 
  Ingolf Harden          : AUTO-CI MPn and infrastructure                
  Benjamin Helmich-Paris : MC-RPA, TRAH-(SCF,CASSCF), AVAS, COSX integrals, SCF dyn. polar., MC-PDFT, srDFT 
  Lee Huntington         : MR-EOM, pCC                                   
  Robert Izsak           : Overlap fitted RIJCOSX, COSX-SCS-MP3, EOM     
  Riya Kayal             : Wick's Theorem for AUTO-CI, AUTO-CI UHF-CCSDT 
  Emily Kempfer          : AUTO-CI RHF CISDT and CCSDT, approximate NEVPT4
  Christian Kollmar      : KDIIS, OOCD, Brueckner-CCSD(T), CCSD density, CASPT2, CASPT2-K, improved NEVPT2 
  Axel Koslowski         : Symmetry handling                             
  Simone Kossmann        : meta-GGA functionals, TD-DFT gradient, OOMP2, (MP2 Hessian; deprecated post 5.0) 
  Lucas Lang             : DCDCAS, Hyperfine gauge corrections, ICE-SOC+SSC
  Marvin Lechner         : AUTO-CI (C++ implementation), FIC-MRCC        
  Spencer Leger          : CASSCF response                               
  Dagmar Lenk            : GEPOL surface, SMD, ORCA-2-JSON               
  Dimitrios Liakos       : Extrapolation schemes; Compound Job, Property file
  Dimitrios Manganas     : Further ROCIS development; embedding schemes. LFT, Crystal Embedding 
  Dimitrios Pantazis     : SARC Basis sets                               
  Anastasios Papadopoulos: AUTO-CI, single reference methods and gradients 
  Taras Petrenko         : pre 6.0 DFT Hessian and TD-DFT gradient,  ECA, NRVS 
  Petra Pikulova         : Analytic Raman intensities                    
  Peter Pinski           : DLPNO-MP2, DLPNO-MP2 Gradient                 
  Shashank Vittal Rao    : ES-AILFT, MagRelax                            
  Christoph Reimann      : Effective Core Potentials                     
  Marius Retegan         : Local ZFS, SOC                                
  Christoph Riplinger    : Optimizer, TS searches, QM/MM, DLPNO-CCSD(T), (RO)-DLPNO pert. Triples 
  Michael Roemelt        : Original ROCIS implementation, recursive CI coupling coefficients
  Masaaki Saitow         : Open-shell DLPNO-CCSD energy and density      
  Barbara Sandhoefer     : DKH picture change effects                    
  Yorick L. A. Schmerwitz: GMF and freeze-and-release deltaSCF, NEB S-IDPP initial path                    
  Kantharuban Sivalingam : CASSCF convergence/infrastructure, NEVPT2, NEVPT3, NEVPT4(SD), FIC-MRCI and CEPA variants
  Bernardo de Souza      : ESD, SOC TD-DFT                               
  Georgi L. Stoychev     : AutoAux, RI-MP2 NMR, DLPNO-MP2 response, X2C  
  Van Anh Tran           : RI-MP2 g-tensors                              
  Willem Van den Heuvel  : Paramagnetic NMR                              
  Zikuan Wang            : NOTCH, Electric field optimization            
  Frank Wennmohs         : Technical directorship and infrastructure     
  Hang Xu                : AUTO-CI-Response properties                   
                                                                         
[FACCTs GmbH]                                                            
  Markus Bursch, Nicolas Foglia, Miquel Garcia-Rates, Ingolf Harden, Hagen Neugebauer, Anastasios Papadopoulos, 
  Christoph Riplinger, Bernardo de Souza, Georgi L. Stoychev                                                    
                                                                 
  APM, various basis sets, CI-OPT, improved COSX, DLPNO-Multilevel,           
  DOCKER, DRACO, updates on ESD, Fragmentator, GOAT, IRC, LR-CPCM, L-BFGS, MBIS, meta-GGA TD-DFT gradient, ML-optimized integration grids, 
  MM, NACMEs, nearIR, NEB, NEB-TS, NL-DFT gradient (VV10), 2- and 3-layer-ONIOM, interface openCOSMO-RS, QMMM,   
  Crystal-QMMM, RESP, rigid body optimization, SF, symmetry and pop. for TD-DFT, various functionals, SOLVATOR                                   
                                                                         
[Other institutions]                                                     
  V. Asgeirsson          : NEB                                           
  Christoph Bannwarth    : sTDA-DFT, sTD-DFT, PBEh-3c, B97-3c, D3        
  Giovanni Bistoni       : ETS/NOCV, ADLD/ADEX, COVALED                  
  Martin Brehm           : Molecular dynamics                            
  Ronald Cardenas        : ETS/NOCV                                      
  Martina Colucci        : COVALED                                       
  Sebastian Ehlert       : rSCAN, r2SCAN, r2SCAN-3c, D4, dhf basis sets  
  Marvin Friede          : D4 for Fr, Ra, Ac-Lr                          
  Lars Goerigk           : TD-DFT with DH, B97 family of functionals     
  Stefan Grimme          : VdW corrections, initial TS optimization, DFT functionals, gCP, sTDA/sTD-DF 
  Waldemar Hujo          : DFT-NL                                        
  H. Jonsson             : NEB                                           
  Holger Kruse           : gCP                                           
  Marcel Mueller         : wB97X-3c, vDZP basis set                      
  Hagen Neugebauer       : wr2SCAN, Native XTB                           
  Gianluca Regni         : ADLD/ADEX                                     
  Tobias Risthaus        : pre 6.0 range-separated hybrid DFT and stability analysis
  Lukas Wittmann         : regularized MP2, r2SCAN double-hybrids, wr2SCAN        
                                                                         
We gratefully acknowledge several colleagues who have allowed us to      
interface, adapt or use parts of their codes:                            
  Ed Valeev, F. Pavosevic, A. Kumar             : LibInt (2-el integral package), F12 methods 
  Garnet Chan, S. Sharma, J. Yang, R. Olivares  : DMRG                   
  Ulf Ekstrom                                   : XCFun DFT Library      
  Mihaly Kallay                                 : mrcc  (arbitrary order and MRCC methods)
  Frank Weinhold                                : gennbo (NPA and NBO analysis)           
  Simon Mueller                                 : openCOSMO-RS                            
  Christopher J. Cramer and Donald G. Truhlar   : smd solvation model                     
  S Lehtola, MJT Oliveira, MAL Marques          : LibXC Library                           
  Liviu Ungur et al                             : ANISO software                          


 Your calculation uses the libint2 library for the computation of 2-el integrals
 For citations please refer to: http://libint.valeyev.net

 Your ORCA version has been built with support for libXC version: 7.0.0
 For citations please refer to: https://libxc.gitlab.io

 This ORCA versions uses:
   CBLAS   interface :  Fast vector & matrix operations
   LAPACKE interface :  Fast linear algebra routines
   SCALAPACK package :  Parallel linear algebra routines
   Shared memory     :  Shared parallel matrices
   BLAS/LAPACK       :  OpenBLAS 0.3.29  USE64BITINT DYNAMIC_ARCH NO_AFFINITY Haswell SINGLE_THREADED
        Core in use  :  Haswell
   Copyright (c) 2011-2014, The OpenBLAS Project


  ***********************************
  * Starting time: Sat Jun  6 02:14:19 2026
  * Host name:     steezy
  * Process ID:    1655519
  * Working dir.:  /home/jannes/hexacyanide/fecn6/05_basis_comparison/camb3lyp
  ***********************************

NOTE: MaxCore=3000 MB was set to SCF,MP2,MDCI,CIPSI,MRCI,RASCI and CIS
      => If you want to overwrite this, your respective input block should be placed after the MaxCore statement


***************************************
The coordinates will be read from file: ../../01_opt/fecn6_opt_pbe0_tzvp.xyz
***************************************


XCFun DFT library Copyright 2009-2010 Ulf Ekstrom and contributors.
See http://admol.org/xcfun for more information.
This is free software; see the source code for copying conditions.
There is ABSOLUTELY NO WARRANTY; not even for MERCHANTABILITY or FITNESS FOR A PARTICULAR PURPOSE.
For details see the documentation.
Scientific users of this library should cite U. Ekstrom, L. Visscher, R. Bast, A. J. Thorvaldsen and K. Ruud;
J.Chem.Theor.Comp. 2010, DOI: 10.1021/ct100117s
XCFun Version 0.99 

================================================================================

----- Orbital basis set information -----
Your calculation utilizes the basis: def2-TZVP
   F. Weigend and R. Ahlrichs, Phys. Chem. Chem. Phys. 7, 3297 (2005).

The basis set includes element-specific modifications.

Your calculation utilizes the basis: aug-cc-pVTZ 
    H, B-Ne : Obtained from the ccRepo (grant-hill.group.shef.ac.uk/ccrepo) Feb. 2017
              R. A. Kendall, T. H. Dunning, Jr., R. J. Harrison, J. Chem. Phys. 96, 6796 (1992)
         He : Obtained from the ccRepo (grant-hill.group.shef.ac.uk/ccrepo) Feb. 2017
              D. E. Woon, T. H. Dunning, Jr., J. Chem. Phys. 100, 2975 (1994)
  Li-Be, Na : Obtained from the ccRepo (grant-hill.group.shef.ac.uk/ccrepo) Feb. 2017
              B. P. Prascher, D. E. Woon, K. A. Peterson, T. H. Dunning, Jr., A. K. Wilson, Theor. Chem. Acc. 128, 69 (2011)
         Mg : Obtained from the Peterson Research Group Website (tyr0.chem.wsu.edu/~kipeters) Feb. 2017
              B. P. Prascher, D. E. Woon, K. A. Peterson, T. H. Dunning, Jr., A. K. Wilson, Theor. Chem. Acc. 128, 69 (2011)
      Al-Ar : Obtained from the ccRepo (grant-hill.group.shef.ac.uk/ccrepo) Feb. 2017
              D. E. Woon, T. H. Dunning, Jr., J. Chem. Phys. 98, 1358 (1993)
      Sc-Zn : Obtained from the ccRepo (grant-hill.group.shef.ac.uk/ccrepo) Feb. 2017
              N. B. Balabanov, K. A. Peterson, J. Chem. Phys. 123, 064107 (2005)
              N. B. Balabanov, K. A. Peterson, J. Chem. Phys. 125, 074110 (2006)
      Ga-Kr : Obtained from the ccRepo (grant-hill.group.shef.ac.uk/ccrepo) Feb. 2017
              A. K. Wilson, D. E. Woon, K. A. Peterson, T. H. Dunning, Jr., J. Chem. Phys. 110, 7667 (1999)
     Ag, Au : Obtained from the Peterson Research Group Website (tyr0.chem.wsu.edu/~kipeters) Feb. 2017
              K. A. Peterson, C. Puzzarini, Theor. Chem. Acc. 114, 283 (2005)

----- AuxJ basis set information -----
Your calculation utilizes the AutoAux generation procedure.
  G. L. Stoychev, A. A. Auer, F. Neese, J. Chem. Theory Comput. 13, 554 (2017)

----- AuxC basis set information -----
Your calculation utilizes the AutoAux generation procedure.
  G. L. Stoychev, A. A. Auer, F. Neese, J. Chem. Theory Comput. 13, 554 (2017)

----- AuxJK basis set information -----
Your calculation utilizes the AutoAux generation procedure.
  G. L. Stoychev, A. A. Auer, F. Neese, J. Chem. Theory Comput. 13, 554 (2017)

----- AuxX basis set information -----
Your calculation utilizes the AutoAux generation procedure.
  G. L. Stoychev, A. A. Auer, F. Neese, J. Chem. Theory Comput. 13, 554 (2017)

================================================================================
                                        WARNINGS
                       Please study these warnings very carefully!
================================================================================


WARNING: CIS/ROCIS methods need fully converged wavefunctions
  ===> : Setting SCFConvForced true
         You can overwrite this default with %scf ConvForced false 


================================================================================
                                       INPUT FILE
================================================================================
NAME = nkxas.inp
|  1> %pal nprocs 4 end
|  2> %maxcore 3000
|  3> ! CAM-B3LYP def2-TZVP AutoAux RIJCOSX DefGrid3
|  4> %basis
|  5>   NewGTO N "aug-cc-pVTZ" end
|  6> end
|  7> %tddft
|  8>   nroots 200
|  9>   OrbWin[0] = 5,10,-1,-1
| 10> end
| 11> * xyzfile -4 1 ../../01_opt/fecn6_opt_pbe0_tzvp.xyz
| 12> 
| 13>                          ****END OF INPUT****
================================================================================

                       ****************************
                       * Single Point Calculation *
                       ****************************

---------------------------------
CARTESIAN COORDINATES (ANGSTROEM)
---------------------------------
  Fe     0.000001    0.000001    0.000000
  C      1.992320   -0.000004   -0.000001
  C     -1.992317    0.000002    0.000002
  C     -0.000005    1.992321   -0.000001
  C     -0.000000   -1.992318    0.000002
  C      0.000002   -0.000002    1.992318
  C      0.000006    0.000002   -1.992319
  N      3.166046   -0.000007   -0.000004
  N     -3.166043    0.000004    0.000002
  N     -0.000013    3.166048   -0.000003
  N     -0.000001   -3.166044    0.000004
  N      0.000000   -0.000005    3.166045
  N      0.000005    0.000002   -3.166046

----------------------------
CARTESIAN COORDINATES (A.U.)
----------------------------
  NO LB      ZA    FRAG     MASS         X           Y           Z
   0 Fe   26.0000    0    55.850    0.000002    0.000002    0.000000
   1 C     6.0000    0    12.011    3.764938   -0.000007   -0.000002
   2 C     6.0000    0    12.011   -3.764934    0.000004    0.000003
   3 C     6.0000    0    12.011   -0.000009    3.764942   -0.000001
   4 C     6.0000    0    12.011   -0.000000   -3.764935    0.000004
   5 C     6.0000    0    12.011    0.000003   -0.000003    3.764935
   6 C     6.0000    0    12.011    0.000011    0.000003   -3.764937
   7 N     7.0000    0    14.007    5.982959   -0.000013   -0.000007
   8 N     7.0000    0    14.007   -5.982955    0.000007    0.000004
   9 N     7.0000    0    14.007   -0.000024    5.982963   -0.000005
  10 N     7.0000    0    14.007   -0.000002   -5.982957    0.000007
  11 N     7.0000    0    14.007    0.000001   -0.000009    5.982958
  12 N     7.0000    0    14.007    0.000009    0.000003   -5.982959

--------------------------------
INTERNAL COORDINATES (ANGSTROEM)
--------------------------------
 Fe     0   0   0     0.000000000000     0.00000000     0.00000000
 C      1   0   0     1.992318261767     0.00000000     0.00000000
 C      1   2   0     1.992318755222   179.99989449     0.00000000
 C      1   2   3     1.992320320540    90.00030639   176.08463907
 C      1   2   4     1.992318856103    89.99990346   180.00004421
 C      1   2   5     1.992318028941    90.00002332    89.99986381
 C      1   2   5     1.992318862032    89.99983068   269.99991913
 N      2   1   6     1.173726119520   179.99992353   182.76480919
 N      3   1   6     1.173726000184   179.99994479   117.62380217
 N      4   1   2     1.173726303437   179.99976173   159.22857827
 N      5   1   2     1.173726377493   179.99998099     0.00000000
 N      6   1   2     1.173726858407   179.99988695   222.45670598
 N      7   1   2     1.173726693986   179.99981964   172.72429205

---------------------------
INTERNAL COORDINATES (A.U.)
---------------------------
 Fe     0   0   0     0.000000000000     0.00000000     0.00000000
 C      1   0   0     3.764935886350     0.00000000     0.00000000
 C      1   2   0     3.764936818845   179.99989449     0.00000000
 C      1   2   3     3.764939776868    90.00030639   176.08463907
 C      1   2   4     3.764937009481    89.99990346   180.00004421
 C      1   2   5     3.764935446371    90.00002332    89.99986381
 C      1   2   5     3.764937020686    89.99983068   269.99991913
 N      2   1   6     2.218020922124   179.99992353   182.76480919
 N      3   1   6     2.218020696611   179.99994479   117.62380217
 N      4   1   2     2.218021269676   179.99976173   159.22857827
 N      5   1   2     2.218021409621   179.99998099     0.00000000
 N      6   1   2     2.218022318417   179.99988695   222.45670598
 N      7   1   2     2.218022007706   179.99981964   172.72429205

---------------------
BASIS SET INFORMATION
---------------------
There are 3 groups of distinct atoms

 Group   1 Type Fe  : 17s11p7d1f contracted to 6s4p4d1f pattern {842111/6311/4111/1}
 Group   2 Type C   : 11s6p2d1f contracted to 5s3p2d1f pattern {62111/411/11/1}
 Group   3 Type N   : 19s6p3d2f contracted to 5s4p3d2f pattern {88111/3111/111/11}

Atom   0Fe   basis set group =>   1
Atom   1C    basis set group =>   2
Atom   2C    basis set group =>   2
Atom   3C    basis set group =>   2
Atom   4C    basis set group =>   2
Atom   5C    basis set group =>   2
Atom   6C    basis set group =>   2
Atom   7N    basis set group =>   3
Atom   8N    basis set group =>   3
Atom   9N    basis set group =>   3
Atom  10N    basis set group =>   3
Atom  11N    basis set group =>   3
Atom  12N    basis set group =>   3
---------------------------------
AUXILIARY/J BASIS SET INFORMATION
---------------------------------
There are 3 groups of distinct atoms

 Group   1 Type Fe  : 21s17p16d16f12g3h contracted to 21s17p16d16f12g3h pattern {111111111111111111111/11111111111111111/1111111111111111/1111111111111111/111111111111/111}
 Group   2 Type C   : 16s13p12d7f3g contracted to 16s13p12d7f3g pattern {1111111111111111/1111111111111/111111111111/1111111/111}
 Group   3 Type N   : 16s13p12d7f5g contracted to 16s13p12d7f5g pattern {1111111111111111/1111111111111/111111111111/1111111/11111}

Atom   0Fe   basis set group =>   1
Atom   1C    basis set group =>   2
Atom   2C    basis set group =>   2
Atom   3C    basis set group =>   2
Atom   4C    basis set group =>   2
Atom   5C    basis set group =>   2
Atom   6C    basis set group =>   2
Atom   7N    basis set group =>   3
Atom   8N    basis set group =>   3
Atom   9N    basis set group =>   3
Atom  10N    basis set group =>   3
Atom  11N    basis set group =>   3
Atom  12N    basis set group =>   3
---------------------------------
AUXILIARY/C BASIS SET INFORMATION
---------------------------------
There are 3 groups of distinct atoms

 Group   1 Type Fe  : 21s17p16d16f12g3h contracted to 21s17p16d16f12g3h pattern {111111111111111111111/11111111111111111/1111111111111111/1111111111111111/111111111111/111}
 Group   2 Type C   : 16s13p12d7f3g contracted to 16s13p12d7f3g pattern {1111111111111111/1111111111111/111111111111/1111111/111}
 Group   3 Type N   : 16s13p12d7f5g contracted to 16s13p12d7f5g pattern {1111111111111111/1111111111111/111111111111/1111111/11111}

Atom   0Fe   basis set group =>   1
Atom   1C    basis set group =>   2
Atom   2C    basis set group =>   2
Atom   3C    basis set group =>   2
Atom   4C    basis set group =>   2
Atom   5C    basis set group =>   2
Atom   6C    basis set group =>   2
Atom   7N    basis set group =>   3
Atom   8N    basis set group =>   3
Atom   9N    basis set group =>   3
Atom  10N    basis set group =>   3
Atom  11N    basis set group =>   3
Atom  12N    basis set group =>   3
----------------------------------
AUXILIARY/JK BASIS SET INFORMATION
----------------------------------
There are 3 groups of distinct atoms

 Group   1 Type Fe  : 21s17p16d16f12g3h contracted to 21s17p16d16f12g3h pattern {111111111111111111111/11111111111111111/1111111111111111/1111111111111111/111111111111/111}
 Group   2 Type C   : 16s13p12d7f3g contracted to 16s13p12d7f3g pattern {1111111111111111/1111111111111/111111111111/1111111/111}
 Group   3 Type N   : 16s13p12d7f5g contracted to 16s13p12d7f5g pattern {1111111111111111/1111111111111/111111111111/1111111/11111}

Atom   0Fe   basis set group =>   1
Atom   1C    basis set group =>   2
Atom   2C    basis set group =>   2
Atom   3C    basis set group =>   2
Atom   4C    basis set group =>   2
Atom   5C    basis set group =>   2
Atom   6C    basis set group =>   2
Atom   7N    basis set group =>   3
Atom   8N    basis set group =>   3
Atom   9N    basis set group =>   3
Atom  10N    basis set group =>   3
Atom  11N    basis set group =>   3
Atom  12N    basis set group =>   3
---------------------------------
AUXILIARY/X BASIS SET INFORMATION
---------------------------------
There are 3 groups of distinct atoms

 Group   1 Type Fe  : 21s17p16d16f12g3h contracted to 21s17p16d16f12g3h pattern {111111111111111111111/11111111111111111/1111111111111111/1111111111111111/111111111111/111}
 Group   2 Type C   : 16s13p12d7f3g contracted to 16s13p12d7f3g pattern {1111111111111111/1111111111111/111111111111/1111111/111}
 Group   3 Type N   : 16s13p12d7f5g contracted to 16s13p12d7f5g pattern {1111111111111111/1111111111111/111111111111/1111111/11111}

Atom   0Fe   basis set group =>   1
Atom   1C    basis set group =>   2
Atom   2C    basis set group =>   2
Atom   3C    basis set group =>   2
Atom   4C    basis set group =>   2
Atom   5C    basis set group =>   2
Atom   6C    basis set group =>   2
Atom   7N    basis set group =>   3
Atom   8N    basis set group =>   3
Atom   9N    basis set group =>   3
Atom  10N    basis set group =>   3
Atom  11N    basis set group =>   3
Atom  12N    basis set group =>   3


           ************************************************************
           *        Program running with 4 parallel MPI-processes     *
           *              working on a common directory               *
           ************************************************************
------------------------------------------------------------------------------
                             ORCA STARTUP CALCULATIONS
                           -- RI-GTO INTEGRALS CHOSEN --
------------------------------------------------------------------------------
------------------------------------------------------------------------------
                   ___                                                        
                  /   \      - P O W E R E D   B Y -                         
                 /     \                                                     
                 |  |  |   _    _      __       _____    __    __             
                 |  |  |  | |  | |    /  \     |  _  \  |  |  /  |          
                  \  \/   | |  | |   /    \    | | | |  |  | /  /          
                 / \  \   | |__| |  /  /\  \   | |_| |  |  |/  /          
                |  |  |   |  __  | /  /__\  \  |    /   |      \           
                |  |  |   | |  | | |   __   |  |    \   |  |\   \          
                \     /   | |  | | |  |  |  |  | |\  \  |  | \   \       
                 \___/    |_|  |_| |__|  |__|  |_| \__\ |__|  \__/        
                                                                              
                      - O R C A' S   B I G   F R I E N D -                    
                                      &                                       
                       - I N T E G R A L  F E E D E R -                       
                                                                              
 v1 FN, 2020, v2 2021, v3 2022-2024                                           
------------------------------------------------------------------------------


----------------------
SHARK INTEGRAL PACKAGE
----------------------

Number of atoms                             ...     13
Number of basis functions                   ...    543
Number of shells                            ...    201
Maximum angular momentum                    ...      3
Integral batch strategy                     ... SHARK/LIBINT Hybrid
RI-J (if used) integral strategy            ... SPLIT-RIJ (Revised 2003 algorithm where possible)
Printlevel                                  ...      1
Contraction scheme used                     ... PARTIAL GENERAL contraction
Prescreening option                         ... SCHWARTZ
   Thresh                                   ... 1.000e-10
   Tcut                                     ... 1.000e-11
   Tpresel                                  ... 1.000e-11 
Coulomb Range Separation                    ... NOT USED
Exchange Range Separation                   ... Long Range
   Mu parameter                             ... 3.300e-01
   Scaling (regular/separated)              ... 1.900e-01 4.600e-01
Robust (split-)RI terms used:
  metric    (central integrals)             ... YES
  density   (r.h.s.  integrals)             ... YES
  potential (l.h.s.  integrals)             ... YES
Multipole approximations                    ... NOT USED
Finite Nucleus Model                        ... NOT USED
CABS basis                                  ... NOT available
Auxiliary Coulomb fitting basis             ... AVAILABLE
   # of basis functions in Aux-J            ...   2805
   # of shells in Aux-J                     ...    709
   Maximum angular momentum in Aux-J        ...      5
Auxiliary J/K fitting basis                 ... AVAILABLE
   # of basis functions in Aux-JK           ...   2805
   # of shells in Aux-JK                    ...    709
   Maximum angular momentum in Aux-JK       ...      5
Auxiliary Correlation fitting basis         ... AVAILABLE
   # of basis functions in Aux-C            ...   2805
   # of shells in Aux-C                     ...    709
   Maximum angular momentum in Aux-C        ...      5
Auxiliary 'external' fitting basis          ... NOT available

Checking pre-screening integrals            ... done (  0.0 sec) Dimension = 201
Save PGC pre-screening integrals            ... done (  0.0 sec) Dimension = 201
Calculate PGC overlap integrals             ... done (  0.1 sec) Dimension = 165
Calculating pre-screening integrals (ORCA)  ... done (  0.2 sec) Dimension = 165
Shell pair information
Shell pair cut-off parameter TPreSel        ...   1.0e-11
Total number of shell pairs                 ...     20301
Shell pairs after pre-screening             ...     14941
Total number of primitive shell pairs       ...     41825
Primitive shell pairs kept                  ...     25527
          la=0 lb=0:   2952 shell pairs
          la=1 lb=0:   3666 shell pairs
          la=1 lb=1:   1009 shell pairs
          la=2 lb=0:   2478 shell pairs
          la=2 lb=1:   1462 shell pairs
          la=2 lb=2:    535 shell pairs
          la=3 lb=0:   1270 shell pairs
          la=3 lb=1:    814 shell pairs
          la=3 lb=2:    592 shell pairs
          la=3 lb=3:    163 shell pairs

Checking whether 4 symmetric matrices of dimension 543 fit in memory
:Max Core in MB      =   3000.00
 MB in use           =     27.05
 MB left             =   2972.95
 MB needed           =      4.51
 Data fit in memory  = YES
Calculating RI/J V-Matrix + Cholesky decomp.... done (  1.4 sec)
Calculating RI/JK V-Matrix + Cholesky decomp.... done (  6.6 sec)
Calculating RI/C V-Matrix + Cholesky decomp.... done (  1.4 sec)
Calculating Nuclear repulsion               ... done (  0.0 sec) ENN=    890.446512275459 Eh

Diagonalization of the overlap matrix:
Smallest eigenvalue                        ... 8.339e-06
Time for diagonalization                   ...    0.090 sec
Threshold for overlap eigenvalues          ... 1.000e-07
Number of eigenvalues below threshold      ... 0
Time for construction of square roots      ...    0.053 sec
Total time needed                          ...    0.150 sec

-------------------
DFT GRID GENERATION
-------------------

General Integration Accuracy     IntAcc      ... 4.959
Radial Grid Type                 RadialGrid  ... OptM3 with GC (2021)
Angular Grid (max. ang.)         AngularGrid ... 6 (Lebedev-590)
Angular grid pruning method      GridPruning ... 4 (adaptive)
Weight generation scheme         WeightScheme... mBecke (2022)
Basis function cutoff            BFCut       ... 1.0000e-10
Integration weight cutoff        WCut        ... 1.0000e-14
Partially contracted basis set               ... off
Rotationally invariant grid construction     ... off
Angular grids for H and He will be reduced by one unit
Diffuse basis detected: some atoms will have their outermost
                        angular grid increased by 1.
Core-polarized basis detected: some atoms will have their core
                               angular grid increased.

Total number of grid points                  ...   203300
Total number of batches                      ...     3183
Average number of points per batch           ...       63
Average number of grid points per atom       ...    15638

---------------------
SHARK GRID GENERATION
---------------------

General Integration Accuracy     IntAcc      ... 4.959
Radial Grid Type                 RadialGrid  ... OptM3 with GC (2021)
Angular Grid (max. ang.)         AngularGrid ... 6 (Lebedev-590)
Angular grid pruning method      GridPruning ... 4 (adaptive)
Weight generation scheme         WeightScheme... mBecke (2022)
Basis function cutoff            BFCut       ... 1.0000e-10
Integration weight cutoff        WCut        ... 1.0000e-14
Partially contracted basis set               ... off
Rotationally invariant grid construction     ... off
Angular grids for H and He will be reduced by one unit
Diffuse basis detected: some atoms will have their outermost
                        angular grid increased by 1.
Core-polarized basis detected: some atoms will have their core
                               angular grid increased.
Steep s-basis detected: some atoms will have their radial
                        grid points doubled.

Total number of grid points                  ...   292970
Total number of batches                      ...     4584
Average number of points per batch           ...       63
Average number of grid points per atom       ...    22536

--------------------
COSX GRID GENERATION
--------------------

GRIDX 1
-------
General Integration Accuracy     IntAcc      ... 4.020
Radial Grid Type                 RadialGrid  ... OptM3 with GC (2021)
Angular Grid (max. ang.)         AngularGrid ... 2 (Lebedev-110)
Angular grid pruning method      GridPruning ... 4 (adaptive)
Weight generation scheme         WeightScheme... mBecke (2022)
Basis function cutoff            BFCut       ... 1.0000e-10
Integration weight cutoff        WCut        ... 1.0000e-14
Partially contracted basis set               ... on
Rotationally invariant grid construction     ... off
Angular grids for H and He will be reduced by one unit
Diffuse basis detected: some atoms will have their outermost
                        angular grid increased by 1.
Core-polarized basis detected: some atoms will have their core
                               angular grid increased.

Total number of grid points                  ...    29800
Total number of batches                      ...      239
Average number of points per batch           ...      124
Average number of grid points per atom       ...     2292
UseSFitting                                  ... on

GRIDX 2
-------
General Integration Accuracy     IntAcc      ... 4.338
Radial Grid Type                 RadialGrid  ... OptM3 with GC (2021)
Angular Grid (max. ang.)         AngularGrid ... 3 (Lebedev-194)
Angular grid pruning method      GridPruning ... 4 (adaptive)
Weight generation scheme         WeightScheme... mBecke (2022)
Basis function cutoff            BFCut       ... 1.0000e-10
Integration weight cutoff        WCut        ... 1.0000e-14
Partially contracted basis set               ... on
Rotationally invariant grid construction     ... off
Angular grids for H and He will be reduced by one unit
Diffuse basis detected: some atoms will have their outermost
                        angular grid increased by 1.
Core-polarized basis detected: some atoms will have their core
                               angular grid increased.

Total number of grid points                  ...    58264
Total number of batches                      ...      461
Average number of points per batch           ...      126
Average number of grid points per atom       ...     4482
UseSFitting                                  ... on

GRIDX 3
-------
General Integration Accuracy     IntAcc      ... 4.871
Radial Grid Type                 RadialGrid  ... OptM3 with GC (2021)
Angular Grid (max. ang.)         AngularGrid ... 4 (Lebedev-302)
Angular grid pruning method      GridPruning ... 4 (adaptive)
Weight generation scheme         WeightScheme... mBecke (2022)
Basis function cutoff            BFCut       ... 1.0000e-10
Integration weight cutoff        WCut        ... 1.0000e-14
Partially contracted basis set               ... on
Rotationally invariant grid construction     ... off
Angular grids for H and He will be reduced by one unit
Diffuse basis detected: some atoms will have their outermost
                        angular grid increased by 1.
Core-polarized basis detected: some atoms will have their core
                               angular grid increased.

Total number of grid points                  ...   102896
Total number of batches                      ...      810
Average number of points per batch           ...      127
Average number of grid points per atom       ...     7915
UseSFitting                                  ... on
Grids setup in  33.9 sec
Initializing property integral containers    ... done (  0.0 sec)

SHARK setup successfully completed in  44.3 seconds

Maximum memory used throughout the entire STARTUP-calculation: 93.8 MB


           ************************************************************
           *        Program running with 4 parallel MPI-processes     *
           *              working on a common directory               *
           ************************************************************
-------------------------------------------------------------------------------
                                 ORCA GUESS
                   Start orbitals & Density for SCF / CASSCF
-------------------------------------------------------------------------------

------------
SCF SETTINGS
------------
Hamiltonian:
 Density Functional     Method          .... DFT(GTOs)
 Exchange Functional    Exchange        .... WB88
 Correlation Functional Correlation     .... LYP
 LDA part of GGA corr.  LDAOpt          .... VWN-5
 Gradients option       PostSCFGGA      .... off
 Hybrid DFT is turned on
   Fraction HF Exchange ScalHFX         ....  0.190000
   Scaling of DF-GGA-X  ScalDFX         ....  0.350000
   Scaling of DF-GGA-C  ScalDFC         ....  0.810000
   Scaling of DF-LDA-C  ScalLDAC        ....  1.000000
   Perturbative correction              ....  0.000000
 Long-range corrected/Screened/Range-Separated Hybrid DFT is turned on
   Amount of maximum screened exact exchange              ....  0.460000
   Range separation parameter mu (erf(mu*r12)/r12)        ....  0.330000
 RI-approximation to the Coulomb term is turned on
   Number of AuxJ basis functions       .... 2805
   RIJ-COSX (HFX calculated with COS-X)).... on


General Settings:
 Integral files         IntName         .... nkxas
 Hartree-Fock type      HFTyp           .... RHF
 Total Charge           Charge          ....   -4
 Multiplicity           Mult            ....    1
 Number of Electrons    NEL             ....  108
 Basis Dimension        Dim             ....  507
 Nuclear Repulsion      ENuc            ....    890.4465122755 Eh

Convergence Acceleration:
 AO-DIIS                CNVDIIS         .... on
   Start iteration      DIISMaxIt       ....    12
   Startup error        DIISStart       ....  0.200000
   # of expansion vecs  DIISMaxEq       ....     5
   Bias factor          DIISBfac        ....   1.050
   Max. coefficient     DIISMaxC        ....  10.000
 MO-DIIS                CNVKDIIS        .... off
 Trust-Rad. Augm. Hess. CNVTRAH         .... auto
   Auto Start mean grad. ratio tolernc. ....  1.125000
   Auto Start start iteration           ....    50
   Auto Start num. interpolation iter.  ....    10
   Max. Number of Micro iterations      ....    24
   Max. Number of Macro iterations      .... Maxiter - #DIIS iter
   Number of Davidson start vectors     ....     2
   Converg. threshold    (grad. norm)   ....   5.000e-05
   Grad. Scal. Fac. for Micro threshold ....   0.100
   Minimum threshold for Micro iter.    ....   1.000e-02
   NR start threshold (gradient norm)   ....   1.000e-04
   Initial trust radius                 ....   0.400
   Minimum AH scaling param. (alpha)    ....   1.000
   Maximum AH scaling param. (alpha)    .... 1000.000
   Quad. conv. algorithm                .... NR
   White noise on init. David. guess    .... on
   Maximum white noise                  ....   0.010
   Pseudo random numbers                .... off
   Inactive MOs                         .... canonical
   Orbital update algorithm             .... Taylor
   Preconditioner                       .... Diag
   Full preconditioner red. dimension   ....   250
 SOSCF                 CNVSOSCF           .... on
   Start iteration     SOSCFMaxIt         ....   150
   Startup grad/error  SOSCFStart         ....  0.003300
   Hessian update      SOSCFHessUp        .... L-BFGS
   Autom. constraints  SOSCFAutoConstrain .... off
 Level Shifting         CNVShift        .... on
   Level shift para.    LevelShift      ....    0.2500
   Turn off err/grad.   ShiftErr        ....    0.0010
 Zerner damping         CNVZerner       .... off
 Static damping         CNVDamp         .... on
   Fraction old density DampFac         ....    0.7000
   Max. Damping (<1)    DampMax         ....    0.9800
   Min. Damping (>=0)   DampMin         ....    0.0000
   Turn off err/grad.   DampErr         ....    0.1000

SCF Procedure:
 Maximum # iterations   MaxIter         ....   125
 SCF integral mode      SCFMode         .... Direct
   Integral package                     .... SHARK and LIBINT hybrid scheme
 Reset frequency        DirectResetFreq ....    20
 Integral Threshold     Thresh          ....  1.000e-10 Eh
 Primitive CutOff       TCut            ....  1.000e-11 Eh

Convergence Tolerance:
 Convergence Check Mode ConvCheckMode   .... Total+1el-Energy
 Convergence forced     ConvForced      .... 1
 Energy Change          TolE            ....  1.000e-06 Eh
 1-El. energy change                    ....  1.000e-03 Eh
 Orbital Gradient       TolG            ....  5.000e-05
 Orbital Rotation angle TolX            ....  5.000e-05
 DIIS Error             TolErr          ....  1.000e-06

------------------------------
INITIAL GUESS: MODEL POTENTIAL
------------------------------
Loading Hartree-Fock densities                     ... done
Calculating cut-offs                               ... done
Initializing the effective Hamiltonian             ... done
Setting up the integral package (SHARK)            ... done
Starting the Coulomb interaction                   ... done (   0.5 sec)
Making the grid                                    ... done (   0.3 sec)
Mapping shells                                     ... done
Starting the XC term evaluation                    ... done (   1.1 sec)
  promolecular density results
     # of electrons  =    104.003826316
     EX              =   -123.477576777
     EC              =     -3.668747558
     EX+EC           =   -127.146324335
Transforming the Hamiltonian                       ... done (   0.1 sec)
Diagonalizing the Hamiltonian                      ... done (   0.1 sec)
Back transforming the eigenvectors                 ... done (   0.0 sec)
Now organizing SCF variables                       ... done
                      ------------------
                      INITIAL GUESS DONE (   2.1 sec)
                      ------------------
             **** ENERGY FILE WAS UPDATED (nkxas.en.tmp) ****
Finished Guess after   3.0 sec
Maximum memory used throughout the entire GUESS-calculation: 41.9 MB


           ************************************************************
           *        Program running with 4 parallel MPI-processes     *
           *              working on a common directory               *
           ************************************************************

-------------------------------------------------------------------------------------------
                                      ORCA LEAN-SCF
                              memory conserving SCF solver
-------------------------------------------------------------------------------------------

----------------------------------------D-I-I-S--------------------------------------------
Iteration    Energy (Eh)           Delta-E    RMSDP     MaxDP     DIISErr   Damp  Time(sec)
-------------------------------------------------------------------------------------------
               ***  Starting incremental Fock matrix formation  ***
    1    -1819.8604381879858920     0.00e+00  4.06e-03  6.40e-02  2.29e-01  0.700  62.1
Warning: op=0 Small HOMO/LUMO gap (   0.021) - skipping pre-diagonalization
         Will do a full diagonalization
    2    -1820.1043786358918624    -2.44e-01  3.30e-03  7.09e-02  1.18e-01  0.700  32.7
                               ***Turning on AO-DIIS***
    3    -1820.2366357285814047    -1.32e-01  1.90e-03  3.77e-02  5.07e-02  0.700  34.6
    4    -1820.3154142784756004    -7.88e-02  3.56e-03  7.61e-02  3.28e-02  0.000  46.0
    5    -1820.4892864876433123    -1.74e-01  6.08e-04  1.73e-02  2.20e-02  0.000  34.5
    6    -1820.4906883938410829    -1.40e-03  1.94e-04  6.52e-03  1.80e-02  0.000  31.4
    7    -1820.4914413052570126    -7.53e-04  2.48e-04  6.25e-03  6.36e-03  0.000  31.8
    8    -1820.4917159720394011    -2.75e-04  1.47e-04  3.99e-03  6.88e-03  0.000  25.9
                              *** Initializing SOSCF ***
---------------------------------------S-O-S-C-F--------------------------------------
Iteration    Energy (Eh)           Delta-E    RMSDP     MaxDP     MaxGrad    Time(sec)
--------------------------------------------------------------------------------------
    9    -1820.4918442766693261    -1.28e-04  1.81e-04  6.22e-03  9.53e-04    26.2
               *** Restarting incremental Fock matrix formation ***
   10    -1820.4918742210929850    -2.99e-05  2.64e-04  7.89e-03  4.13e-04    62.9
   11    -1820.4918726722507927     1.55e-06  3.16e-04  1.04e-02  7.96e-04    47.0
   12    -1820.4918795079283882    -6.84e-06  2.59e-04  6.48e-03  1.94e-04    47.8
   13    -1820.4918800396835650    -5.32e-07  1.75e-04  5.68e-03  1.44e-04    57.4
                 **** Energy Check signals convergence ****

               *****************************************************
               *                     SUCCESS                       *
               *           SCF CONVERGED AFTER  13 CYCLES          *
               *****************************************************

Recomputing exchange energy using gridx3       ... done (   77.318 sec)
Old exchange energy                            :    -32.273598526 Eh
New exchange energy                            :    -32.273650356 Eh
Exchange energy change after final integration :     -0.000051830 Eh
Total energy after final integration           :  -1820.491932106 Eh
             **** ENERGY FILE WAS UPDATED (nkxas.en.tmp) ****

----------------
TOTAL SCF ENERGY
----------------

Total Energy       :      -1820.49193210622798 Eh          -49538.10394 eV

Components:
Nuclear Repulsion  :        890.44651227545910 Eh           24230.28144 eV
Electronic Energy  :      -2710.93839255136390 Eh          -73768.38397 eV
One Electron Energy:      -4335.48114083318887 Eh         -117974.43955 eV
Two Electron Energy:       1624.54274828182520 Eh           44206.05557 eV

Virial components:
Potential Energy   :      -3636.24086943036536 Eh          -98947.14443 eV
Kinetic Energy     :       1815.74893732413739 Eh           49409.04049 eV
Virial Ratio       :          2.00261214239733

DFT components:
N(Alpha)           :       54.000402791389 electrons
N(Beta)            :       54.000402791389 electrons
N(Total)           :      108.000805582778 electrons
E(XC)              :      -97.546874180510 Eh       

---------------
SCF CONVERGENCE
---------------

  Last Energy change         ...    5.3176e-07  Tolerance :   1.0000e-06
  Last MAX-Density change    ...    5.6840e-03  Tolerance :   1.0000e-05
  Last RMS-Density change    ...    1.7527e-04  Tolerance :   1.0000e-06
  Last DIIS Error            ...    9.5298e-04  Tolerance :   1.0000e-06
  Last Orbital Gradient      ...    1.4408e-04  Tolerance :   5.0000e-05
  Last Orbital Rotation      ...    1.3452e-04  Tolerance :   5.0000e-05


----------------
ORBITAL ENERGIES
----------------

  NO   OCC          E(Eh)            E(eV) 
   0   2.0000    -255.580734     -6954.7053 
   1   2.0000     -29.529821      -803.5473 
   2   2.0000     -25.391611      -690.9409 
   3   2.0000     -25.391611      -690.9409 
   4   2.0000     -25.391611      -690.9409 
   5   2.0000     -13.826765      -376.2454 
   6   2.0000     -13.826765      -376.2454 
   7   2.0000     -13.826763      -376.2454 
   8   2.0000     -13.826763      -376.2454 
   9   2.0000     -13.826763      -376.2454 
  10   2.0000     -13.826762      -376.2453 
  11   2.0000      -9.715389      -264.3692 
  12   2.0000      -9.715383      -264.3690 
  13   2.0000      -9.715383      -264.3690 
  14   2.0000      -9.715363      -264.3685 
  15   2.0000      -9.715363      -264.3685 
  16   2.0000      -9.715363      -264.3685 
  17   2.0000      -2.942089       -80.0583 
  18   2.0000      -1.712398       -46.5967 
  19   2.0000      -1.712398       -46.5967 
  20   2.0000      -1.712398       -46.5967 
  21   2.0000      -0.421928       -11.4812 
  22   2.0000      -0.418659       -11.3923 
  23   2.0000      -0.418659       -11.3923 
  24   2.0000      -0.418659       -11.3923 
  25   2.0000      -0.417426       -11.3587 
  26   2.0000      -0.417426       -11.3587 
  27   2.0000      -0.036305        -0.9879 
  28   2.0000       0.040019         1.0890 
  29   2.0000       0.040019         1.0890 
  30   2.0000       0.040019         1.0890 
  31   2.0000       0.049178         1.3382 
  32   2.0000       0.049178         1.3382 
  33   2.0000       0.102321         2.7843 
  34   2.0000       0.114899         3.1266 
  35   2.0000       0.114899         3.1266 
  36   2.0000       0.114899         3.1266 
  37   2.0000       0.119315         3.2467 
  38   2.0000       0.119315         3.2467 
  39   2.0000       0.119316         3.2467 
  40   2.0000       0.139339         3.7916 
  41   2.0000       0.139339         3.7916 
  42   2.0000       0.148759         4.0479 
  43   2.0000       0.148759         4.0479 
  44   2.0000       0.148759         4.0479 
  45   2.0000       0.160148         4.3579 
  46   2.0000       0.160148         4.3579 
  47   2.0000       0.160148         4.3579 
  48   2.0000       0.178290         4.8515 
  49   2.0000       0.178291         4.8515 
  50   2.0000       0.178291         4.8515 
  51   2.0000       0.257237         6.9998 
  52   2.0000       0.257237         6.9998 
  53   2.0000       0.257237         6.9998 
  54   0.0000       0.431287        11.7359 
  55   0.0000       0.457576        12.4513 
  56   0.0000       0.457648        12.4532 
  57   0.0000       0.459683        12.5086 
  58   0.0000       0.459686        12.5087 
  59   0.0000       0.459687        12.5087 
  60   0.0000       0.511186        13.9101 
  61   0.0000       0.511187        13.9101 
  62   0.0000       0.511188        13.9101 
  63   0.0000       0.530408        14.4331 
  64   0.0000       0.530409        14.4332 
*Only the first 10 virtual orbitals were printed.

                    ********************************
                    * MULLIKEN POPULATION ANALYSIS *
                    ********************************

-----------------------
MULLIKEN ATOMIC CHARGES
-----------------------
   0 Fe:   -0.255604
   1 C :    0.267781
   2 C :    0.267411
   3 C :    0.267996
   4 C :    0.268362
   5 C :    0.268340
   6 C :    0.268573
   7 N :   -0.892166
   8 N :   -0.892068
   9 N :   -0.892258
  10 N :   -0.892069
  11 N :   -0.892208
  12 N :   -0.892092
Sum of atomic charges:   -4.0000000

--------------------------------
MULLIKEN REDUCED ORBITAL CHARGES
--------------------------------
  0 Fes       :     6.934487  s :     6.934487
      pz      :     4.232702  p :    12.698109
      px      :     4.232702
      py      :     4.232705
      dz2     :     0.538437  d :     6.621713
      dxz     :     1.848034
      dyz     :     1.848038
      dx2y2   :     0.539166
      dxy     :     1.848037
      f0      :     0.000388  f :     0.001294
      f+1     :     0.000173
      f-1     :     0.000173
      f+2     :     0.000044
      f-2     :     0.000000
      f+3     :     0.000259
      f-3     :     0.000259

  1 C s       :     3.318504  s :     3.318504
      pz      :     0.704978  p :     2.338439
      px      :     0.928486
      py      :     0.704975
      dz2     :     0.002382  d :     0.065086
      dxz     :     0.029323
      dyz     :     0.000619
      dx2y2   :     0.003438
      dxy     :     0.029323
      f0      :     0.001554  f :     0.010191
      f+1     :     0.000710
      f-1     :     0.000268
      f+2     :     0.002595
      f-2     :     0.000047
      f+3     :     0.001136
      f-3     :     0.003881

  2 C s       :     3.318591  s :     3.318591
      pz      :     0.704978  p :     2.338718
      px      :     0.928767
      py      :     0.704973
      dz2     :     0.002382  d :     0.065088
      dxz     :     0.029324
      dyz     :     0.000619
      dx2y2   :     0.003440
      dxy     :     0.029323
      f0      :     0.001554  f :     0.010191
      f+1     :     0.000710
      f-1     :     0.000268
      f+2     :     0.002595
      f-2     :     0.000047
      f+3     :     0.001136
      f-3     :     0.003881

  3 C s       :     3.318780  s :     3.318780
      pz      :     0.704980  p :     2.337943
      px      :     0.704980
      py      :     0.927983
      dz2     :     0.002382  d :     0.065090
      dxz     :     0.000619
      dyz     :     0.029324
      dx2y2   :     0.003442
      dxy     :     0.029324
      f0      :     0.001554  f :     0.010191
      f+1     :     0.000268
      f-1     :     0.000710
      f+2     :     0.002595
      f-2     :     0.000047
      f+3     :     0.003881
      f-3     :     0.001136

  4 C s       :     3.317855  s :     3.317855
      pz      :     0.704976  p :     2.338504
      px      :     0.704977
      py      :     0.928551
      dz2     :     0.002382  d :     0.065088
      dxz     :     0.000619
      dyz     :     0.029324
      dx2y2   :     0.003439
      dxy     :     0.029324
      f0      :     0.001554  f :     0.010191
      f+1     :     0.000268
      f-1     :     0.000710
      f+2     :     0.002595
      f-2     :     0.000047
      f+3     :     0.003881
      f-3     :     0.001136

  5 C s       :     3.318185  s :     3.318185
      pz      :     0.928234  p :     2.338196
      px      :     0.704982
      py      :     0.704980
      dz2     :     0.003969  d :     0.065087
      dxz     :     0.029324
      dyz     :     0.029324
      dx2y2   :     0.001851
      dxy     :     0.000619
      f0      :     0.001774  f :     0.010191
      f+1     :     0.004141
      f-1     :     0.004141
      f+2     :     0.000072
      f-2     :     0.000047
      f+3     :     0.000008
      f-3     :     0.000008

  6 C s       :     3.317746  s :     3.317746
      pz      :     0.928467  p :     2.338406
      px      :     0.704969
      py      :     0.704971
      dz2     :     0.003967  d :     0.065084
      dxz     :     0.029324
      dyz     :     0.029323
      dx2y2   :     0.001851
      dxy     :     0.000619
      f0      :     0.001774  f :     0.010191
      f+1     :     0.004141
      f-1     :     0.004141
      f+2     :     0.000072
      f-2     :     0.000047
      f+3     :     0.000008
      f-3     :     0.000008

  7 N s       :     3.887155  s :     3.887155
      pz      :     1.297990  p :     3.949156
      px      :     1.353176
      py      :     1.297990
      dz2     :     0.005801  d :     0.052493
      dxz     :     0.014584
      dyz     :     0.000000
      dx2y2   :     0.017523
      dxy     :     0.014584
      f0      :     0.000471  f :     0.003362
      f+1     :     0.000326
      f-1     :     0.000075
      f+2     :     0.000766
      f-2     :    -0.000002
      f+3     :     0.000564
      f-3     :     0.001163

  8 N s       :     3.887125  s :     3.887125
      pz      :     1.297986  p :     3.949095
      px      :     1.353117
      py      :     1.297992
      dz2     :     0.005799  d :     0.052486
      dxz     :     0.014584
      dyz     :     0.000000
      dx2y2   :     0.017518
      dxy     :     0.014585
      f0      :     0.000471  f :     0.003362
      f+1     :     0.000326
      f-1     :     0.000075
      f+2     :     0.000766
      f-2     :    -0.000002
      f+3     :     0.000564
      f-3     :     0.001163

  9 N s       :     3.887146  s :     3.887146
      pz      :     1.297986  p :     3.949254
      px      :     1.297988
      py      :     1.353280
      dz2     :     0.005802  d :     0.052495
      dxz     :     0.000000
      dyz     :     0.014584
      dx2y2   :     0.017526
      dxy     :     0.014584
      f0      :     0.000471  f :     0.003362
      f+1     :     0.000075
      f-1     :     0.000326
      f+2     :     0.000766
      f-2     :    -0.000002
      f+3     :     0.001163
      f-3     :     0.000564

 10 N s       :     3.887107  s :     3.887107
      pz      :     1.297988  p :     3.949098
      px      :     1.297988
      py      :     1.353122
      dz2     :     0.005803  d :     0.052501
      dxz     :     0.000000
      dyz     :     0.014584
      dx2y2   :     0.017529
      dxy     :     0.014584
      f0      :     0.000471  f :     0.003362
      f+1     :     0.000075
      f-1     :     0.000326
      f+2     :     0.000766
      f-2     :    -0.000002
      f+3     :     0.001163
      f-3     :     0.000564

 11 N s       :     3.887162  s :     3.887162
      pz      :     1.353224  p :     3.949195
      px      :     1.297985
      py      :     1.297986
      dz2     :     0.023382  d :     0.052490
      dxz     :     0.014583
      dyz     :     0.014583
      dx2y2   :    -0.000060
      dxy     :     0.000000
      f0      :     0.000920  f :     0.003362
      f+1     :     0.001236
      f-1     :     0.001236
      f+2     :    -0.000030
      f-2     :    -0.000002
      f+3     :     0.000001
      f-3     :     0.000001

 12 N s       :     3.887111  s :     3.887111
      pz      :     1.353136  p :     3.949123
      px      :     1.297994
      py      :     1.297993
      dz2     :     0.023385  d :     0.052495
      dxz     :     0.014585
      dyz     :     0.014585
      dx2y2   :    -0.000060
      dxy     :     0.000000
      f0      :     0.000920  f :     0.003362
      f+1     :     0.001237
      f-1     :     0.001237
      f+2     :    -0.000030
      f-2     :    -0.000002
      f+3     :     0.000001
      f-3     :     0.000001



                     *******************************
                     * LOEWDIN POPULATION ANALYSIS *
                     *******************************

----------------------
LOEWDIN ATOMIC CHARGES
----------------------
   0 Fe:   -0.492370
   1 C :   -0.004587
   2 C :   -0.004588
   3 C :   -0.004587
   4 C :   -0.004586
   5 C :   -0.004586
   6 C :   -0.004585
   7 N :   -0.580018
   8 N :   -0.580017
   9 N :   -0.580019
  10 N :   -0.580018
  11 N :   -0.580019
  12 N :   -0.580019

-------------------------------
LOEWDIN REDUCED ORBITAL CHARGES
-------------------------------
  0 Fes       :     6.192365  s :     6.192365
      pz      :     4.274569  p :    12.823707
      px      :     4.274569
      py      :     4.274569
      dz2     :     0.986778  d :     7.473615
      dxz     :     1.833352
      dyz     :     1.833352
      dx2y2   :     0.986780
      dxy     :     1.833353
      f0      :     0.000821  f :     0.002684
      f+1     :     0.000354
      f-1     :     0.000354
      f+2     :     0.000074
      f-2     :     0.000000
      f+3     :     0.000541
      f-3     :     0.000541

  1 C s       :     2.942378  s :     2.942378
      pz      :     0.698865  p :     2.639990
      px      :     1.242260
      py      :     0.698865
      dz2     :     0.035268  d :     0.363839
      dxz     :     0.113543
      dyz     :     0.001422
      dx2y2   :     0.100063
      dxy     :     0.113543
      f0      :     0.007080  f :     0.058379
      f+1     :     0.007839
      f-1     :     0.001155
      f+2     :     0.011601
      f-2     :     0.000244
      f+3     :     0.012934
      f-3     :     0.017526

  2 C s       :     2.942378  s :     2.942378
      pz      :     0.698865  p :     2.639992
      px      :     1.242262
      py      :     0.698865
      dz2     :     0.035268  d :     0.363839
      dxz     :     0.113543
      dyz     :     0.001422
      dx2y2   :     0.100063
      dxy     :     0.113543
      f0      :     0.007080  f :     0.058379
      f+1     :     0.007839
      f-1     :     0.001155
      f+2     :     0.011601
      f-2     :     0.000244
      f+3     :     0.012934
      f-3     :     0.017526

  3 C s       :     2.942380  s :     2.942380
      pz      :     0.698865  p :     2.639989
      px      :     0.698865
      py      :     1.242259
      dz2     :     0.035268  d :     0.363839
      dxz     :     0.001422
      dyz     :     0.113543
      dx2y2   :     0.100062
      dxy     :     0.113543
      f0      :     0.007080  f :     0.058379
      f+1     :     0.001155
      f-1     :     0.007839
      f+2     :     0.011601
      f-2     :     0.000244
      f+3     :     0.017526
      f-3     :     0.012934

  4 C s       :     2.942377  s :     2.942377
      pz      :     0.698865  p :     2.639991
      px      :     0.698865
      py      :     1.242261
      dz2     :     0.035268  d :     0.363839
      dxz     :     0.001422
      dyz     :     0.113543
      dx2y2   :     0.100063
      dxy     :     0.113543
      f0      :     0.007080  f :     0.058379
      f+1     :     0.001155
      f-1     :     0.007839
      f+2     :     0.011601
      f-2     :     0.000244
      f+3     :     0.017526
      f-3     :     0.012934

  5 C s       :     2.942378  s :     2.942378
      pz      :     1.242260  p :     2.639990
      px      :     0.698865
      py      :     0.698865
      dz2     :     0.132460  d :     0.363839
      dxz     :     0.113543
      dyz     :     0.113543
      dx2y2   :     0.002871
      dxy     :     0.001422
      f0      :     0.020577  f :     0.058379
      f+1     :     0.018656
      f-1     :     0.018656
      f+2     :     0.000196
      f-2     :     0.000244
      f+3     :     0.000025
      f-3     :     0.000025

  6 C s       :     2.942377  s :     2.942377
      pz      :     1.242260  p :     2.639990
      px      :     0.698865
      py      :     0.698865
      dz2     :     0.132460  d :     0.363839
      dxz     :     0.113543
      dyz     :     0.113543
      dx2y2   :     0.002871
      dxy     :     0.001422
      f0      :     0.020577  f :     0.058379
      f+1     :     0.018656
      f-1     :     0.018656
      f+2     :     0.000196
      f-2     :     0.000244
      f+3     :     0.000025
      f-3     :     0.000025

  7 N s       :     3.359852  s :     3.359852
      pz      :     1.186563  p :     3.945164
      px      :     1.572039
      py      :     1.186563
      dz2     :     0.031792  d :     0.195849
      dxz     :     0.034842
      dyz     :     0.000047
      dx2y2   :     0.094325
      dxy     :     0.034842
      f0      :     0.007342  f :     0.079154
      f+1     :     0.015086
      f-1     :     0.001201
      f+2     :     0.012126
      f-2     :     0.000005
      f+3     :     0.025127
      f-3     :     0.018267

  8 N s       :     3.359851  s :     3.359851
      pz      :     1.186563  p :     3.945164
      px      :     1.572039
      py      :     1.186563
      dz2     :     0.031792  d :     0.195849
      dxz     :     0.034842
      dyz     :     0.000047
      dx2y2   :     0.094325
      dxy     :     0.034842
      f0      :     0.007342  f :     0.079154
      f+1     :     0.015086
      f-1     :     0.001201
      f+2     :     0.012126
      f-2     :     0.000005
      f+3     :     0.025127
      f-3     :     0.018267

  9 N s       :     3.359852  s :     3.359852
      pz      :     1.186563  p :     3.945165
      px      :     1.186563
      py      :     1.572039
      dz2     :     0.031792  d :     0.195848
      dxz     :     0.000047
      dyz     :     0.034842
      dx2y2   :     0.094325
      dxy     :     0.034842
      f0      :     0.007342  f :     0.079154
      f+1     :     0.001201
      f-1     :     0.015086
      f+2     :     0.012126
      f-2     :     0.000005
      f+3     :     0.018267
      f-3     :     0.025127

 10 N s       :     3.359851  s :     3.359851
      pz      :     1.186563  p :     3.945164
      px      :     1.186563
      py      :     1.572038
      dz2     :     0.031792  d :     0.195849
      dxz     :     0.000047
      dyz     :     0.034842
      dx2y2   :     0.094325
      dxy     :     0.034842
      f0      :     0.007342  f :     0.079154
      f+1     :     0.001201
      f-1     :     0.015086
      f+2     :     0.012126
      f-2     :     0.000005
      f+3     :     0.018267
      f-3     :     0.025127

 11 N s       :     3.359852  s :     3.359852
      pz      :     1.572039  p :     3.945165
      px      :     1.186563
      py      :     1.186563
      dz2     :     0.125591  d :     0.195848
      dxz     :     0.034842
      dyz     :     0.034842
      dx2y2   :     0.000526
      dxy     :     0.000047
      f0      :     0.040190  f :     0.079154
      f+1     :     0.019464
      f-1     :     0.019464
      f+2     :     0.000023
      f-2     :     0.000005
      f+3     :     0.000004
      f-3     :     0.000004

 12 N s       :     3.359851  s :     3.359851
      pz      :     1.572039  p :     3.945165
      px      :     1.186563
      py      :     1.186563
      dz2     :     0.125591  d :     0.195849
      dxz     :     0.034842
      dyz     :     0.034842
      dx2y2   :     0.000526
      dxy     :     0.000047
      f0      :     0.040190  f :     0.079154
      f+1     :     0.019464
      f-1     :     0.019464
      f+2     :     0.000023
      f-2     :     0.000005
      f+3     :     0.000004
      f-3     :     0.000004



                      *****************************
                      * MAYER POPULATION ANALYSIS *
                      *****************************

  NA   - Mulliken gross atomic population
  ZA   - Total nuclear charge
  QA   - Mulliken gross atomic charge
  VA   - Mayer's total valence
  BVA  - Mayer's bonded valence
  FA   - Mayer's free valence

  ATOM       NA         ZA         QA         VA         BVA        FA
  0 Fe    26.2556    26.0000    -0.2556     5.0821     5.0821     0.0000
  1 C      5.7322     6.0000     0.2678     3.0629     3.0629     0.0000
  2 C      5.7326     6.0000     0.2674     3.0621     3.0621     0.0000
  3 C      5.7320     6.0000     0.2680     3.0630     3.0630     0.0000
  4 C      5.7316     6.0000     0.2684     3.0632     3.0632     0.0000
  5 C      5.7317     6.0000     0.2683     3.0613     3.0613     0.0000
  6 C      5.7314     6.0000     0.2686     3.0615     3.0615     0.0000
  7 N      7.8922     7.0000    -0.8922     2.6342     2.6342     0.0000
  8 N      7.8921     7.0000    -0.8921     2.6343     2.6343     0.0000
  9 N      7.8923     7.0000    -0.8923     2.6340     2.6340     0.0000
 10 N      7.8921     7.0000    -0.8921     2.6344     2.6344     0.0000
 11 N      7.8922     7.0000    -0.8922     2.6342     2.6342     0.0000
 12 N      7.8921     7.0000    -0.8921     2.6344     2.6344     0.0000

  Mayer bond orders larger than 0.100000
B(  0-Fe,  1-C ) :   0.7601 B(  0-Fe,  2-C ) :   0.7597 B(  0-Fe,  3-C ) :   0.7600 
B(  0-Fe,  4-C ) :   0.7599 B(  0-Fe,  5-C ) :   0.7594 B(  0-Fe,  6-C ) :   0.7594 
B(  1-C ,  7-N ) :   2.5862 B(  2-C ,  8-N ) :   2.5863 B(  3-C ,  9-N ) :   2.5862 
B(  4-C , 10-N ) :   2.5864 B(  5-C , 11-N ) :   2.5862 B(  6-C , 12-N ) :   2.5863 


-------
TIMINGS
-------

Total SCF time: 0 days 0 hours 10 min 59 sec 

Total time                  ....     659.862 sec
Sum of individual times     ....     619.232 sec  ( 93.8%)

SCF preparation             ....       0.506 sec  (  0.1%)
Fock matrix formation       ....     609.199 sec  ( 92.3%)
  Startup                   ....       0.153 sec  (  0.0% of F)
  Split-RI-J                ....      62.706 sec  ( 10.3% of F)
  Chain of spheres X        ....     475.490 sec  ( 78.1% of F)
  XC integration            ....     109.917 sec  ( 18.0% of F)
    XC Preparation          ....       0.000 sec  (  0.0% of XC)
    Basis function eval.    ....      18.974 sec  ( 17.3% of XC)
    Density eval.           ....      53.328 sec  ( 48.5% of XC)
    XC-Functional eval.     ....       2.156 sec  (  2.0% of XC)
    XC-Potential eval.      ....      27.487 sec  ( 25.0% of XC)
Diagonalization             ....       0.000 sec  (  0.0%)
Density matrix formation    ....       0.965 sec  (  0.1%)
Total Energy calculation    ....       0.296 sec  (  0.0%)
Population analysis         ....       0.607 sec  (  0.1%)
Orbital Transformation      ....       0.988 sec  (  0.1%)
Orbital Orthonormalization  ....       0.000 sec  (  0.0%)
DIIS solution               ....       4.317 sec  (  0.7%)
SOSCF solution              ....       2.275 sec  (  0.3%)
Finished LeanSCF after 660.3 sec

Maximum memory used throughout the entire LEANSCF-calculation: 64.0 MB


           ************************************************************
           *        Program running with 4 parallel MPI-processes     *
           *              working on a common directory               *
           ************************************************************

------------------------------------------------------------------------------
                         ORCA PROPERTY INTEGRAL CALCULATIONS
------------------------------------------------------------------------------

GBWName                                   ... nkxas.gbw
Number of atoms                           ...     13
Number of basis functions                 ...    543
Max core memory                           ...   3000 MB

Dipole integrals                          ... YES
Quadrupole integrals                      ...  NO
Linear momentum integrals                 ... YES
Angular momentum integrals                ... YES
Higher moments length integrals           ...  NO
Higher moments velocity integrals         ...  NO
Kinetic energy integrals                  ...  NO
GIAO right hand sides                     ...  NO
GIAO dipole derivative integrals          ...  NO
SOC integrals                             ...  NO
EPR diamagnetic integrals (GIAO)          ...  NO
EPR gauge integrals                       ...  NO
Field gradient integrals                  ...  NO (   0 nuclei)
Spin-dipole/Fermi contact integrals       ...  NO (   0 nuclei)
Contact density integrals                 ...  NO (   0 nuclei)
Nucleus-orbit integrals                   ...  NO (   0 nuclei)
Geometric perturbations                   ...  NO (  13 nuclei)

Choice of electric origin   ... Center of mass
Position of electric origin ... (  0.0000,  0.0000, -0.0000) 
Choice of magnetic origin   ... GIAO
Position of magnetic origin ... (  0.0000,  0.0000,  0.0000) 

Calculating integrals                     ... Electric Dipole (Length)     done (  0.1 sec)
Calculating integrals                     ... Linear Momentum              done (  0.1 sec)
Calculating integrals                     ... Angular Momentum  (ElOri)    done (  0.1 sec)

Property integrals calculated in   0.4 sec

Maximum memory used throughout the entire PROPINT-calculation: 49.2 MB


           ************************************************************
           *        Program running with 4 parallel MPI-processes     *
           *              working on a common directory               *
           ************************************************************
------------------------------------------------------------------------------
                        ORCA TD-DFT/TDA CALCULATION
------------------------------------------------------------------------------

Input orbitals are from        ... nkxas.gbw
CI-vector output               ... nkxas.cis
Solver                         ... FN-2001
Tamm-Dancoff approximation     ... operative
CIS-Integral strategy          ... AO-integrals
Integral handling              ... AO integral Direct
Max. core memory used          ... 3000 MB
Reference state                ... RHF
Generation of triplets         ... off
Follow IRoot                   ... off
Number of operators            ... 1
Orbital ranges used for CIS calculation:
 Operator 0:  Orbitals   5... 10  to  54...506
XAS localization array:
 Operator 0:  Orbitals  -1... -1

-------------------
XC-INTEGRATION GRID
-------------------

General Integration Accuracy     IntAcc      ... 3.467
Radial Grid Type                 RadialGrid  ... OptM3 with GC (2021)
Angular Grid (max. ang.)         AngularGrid ... 3 (Lebedev-194)
Angular grid pruning method      GridPruning ... 4 (adaptive)
Weight generation scheme         WeightScheme... mBecke (2022)
Basis function cutoff            BFCut       ... 1.0000e-10
Integration weight cutoff        WCut        ... 1.0000e-14
Partially contracted basis set               ... off
Rotationally invariant grid construction     ... off
Angular grids for H and He will be reduced by one unit
Diffuse basis detected: some atoms will have their outermost
                        angular grid increased by 1.
Core-polarized basis detected: some atoms will have their core
                               angular grid increased.

Total number of grid points                  ...    35524
Total number of batches                      ...      561
Average number of points per batch           ...       63
Average number of grid points per atom       ...     2733

---------------------
COSX-INTEGRATION GRID
---------------------

General Integration Accuracy     IntAcc      ... 3.067
Radial Grid Type                 RadialGrid  ... OptM3 with GC (2021)
Angular Grid (max. ang.)         AngularGrid ... 2 (Lebedev-110)
Angular grid pruning method      GridPruning ... 4 (adaptive)
Weight generation scheme         WeightScheme... mBecke (2022)
Basis function cutoff            BFCut       ... 1.0000e-10
Integration weight cutoff        WCut        ... 1.0000e-14
Partially contracted basis set               ... on
Rotationally invariant grid construction     ... off
Angular grids for H and He will be reduced by one unit
Diffuse basis detected: some atoms will have their outermost
                        angular grid increased by 1.
Core-polarized basis detected: some atoms will have their core
                               angular grid increased.

Total number of grid points                  ...    17912
Total number of batches                      ...      145
Average number of points per batch           ...      123
Average number of grid points per atom       ...     1378

---------------
TD-DFT XC SETUP
---------------

DFT calculation                         ... on
Name of the grid file                   ... nkxas.grid_cis.tmp
RI-approximation                        ... on
Aux-basis dimension                     ... 2805
Exchange functional (TD-DFT)            ... WB88
Correlation functional (TD-DFT)         ... LYP
 LDA part of GGA corr.  LDAOpt (TD-DFT) ... VWN-5
Hybrid DFT                              ... on
   Exchange mixing (TD-DFT)             ...  0.190
   GGA exch. scaling (TD-DFT)           ...  0.350
   GGA corr. scaling (TD-DFT)           ...  0.810
Range-Separated Exchange                ... on
   Range Range separation parameter mu  .... 0.330
   Max. amount of RS exchange (TD-DFT)  ...  0.460

Building densities             ... done
Calculating rho(r) on the grid ... done
Building xc-kernel on the grid ... done
                    *** TD-DFT CALCULATION INITIALIZED ***

------------------------
DAVIDSON-DIAGONALIZATION
------------------------

Dimension of the eigenvalue problem            ...   2718
Number of roots to be determined               ...    200
Maximum size of the expansion space            ...   2000
Maximum number of iterations                   ...    100
Convergence tolerance for the residual         ...    1.000e-06
Convergence tolerance for the energies         ...    1.000e-06
Orthogonality tolerance                        ...    1.000e-14
Level Shift                                    ...    0.000e+00
Constructing the preconditioner                ... o.k.
Building the initial guess                     ... o.k.
Number of trial vectors determined             ...    512


                       ****Iteration    0****
   Time for iteration     :  TOTAL=3026.3 TRAFO=7.0 RIJ=404.9 COSX=1466.7 XC=1139.4
   Size of expansion space: 512
   Lowest Energy          :    14.162576045863
   Maximum Energy change  :    14.408052724245 (vector 199)
   Maximum residual norm  :     0.001876505761

                       ****Iteration    1****
   Time for iteration     :  TOTAL=1033.2 TRAFO=2.4 RIJ=74.2 COSX=442.6 XC=509.5
   Size of expansion space: 712
   Lowest Energy          :    14.162284689929
   Maximum Energy change  :     0.002631063968 (vector 50)
   Maximum residual norm  :     0.000008056211

                       ****Iteration    2****
   Time for iteration     :  TOTAL=1455.9 TRAFO=2.3 RIJ=126.4 COSX=762.2 XC=560.7
   Size of expansion space: 912
   Lowest Energy          :    14.162282857499
   Maximum Energy change  :     0.000003688109 (vector 138)
   Maximum residual norm  :     0.000000027181

      *** CONVERGENCE OF RESIDUAL NORM REACHED ***

Storing the converged CI vectors               ... nkxas.cis1

                 *** DAVIDSON DONE ***

Total time for solving the CIS problem:  5573.172sec

------------------------------------
TD-DFT/TDA EXCITED STATES (SINGLETS)
------------------------------------

the weight of the individual excitations are printed if larger than 1.0e-02

STATE  1:  E=  14.162283 au    385.375 eV  3108261.8 cm**-1 <S**2> =   0.000000 Mult 1
     5a ->  54a  :     0.130991 (c=  0.36192721)
     5a ->  56a  :     0.028323 (c= -0.16829417)
     5a ->  57a  :     0.055799 (c= -0.23621892)
     6a ->  54a  :     0.035517 (c= -0.18845951)
     6a ->  55a  :     0.026245 (c= -0.16200298)
     6a ->  56a  :     0.020274 (c=  0.14238758)
     6a ->  57a  :     0.055468 (c=  0.23551625)
     7a ->  54a  :     0.023632 (c=  0.15372653)
     7a ->  55a  :     0.013797 (c= -0.11746076)
     7a ->  58a  :     0.024690 (c=  0.15713144)
[...]
  0-1A  -> 96-1A   389.111640 3138397.4     3.2   -0.22975   0.06209   0.02161  -0.01167
  0-1A  -> 97-1A   389.111644 3138397.4     3.2    0.11758  -0.09386  -0.13701   0.07746
  0-1A  -> 98-1A   389.111660 3138397.5     3.2   -0.03187   0.00013  -0.01015   0.30147
  0-1A  -> 99-1A   389.111667 3138397.6     3.2    0.11075  -0.15376   0.02307  -0.02740
  0-1A  -> 100-1A   389.111668 3138397.6     3.2    0.00133  -0.13301   0.01628  -0.01680
  0-1A  -> 101-1A   389.111682 3138397.7     3.2   -0.33829   0.01749  -0.01450   0.02568
  0-1A  -> 102-1A   389.111683 3138397.7     3.2    0.27985  -0.01351   0.00482   0.02141
  0-1A  -> 103-1A   389.125313 3138507.6     3.2    0.00003  -0.00020   0.00001  -0.00052
  0-1A  -> 104-1A   389.125332 3138507.8     3.2   -0.00004  -0.00058   0.00002   0.00051
  0-1A  -> 105-1A   389.125371 3138508.1     3.2    0.00002  -0.00035  -0.00052   0.00000
  0-1A  -> 106-1A   389.125425 3138508.5     3.2   -0.00002  -0.00027   0.00007  -0.00000
  0-1A  -> 107-1A   389.125524 3138509.3     3.2    0.00006   0.00001  -0.00019  -0.00080
  0-1A  -> 108-1A   389.125542 3138509.5     3.2   -0.00004   0.00001   0.00074   0.00055
  0-1A  -> 109-1A   389.652960 3142763.4     3.2    0.00000  -0.00010  -0.00014  -0.00008
  0-1A  -> 110-1A   389.652971 3142763.5     3.2    0.00000   0.00023   0.00009  -0.00016
  0-1A  -> 111-1A   389.652984 3142763.6     3.2   -0.00000   0.00007   0.00002   0.00133
  0-1A  -> 112-1A   389.652988 3142763.6     3.2   -0.00000  -0.00011  -0.00030   0.00027
  0-1A  -> 113-1A   389.652995 3142763.7     3.2   -0.00000   0.00003  -0.00133  -0.00003
  0-1A  -> 114-1A   389.653008 3142763.8     3.2    0.00000  -0.00133   0.00002  -0.00011
  0-1A  -> 115-1A   389.661166 3142829.6     3.2   -0.00582  -0.03158   0.01829  -0.29780
  0-1A  -> 116-1A   389.661182 3142829.7     3.2    0.00041  -0.20204   0.12481   0.12471
  0-1A  -> 117-1A   389.661187 3142829.8     3.2   -0.24612   0.24978   0.10930   0.07212
  0-1A  -> 118-1A   389.661189 3142829.8     3.2    0.28642  -0.03782   0.24726  -0.05049
  0-1A  -> 119-1A   389.661197 3142829.8     3.2    0.12244  -0.06312  -0.03087  -0.15486
  0-1A  -> 120-1A   389.661202 3142829.9     3.2   -0.09384   0.12467   0.08412  -0.15602
  0-1A  -> 121-1A   389.661208 3142829.9     3.2   -0.14446  -0.09197   0.12631  -0.01387
  0-1A  -> 122-1A   389.661217 3142830.0     3.2    0.04627  -0.14056  -0.03172  -0.02969
  0-1A  -> 123-1A   389.661221 3142830.0     3.2    0.08206  -0.01409   0.17816   0.01923
  0-1A  -> 124-1A   389.661222 3142830.0     3.2   -0.06937   0.00154   0.08928  -0.00226
  0-1A  -> 125-1A   389.661238 3142830.2     3.2    0.04258  -0.06954   0.00436  -0.00137
  0-1A  -> 126-1A   389.661252 3142830.3     3.2   -0.02057   0.05837   0.08978   0.00468
  0-1A  -> 127-1A   389.891921 3144690.7     3.2   -0.00003   0.00001   0.00001  -0.00000
  0-1A  -> 128-1A   389.891933 3144690.8     3.2    0.00002  -0.00002  -0.00001  -0.00000
  0-1A  -> 129-1A   389.891942 3144690.9     3.2    0.00004   0.00001  -0.00000   0.00002
  0-1A  -> 130-1A   389.891948 3144691.0     3.2   -0.00000  -0.00000  -0.00000   0.00000
  0-1A  -> 131-1A   389.891963 3144691.1     3.2   -0.00003   0.00001  -0.00001   0.00001
  0-1A  -> 132-1A   389.892002 3144691.4     3.2    0.00000  -0.00003  -0.00001  -0.00000
  0-1A  -> 133-1A   390.168384 3146920.6     3.2   -0.00000   0.00000   0.00000   0.00000
  0-1A  -> 134-1A   390.168386 3146920.6     3.2    0.00000  -0.00001  -0.00001  -0.00000
  0-1A  -> 135-1A   390.168393 3146920.6     3.2    0.00000  -0.00000   0.00000  -0.00001
  0-1A  -> 136-1A   390.168395 3146920.7     3.2   -0.00000  -0.00002  -0.00000  -0.00001
  0-1A  -> 137-1A   390.168401 3146920.7     3.2   -0.00000   0.00001  -0.00000  -0.00000
  0-1A  -> 138-1A   390.168434 3146921.0     3.2   -0.00000  -0.00000  -0.00000  -0.00000
  0-1A  -> 139-1A   390.231259 3147427.7     3.2   -0.00015   0.00001   0.00002  -0.00002
  0-1A  -> 140-1A   390.231275 3147427.8     3.2    0.00018  -0.00001  -0.00002  -0.00002
  0-1A  -> 141-1A   390.231290 3147427.9     3.2    0.00005   0.00002   0.00000   0.00002
  0-1A  -> 142-1A   390.231321 3147428.2     3.2    0.00000  -0.00001  -0.00001  -0.00003
  0-1A  -> 143-1A   390.231350 3147428.4     3.2   -0.00013   0.00001   0.00001  -0.00002
  0-1A  -> 144-1A   390.231417 3147429.0     3.2    0.00005   0.00001  -0.00000  -0.00001
  0-1A  -> 145-1A   390.858829 3152489.4     3.2   -0.00000   0.00000  -0.00002   0.00004
  0-1A  -> 146-1A   390.858834 3152489.4     3.2   -0.00000   0.00003   0.00000  -0.00002
  0-1A  -> 147-1A   390.858836 3152489.4     3.2   -0.00000   0.00004   0.00001  -0.00000
  0-1A  -> 148-1A   390.858850 3152489.6     3.2    0.00000   0.00000  -0.00000   0.00000
  0-1A  -> 149-1A   390.858858 3152489.6     3.2    0.00000   0.00000   0.00000  -0.00000
  0-1A  -> 150-1A   390.858860 3152489.6     3.2    0.00000   0.00000   0.00000   0.00000
  0-1A  -> 151-1A   390.874346 3152614.5     3.2    0.02512   0.28007  -0.23138  -0.00434
  0-1A  -> 152-1A   390.874359 3152614.6     3.2   -0.06377  -0.04875   0.04784  -0.01482
  0-1A  -> 153-1A   390.874377 3152614.8     3.2    0.09907  -0.00765  -0.06846  -0.38285
  0-1A  -> 154-1A   390.874396 3152614.9     3.2   -0.06231  -0.00275  -0.03256  -0.02958
  0-1A  -> 155-1A   390.874408 3152615.0     3.2   -0.03395   0.05503  -0.01274   0.31221
  0-1A  -> 156-1A   390.874425 3152615.2     3.2   -0.01665  -0.02611  -0.02431  -0.04518
  0-1A  -> 157-1A   390.874441 3152615.3     3.2    0.06375   0.04598  -0.32668   0.05760
  0-1A  -> 158-1A   390.874442 3152615.3     3.2    0.02813   0.27986   0.20208  -0.05415
  0-1A  -> 159-1A   390.874450 3152615.4     3.2   -0.03614   0.25133  -0.03291  -0.04318
  0-1A  -> 160-1A   390.874456 3152615.4     3.2    0.00444  -0.14824  -0.20395  -0.01767
  0-1A  -> 161-1A   390.874477 3152615.6     3.2    0.04512   0.07256   0.04814  -0.00061
  0-1A  -> 162-1A   390.874481 3152615.6     3.2   -0.05281  -0.01505   0.02762   0.00624
  0-1A  -> 163-1A   391.323355 3156236.0     3.2    0.00000  -0.00000   0.00000   0.00001
  0-1A  -> 164-1A   391.323372 3156236.2     3.2    0.00000   0.00000   0.00001  -0.00001
  0-1A  -> 165-1A   391.323473 3156237.0     3.2   -0.00000   0.00008  -0.00000   0.00004
  0-1A  -> 166-1A   391.323494 3156237.2     3.2    0.00000   0.00001  -0.00000  -0.00001
  0-1A  -> 167-1A   391.323710 3156238.9     3.2    0.00000   0.00008   0.00002   0.00000
  0-1A  -> 168-1A   391.323732 3156239.1     3.2   -0.00000  -0.00001   0.00000  -0.00000
  0-1A  -> 169-1A   391.341167 3156379.7     3.2   -0.00001   0.00004  -0.00004   0.00000
  0-1A  -> 170-1A   391.341190 3156379.9     3.2    0.00001   0.00004  -0.00003  -0.00000
  0-1A  -> 171-1A   391.341250 3156380.4     3.2   -0.00002   0.00003   0.00000  -0.00003
  0-1A  -> 172-1A   391.341253 3156380.4     3.2    0.00002   0.00001  -0.00001  -0.00003
  0-1A  -> 173-1A   391.341274 3156380.6     3.2    0.00000   0.00000  -0.00009  -0.00006
  0-1A  -> 174-1A   391.341295 3156380.7     3.2   -0.00001   0.00001   0.00001   0.00003
  0-1A  -> 175-1A   391.542654 3158004.8     3.2    0.32232  -0.22324   0.21720   0.03819
  0-1A  -> 176-1A   391.542657 3158004.8     3.2   -0.41503  -0.08596   0.37671   0.92661
  0-1A  -> 177-1A   391.542660 3158004.9     3.2   -0.36592  -0.72141   0.53675  -0.33941
  0-1A  -> 178-1A   391.542664 3158004.9     3.2    0.16797   0.00760   0.06043   0.13849
  0-1A  -> 179-1A   391.542672 3158005.0     3.2    0.18294   0.14013   0.16651   0.01466
  0-1A  -> 180-1A   391.542674 3158005.0     3.2    1.29223   0.61434   0.76201  -0.28196
  0-1A  -> 181-1A   391.542679 3158005.0     3.2   -0.91561  -0.09092  -0.01878   0.10072
  0-1A  -> 182-1A   391.542681 3158005.0     3.2   -0.59165  -0.22924  -0.05781  -0.18724
  0-1A  -> 183-1A   391.542689 3158005.1     3.2    0.22460   0.31145  -0.13957  -0.07182
  0-1A  -> 184-1A   391.542694 3158005.1     3.2    0.24082   0.00257   0.02984   0.07476
  0-1A  -> 185-1A   391.542695 3158005.1     3.2   -0.18987  -0.01165  -0.06632  -0.00274
  0-1A  -> 186-1A   391.542697 3158005.2     3.2    0.04722  -0.03047  -0.12637  -0.05920
  0-1A  -> 187-1A   391.915491 3161011.9     3.2   -0.00000   0.00012  -0.00009  -0.00000
  0-1A  -> 188-1A   391.915559 3161012.5     3.2    0.00000  -0.00011  -0.00000  -0.00003
  0-1A  -> 189-1A   391.915627 3161013.0     3.2    0.00000   0.00005  -0.00005   0.00001
  0-1A  -> 190-1A   391.915646 3161013.2     3.2   -0.00000  -0.00001   0.00013   0.00020
  0-1A  -> 191-1A   391.915674 3161013.4     3.2    0.00000   0.00005   0.00001  -0.00009
  0-1A  -> 192-1A   391.915743 3161014.0     3.2   -0.00000  -0.00000   0.00009   0.00008
  0-1A  -> 193-1A   392.058344 3162164.1     3.2   -0.00299   0.12581  -0.10603  -0.00578
  0-1A  -> 194-1A   392.058349 3162164.2     3.2    0.01324  -0.00852  -0.05901  -0.16888
  0-1A  -> 195-1A   392.058356 3162164.2     3.2    0.00005   0.05730   0.00020   0.11911
  0-1A  -> 196-1A   392.058367 3162164.3     3.2    0.02033   0.01066   0.02691  -0.00988
  0-1A  -> 197-1A   392.058368 3162164.3     3.2   -0.08037   0.00332   0.03402  -0.02129
  0-1A  -> 198-1A   392.058375 3162164.4     3.2   -0.00855  -0.12165  -0.12511   0.01396
  0-1A  -> 199-1A   392.058378 3162164.4     3.2    0.10184  -0.07053   0.04467   0.02688
  0-1A  -> 200-1A   392.058380 3162164.4     3.2   -0.06252   0.08445  -0.07470   0.01465

Total run time:     5606.015 sec

           *** ORCA-CIS/TD-DFT FINISHED WITHOUT ERROR ***
-----------------------
CIS/TD-DFT TOTAL ENERGY
-----------------------

    E(SCF)  =  -1820.491932106 Eh
    DE(CIS) =     14.162282857 Eh (Root  1)
    ----------------------------- ---------
    E(tot)  =  -1806.329649249 Eh


Maximum memory used throughout the entire CIS-calculation: 3138.7 MB
=> NOW LEAVING ORCA_CIS

-------------------------   --------------------
FINAL SINGLE POINT ENERGY     -1806.329649248729
-------------------------   --------------------



           ************************************************************
           *        Program running with 4 parallel MPI-processes     *
           *              working on a common directory               *
           ************************************************************

------------------------------------------------------------------------------
                              ORCA PROPERTY CALCULATIONS
------------------------------------------------------------------------------

GBWName                                 ... nkxas.gbw
Number of atoms                         ...     13
Number of basis functions               ...    543
Max core memory                         ...   3000 MB

Electric properties:
Dipole moment                           ... YES
Quadrupole moment                       ...  NO
Static polarizability (Dipole/Dipole)   ...  NO
Static polarizability (Dipole/Quad.)    ...  NO
Static polarizability (Quad./Quad.)     ...  NO
Static polarizability (Velocity)        ...  NO
Static hyperpolarizability              ...  NO

Atomic electric properties:
Dipole moment                           ...  NO
Quadrupole moment                       ...  NO
Static polarizability                   ...  NO

Choice of electric origin               ... Center of mass
Position of electric origin             ...     0.000000     0.000000    -0.000000

General magnetic properties:
Magnetizability                         ...  NO

EPR properties:
g-Tensor (aka g-matrix)                 ...  NO
Zero-Field splitting spin-orbit         ...  NO
Zero-field splitting spin-spin          ...  NO
Hyperfine couplings                     ...  NO (   0 nuclei)
Quadrupole couplings                    ...  NO (   0 nuclei)
Contact density                         ...  NO (   0 nuclei)

NMR properties:
Chemical shifts                         ...  NO (   0 nuclei)
Spin-rotation constants                 ...  NO (   0 nuclei)
Spin-spin couplings                     ...  NO (   0 nuclei,    0 pairs)

Choice of magnetic origin               ... GIAO
Position of magnetic origin             ...     0.000000     0.000000     0.000000

Properties with geometric perturbations:
SCF Hessian                             ...  NO
IR spectrum                             ...  NO
VCD spectrum                            ...  NO
X-ray spectroscopy properties:
SCF XES/XAS/RIXS spectra                ...  NO

SCF SOC stabilization energy            ...  NO
Diagonal Born-Oppenheimer correction    ...  NO

-------------
DIPOLE MOMENT
-------------

Method             : SCF
Type of density    : Electron Density
Multiplicity       :   1
Irrep              :   0
Energy             : -1820.4919321062279778 Eh
Basis              : AO
                                X                 Y                 Z
Electronic contribution:      0.000009665       0.000003002       0.000001311
Nuclear contribution   :     -0.000003845      -0.000002859      -0.000000116
                        -----------------------------------------
Total Dipole Moment    :      0.000005820       0.000000143       0.000001196
                        -----------------------------------------
Magnitude (a.u.)       :      0.000005943
Magnitude (Debye)      :      0.000015107



--------------------
Rotational spectrum 
--------------------
 
Rotational constants in cm-1:             0.022408             0.022408             0.022408 
Rotational constants in MHz :           671.763178           671.762443           671.760492 

Dipole components along the rotational axes: 
x,y,z [a.u.] :     0.000004     0.000002     0.000004 
x,y,z [Debye]:     0.000009     0.000004     0.000011 

 

Dipole moment calculation done in   0.2 sec 

Maximum memory used throughout the entire PROP-calculation: 42.4 MB

--------------------------------
SUGGESTED CITATIONS FOR THIS RUN
--------------------------------

Below you find a list of papers that are relevant to this ORCA run
We neither can nor want to force you to cite these papers, but we appreciate if you do
You receive ORCA, which is the product of decades of hard work by many enthusiastic individuals, for free
The only thing we kindly ask in return is that you cite our papers,
We deeply appreciate it, if you show your appreciation for ORCA by not just citing the generic ORCA reference.

Please note that relegating all ORCA citations to the supporting information does *not* help us.
SI sections are not indexed - citations you put there will not count into any citation statistics
But we need these citations in order to attract the funding resources that allow us to do what we are doing

Therefore, if you are a happy ORCA user, please consider citing a few of the papers listed below in the main body of your paper

In addition to the list printed below, the program has created the file nkxas.bibtex that contains the list in bibtex format
You can import this file easily into all common literature databanks and citation aid programs

It goes without saying that in many instances, there are alternative algorithms to achieve similar
results as the ones you have gotten from ORCA. It is, of course, also the case that in some instances
ORCA just re-implements algorithms worked out by others. We are fully aware of that and we are also
fully appreciative of our colleagues work. Hence this citation list should not be read as indicating
that the listed papers, which are focused on our own work, are the only ones worth citing. It simply
meant to make it easier for users to cite ORCA specific papers. It is not a substitute for doing your
own literature research and citing the relevant literature in a scientifically appropriate manner.

List of essential papers. We consider these as the minimum necessary citations

  1. Neese, F.
     Software update: the ORCA program system, version 6.0
     WIRES Comput. Molec. Sci. 2025 15(1), e70019
     doi.org/10.1002/wcms.70019

List of papers to cite with high priority. The work reported in these papers was absolutely
necessary for this run to complete.
Our perspective: the developers of density functionals and basis sets usually get cited in chemistry papers
Good! But without the algorithms to do something with them, the functionals or basis sets would not do anything.
Hence, in our opinion, the algorithm design and method developments papers are equally worthy of getting cited

  1. Neese, F.; Olbrich, G.
     Efficient use of the resolution of the identity approximation in time-dependent density functional calculations with hybrid density functionals
     Chem. Phys. Lett. 2002 362 , 170-178
     doi.org/10.1016/s0009-2614(02)01053-9
  2. Neese, F.
     An improvement of the resolution of the identity approximation for the formation of the Coulomb matrix
     J. Comp. Chem. 2003 24(14), 1740-1747
     doi.org/10.1002/jcc.10318
  3. Neese, F.; Wennmohs, F.; Hansen, A.; Becker, U.
     Efficient, approximate and parallel Hartree-Fock and hybrid DFT calculations. A 'chain-of-spheres' algorithm for the Hartree-Fock exchange
     Chem. Phys. 2009 356(1-3), 98-109
     doi.org/10.1016/j.chemphys.2008.10.036
  4. Stoychev, G.L.; Auer, A.A.; Neese, F.
     Automatic Generation of Auxiliary Basis Sets
     J. Theo. Comp. Chem. 2017 13 , 554-562
     doi.org/10.1021/acs.jctc.6b01041
  5. Helmich-Paris, B.; de Souza, B.; Neese, F.; Izsák, R.
     An improved chain of spheres for exchange algorithm
     J. Chem. Phys. 2021 155(10), 104109
     doi.org/10.1063/5.0058766
  6. Neese, F.
     The SHARK Integral Generation and Digestion System
     J. Comp. Chem. 2022 44(3), 381
     doi.org/10.1002/jcc.26942

List of suggested additional citations. These are papers that are important in the 'surrounding' of 
of this run, or papers that preceded the highly important papers. If you like your results we are grateful for a citation.

  1. Izsak, R.; Neese, F.
     An overlap fitted chain of spheres exchange method
     J. Chem. Phys. 2011 135 , 144105
     doi.org/10.1063/1.3646921
  2. Izsak, R.; Hansen, A.; Neese, F.
     The resolution of identity and chain of spheres approximations for the LPNO-CCSD singles Fock term
     Molec. Phys. 2012 110 , 2413-2417
     doi.org/10.1080/00268976.2012.687466
  3. Neese, F.
     The ORCA program system
     WIRES Comput. Molec. Sci. 2012 2(1), 73-78
     doi.org/10.1002/wcms.81
  4. Izsak, R.; Neese, F.; Klopper, W.
     Robust fitting techniques in the chain of spheres approximation to the Fock exchange: The role of the complementary space
     J. Chem. Phys. 2013 139 , 
     doi.org/10.1063/1.4819264
  5. Neese, F.
     Software update: the ORCA program system, version 4.0
     WIRES Comput. Molec. Sci. 2018 8(1), 1-6
     doi.org/10.1002/wcms.1327
  6. Neese, F.; Wennmohs, F.; Becker, U.; Riplinger, C.
     The ORCA quantum chemistry program package
     J. Chem. Phys. 2020 152(22), 224108
     doi.org/10.1063/5.0004608
  7. Neese, F.
     Software update: The ORCA program system—Version 5.0
     WIRES Comput. Molec. Sci. 2022 12(1), e1606
     doi.org/10.1002/wcms.1606

List of optional additional citations

  1. Neese, F.
     Approximate second-order SCF convergence for spin unrestricted wavefunctions
     Chem. Phys. Lett. 2000 325(1-3), 93-98
     doi.org/10.1016/s0009-2614(00)00662-x

Timings for individual modules:

Sum of individual times          ...     6319.609 sec (= 105.327 min)
Startup calculation              ...       44.714 sec (=   0.745 min)   0.7 %
SCF iterations                   ...      664.170 sec (=  11.069 min)  10.5 %
Property integrals               ...        1.417 sec (=   0.024 min)   0.0 %
Property calculations            ...        2.211 sec (=   0.037 min)   0.0 %
CIS module                       ...     5607.097 sec (=  93.452 min)  88.7 %
                             ****ORCA TERMINATED NORMALLY****
TOTAL RUN TIME: 0 days 1 hours 45 minutes 21 seconds 169 msec
