
                                 *****************
                                 * O   R   C   A *
                                 *****************

                                            #,                                       
                                            ###                                      
                                            ####                                     
                                            #####                                    
                                            ######                                   
                                           ########,                                 
                                     ,,################,,,,,                         
                               ,,#################################,,                 
                          ,,##########################################,,             
                       ,#########################################, ''#####,          
                    ,#############################################,,   '####,        
                  ,##################################################,,,,####,       
                ,###########''''           ''''###############################       
              ,#####''   ,,,,##########,,,,          '''####'''          '####       
            ,##' ,,,,###########################,,,                        '##       
           ' ,,###''''                  '''############,,,                           
         ,,##''                                '''############,,,,        ,,,,,,###''
      ,#''                                            '''#######################'''  
     '                                                          ''''####''''         
             ,#######,   #######,   ,#######,      ##                                
            ,#'     '#,  ##    ##  ,#'     '#,    #''#        ,####,    ,#,          
            ##       ##  ##   ,#'  ##            #'  '#       #'       ,# #          
            ##       ##  #######   ##           ,######,      #####,      #          
            '#,     ,#'  ##    ##  '#,     ,#' ,#      #,     #,   #      #          
             '#######'   ##     ##  '#######'  #'      '#     '####' #    #          



                #########################################################
                #                        -***-                          #
                #          Department of theory and spectroscopy        #
                #                                                       #
                #                      Frank Neese                      #
                #                                                       #
                #     Directorship, Architecture, Infrastructure        #
                #                    SHARK, DRIVERS                     #
                #        Core code/Algorithms in most modules           #
                #                                                       #
                #        Max Planck Institute fuer Kohlenforschung      #
                #                Kaiser Wilhelm Platz 1                 #
                #                 D-45470 Muelheim/Ruhr                 #
                #                      Germany                          #
                #                                                       #
                #                  All rights reserved                  #
                #                        -***-                          #
                #########################################################


                         Program Version 6.1.1  -  RELEASE   -
                                (GIT: $487d211c$)
                          ($2025-11-21 10:33:24 +0100$)


 With contributions from (in alphabetic order):
[Max-Planck-Institut fuer Kohlenforschung]                               
  Daniel Aravena         : Magnetic Suceptibility                        
  Michael Atanasov       : Ab Initio Ligand Field Theory (pilot matlab implementation)
  Alexander A. Auer      : GIAO ZORA, VPT2 properties, NMR spectrum      
  Ute Becker             : All parallelization in ORCA, NUMFREQ, NUMCALC 
  Giovanni Bistoni       : ED, misc. LED, open-shell LED, HFLD           
  Dmytro Bykov           : pre 5.0 version of the SCF Hessian            
  Marcos Casanova-Páez   : Triplet and SCS-CIS(D). UHF-(DLPNO)-IP/EA/STEOM-CCSD. UHF-CVS-IP/STEOM-CCSD   
  Vijay G. Chilkuri      : MRCI spin determinant printing, contributions to CSF-ICE 
  Pauline Colinet        : FMM embedding                                 
  Dipayan Datta          : RHF DLPNO-CCSD density                        
  Achintya Kumar Dutta   : EOM-CC, STEOM-CC                              
  Nicolas Foglia         : Exact transition moments, OPA infrastructure, MCD improvements    
  Dmitry Ganyushin       : Spin-Orbit,Spin-Spin,Magnetic field MRCI      
  Miquel Garcia-Rates    : C-PCM and meta-GGA Hessian, CCSD/C-PCM, Gaussian charge scheme 
  Tiago L. C. Gouveia    : GS-ROHF, GS-ROCIS                             
  Yang Guo               : DLPNO-NEVPT2, F12-NEVPT2, CIM, IAO-localization        
  Andreas Hansen         : Spin unrestricted coupled pair/coupled cluster methods 
  Ingolf Harden          : AUTO-CI MPn and infrastructure                
  Benjamin Helmich-Paris : MC-RPA, TRAH-(SCF,CASSCF), AVAS, COSX integrals, SCF dyn. polar., MC-PDFT, srDFT 
  Lee Huntington         : MR-EOM, pCC                                   
  Robert Izsak           : Overlap fitted RIJCOSX, COSX-SCS-MP3, EOM     
  Riya Kayal             : Wick's Theorem for AUTO-CI, AUTO-CI UHF-CCSDT 
  Emily Kempfer          : AUTO-CI RHF CISDT and CCSDT, approximate NEVPT4
  Christian Kollmar      : KDIIS, OOCD, Brueckner-CCSD(T), CCSD density, CASPT2, CASPT2-K, improved NEVPT2 
  Axel Koslowski         : Symmetry handling                             
  Simone Kossmann        : meta-GGA functionals, TD-DFT gradient, OOMP2, (MP2 Hessian; deprecated post 5.0) 
  Lucas Lang             : DCDCAS, Hyperfine gauge corrections, ICE-SOC+SSC
  Marvin Lechner         : AUTO-CI (C++ implementation), FIC-MRCC        
  Spencer Leger          : CASSCF response                               
  Dagmar Lenk            : GEPOL surface, SMD, ORCA-2-JSON               
  Dimitrios Liakos       : Extrapolation schemes; Compound Job, Property file
  Dimitrios Manganas     : Further ROCIS development; embedding schemes. LFT, Crystal Embedding 
  Dimitrios Pantazis     : SARC Basis sets                               
  Anastasios Papadopoulos: AUTO-CI, single reference methods and gradients 
  Taras Petrenko         : pre 6.0 DFT Hessian and TD-DFT gradient,  ECA, NRVS 
  Petra Pikulova         : Analytic Raman intensities                    
  Peter Pinski           : DLPNO-MP2, DLPNO-MP2 Gradient                 
  Shashank Vittal Rao    : ES-AILFT, MagRelax                            
  Christoph Reimann      : Effective Core Potentials                     
  Marius Retegan         : Local ZFS, SOC                                
  Christoph Riplinger    : Optimizer, TS searches, QM/MM, DLPNO-CCSD(T), (RO)-DLPNO pert. Triples 
  Michael Roemelt        : Original ROCIS implementation, recursive CI coupling coefficients
  Masaaki Saitow         : Open-shell DLPNO-CCSD energy and density      
  Barbara Sandhoefer     : DKH picture change effects                    
  Yorick L. A. Schmerwitz: GMF and freeze-and-release deltaSCF, NEB S-IDPP initial path                    
  Kantharuban Sivalingam : CASSCF convergence/infrastructure, NEVPT2, NEVPT3, NEVPT4(SD), FIC-MRCI and CEPA variants
  Bernardo de Souza      : ESD, SOC TD-DFT                               
  Georgi L. Stoychev     : AutoAux, RI-MP2 NMR, DLPNO-MP2 response, X2C  
  Van Anh Tran           : RI-MP2 g-tensors                              
  Willem Van den Heuvel  : Paramagnetic NMR                              
  Zikuan Wang            : NOTCH, Electric field optimization            
  Frank Wennmohs         : Technical directorship and infrastructure     
  Hang Xu                : AUTO-CI-Response properties                   
                                                                         
[FACCTs GmbH]                                                            
  Markus Bursch, Nicolas Foglia, Miquel Garcia-Rates, Ingolf Harden, Hagen Neugebauer, Anastasios Papadopoulos, 
  Christoph Riplinger, Bernardo de Souza, Georgi L. Stoychev                                                    
                                                                 
  APM, various basis sets, CI-OPT, improved COSX, DLPNO-Multilevel,           
  DOCKER, DRACO, updates on ESD, Fragmentator, GOAT, IRC, LR-CPCM, L-BFGS, MBIS, meta-GGA TD-DFT gradient, ML-optimized integration grids, 
  MM, NACMEs, nearIR, NEB, NEB-TS, NL-DFT gradient (VV10), 2- and 3-layer-ONIOM, interface openCOSMO-RS, QMMM,   
  Crystal-QMMM, RESP, rigid body optimization, SF, symmetry and pop. for TD-DFT, various functionals, SOLVATOR                                   
                                                                         
[Other institutions]                                                     
  V. Asgeirsson          : NEB                                           
  Christoph Bannwarth    : sTDA-DFT, sTD-DFT, PBEh-3c, B97-3c, D3        
  Giovanni Bistoni       : ETS/NOCV, ADLD/ADEX, COVALED                  
  Martin Brehm           : Molecular dynamics                            
  Ronald Cardenas        : ETS/NOCV                                      
  Martina Colucci        : COVALED                                       
  Sebastian Ehlert       : rSCAN, r2SCAN, r2SCAN-3c, D4, dhf basis sets  
  Marvin Friede          : D4 for Fr, Ra, Ac-Lr                          
  Lars Goerigk           : TD-DFT with DH, B97 family of functionals     
  Stefan Grimme          : VdW corrections, initial TS optimization, DFT functionals, gCP, sTDA/sTD-DF 
  Waldemar Hujo          : DFT-NL                                        
  H. Jonsson             : NEB                                           
  Holger Kruse           : gCP                                           
  Marcel Mueller         : wB97X-3c, vDZP basis set                      
  Hagen Neugebauer       : wr2SCAN, Native XTB                           
  Gianluca Regni         : ADLD/ADEX                                     
  Tobias Risthaus        : pre 6.0 range-separated hybrid DFT and stability analysis
  Lukas Wittmann         : regularized MP2, r2SCAN double-hybrids, wr2SCAN        
                                                                         
We gratefully acknowledge several colleagues who have allowed us to      
interface, adapt or use parts of their codes:                            
  Ed Valeev, F. Pavosevic, A. Kumar             : LibInt (2-el integral package), F12 methods 
  Garnet Chan, S. Sharma, J. Yang, R. Olivares  : DMRG                   
  Ulf Ekstrom                                   : XCFun DFT Library      
  Mihaly Kallay                                 : mrcc  (arbitrary order and MRCC methods)
  Frank Weinhold                                : gennbo (NPA and NBO analysis)           
  Simon Mueller                                 : openCOSMO-RS                            
  Christopher J. Cramer and Donald G. Truhlar   : smd solvation model                     
  S Lehtola, MJT Oliveira, MAL Marques          : LibXC Library                           
  Liviu Ungur et al                             : ANISO software                          


 Your calculation uses the libint2 library for the computation of 2-el integrals
 For citations please refer to: http://libint.valeyev.net

 Your ORCA version has been built with support for libXC version: 7.0.0
 For citations please refer to: https://libxc.gitlab.io

 This ORCA versions uses:
   CBLAS   interface :  Fast vector & matrix operations
   LAPACKE interface :  Fast linear algebra routines
   SCALAPACK package :  Parallel linear algebra routines
   Shared memory     :  Shared parallel matrices
   BLAS/LAPACK       :  OpenBLAS 0.3.29  USE64BITINT DYNAMIC_ARCH NO_AFFINITY Haswell SINGLE_THREADED
        Core in use  :  Haswell
   Copyright (c) 2011-2014, The OpenBLAS Project


  ***********************************
  * Starting time: Wed Jun  3 16:19:32 2026
  * Host name:     steezy
  * Process ID:    1058710
  * Working dir.:  /home/jannes/hexacyanide/fecn6/02_nkxas/camb3lyp
  ***********************************

NOTE: MaxCore=3000 MB was set to SCF,MP2,MDCI,CIPSI,MRCI,RASCI and CIS
      => If you want to overwrite this, your respective input block should be placed after the MaxCore statement


***************************************
The coordinates will be read from file: ../../01_opt/fecn6_opt_pbe0_tzvp.xyz
***************************************


XCFun DFT library Copyright 2009-2010 Ulf Ekstrom and contributors.
See http://admol.org/xcfun for more information.
This is free software; see the source code for copying conditions.
There is ABSOLUTELY NO WARRANTY; not even for MERCHANTABILITY or FITNESS FOR A PARTICULAR PURPOSE.
For details see the documentation.
Scientific users of this library should cite U. Ekstrom, L. Visscher, R. Bast, A. J. Thorvaldsen and K. Ruud;
J.Chem.Theor.Comp. 2010, DOI: 10.1021/ct100117s
XCFun Version 0.99 

================================================================================

----- Orbital basis set information -----
Your calculation utilizes the basis: def2-TZVP
   F. Weigend and R. Ahlrichs, Phys. Chem. Chem. Phys. 7, 3297 (2005).

----- AuxJ basis set information -----
Your calculation utilizes the auxiliary basis: def2/J
   H-Rn: F. Weigend, Phys. Chem. Chem. Phys. 8, 1057 (2006).
   Fr-Lr: K. Eichkorn, F. Weigend, O. Treutler, R. Ahlrichs; Theor. Chem. Acc. 97, 119 (1997).

================================================================================
                                        WARNINGS
                       Please study these warnings very carefully!
================================================================================

WARNING: Old DensityContainer found on disk!
         Will remove this file - 
         If you want to keep old densities, please start your calculation with a different basename. 


WARNING: CIS/ROCIS methods need fully converged wavefunctions
  ===> : Setting SCFConvForced true
         You can overwrite this default with %scf ConvForced false 


================================================================================
                                       INPUT FILE
================================================================================
NAME = fecn6_nkxas_camb3lyp_tzvp.inp
|  1> %pal nprocs 4 end
|  2> %maxcore 3000
|  3> ! CAM-B3LYP def2-TZVP def2/J RIJCOSX DefGrid3
|  4> %tddft
|  5>   nroots 80
|  6>   OrbWin[0] = 5,10,-1,-1
|  7> end
|  8> * xyzfile -4 1 ../../01_opt/fecn6_opt_pbe0_tzvp.xyz
|  9> 
| 10>                          ****END OF INPUT****
================================================================================

                       ****************************
                       * Single Point Calculation *
                       ****************************

---------------------------------
CARTESIAN COORDINATES (ANGSTROEM)
---------------------------------
  Fe     0.000001    0.000001    0.000000
  C      1.992320   -0.000004   -0.000001
  C     -1.992317    0.000002    0.000002
  C     -0.000005    1.992321   -0.000001
  C     -0.000000   -1.992318    0.000002
  C      0.000002   -0.000002    1.992318
  C      0.000006    0.000002   -1.992319
  N      3.166046   -0.000007   -0.000004
  N     -3.166043    0.000004    0.000002
  N     -0.000013    3.166048   -0.000003
  N     -0.000001   -3.166044    0.000004
  N      0.000000   -0.000005    3.166045
  N      0.000005    0.000002   -3.166046

----------------------------
CARTESIAN COORDINATES (A.U.)
----------------------------
  NO LB      ZA    FRAG     MASS         X           Y           Z
   0 Fe   26.0000    0    55.850    0.000002    0.000002    0.000000
   1 C     6.0000    0    12.011    3.764938   -0.000007   -0.000002
   2 C     6.0000    0    12.011   -3.764934    0.000004    0.000003
   3 C     6.0000    0    12.011   -0.000009    3.764942   -0.000001
   4 C     6.0000    0    12.011   -0.000000   -3.764935    0.000004
   5 C     6.0000    0    12.011    0.000003   -0.000003    3.764935
   6 C     6.0000    0    12.011    0.000011    0.000003   -3.764937
   7 N     7.0000    0    14.007    5.982959   -0.000013   -0.000007
   8 N     7.0000    0    14.007   -5.982955    0.000007    0.000004
   9 N     7.0000    0    14.007   -0.000024    5.982963   -0.000005
  10 N     7.0000    0    14.007   -0.000002   -5.982957    0.000007
  11 N     7.0000    0    14.007    0.000001   -0.000009    5.982958
  12 N     7.0000    0    14.007    0.000009    0.000003   -5.982959

--------------------------------
INTERNAL COORDINATES (ANGSTROEM)
--------------------------------
 Fe     0   0   0     0.000000000000     0.00000000     0.00000000
 C      1   0   0     1.992318261767     0.00000000     0.00000000
 C      1   2   0     1.992318755222   179.99989449     0.00000000
 C      1   2   3     1.992320320540    90.00030639   176.08463907
 C      1   2   4     1.992318856103    89.99990346   180.00004421
 C      1   2   5     1.992318028941    90.00002332    89.99986381
 C      1   2   5     1.992318862032    89.99983068   269.99991913
 N      2   1   6     1.173726119520   179.99992353   182.76480919
 N      3   1   6     1.173726000184   179.99994479   117.62380217
 N      4   1   2     1.173726303437   179.99976173   159.22857827
 N      5   1   2     1.173726377493   179.99998099     0.00000000
 N      6   1   2     1.173726858407   179.99988695   222.45670598
 N      7   1   2     1.173726693986   179.99981964   172.72429205

---------------------------
INTERNAL COORDINATES (A.U.)
---------------------------
 Fe     0   0   0     0.000000000000     0.00000000     0.00000000
 C      1   0   0     3.764935886350     0.00000000     0.00000000
 C      1   2   0     3.764936818845   179.99989449     0.00000000
 C      1   2   3     3.764939776868    90.00030639   176.08463907
 C      1   2   4     3.764937009481    89.99990346   180.00004421
 C      1   2   5     3.764935446371    90.00002332    89.99986381
 C      1   2   5     3.764937020686    89.99983068   269.99991913
 N      2   1   6     2.218020922124   179.99992353   182.76480919
 N      3   1   6     2.218020696611   179.99994479   117.62380217
 N      4   1   2     2.218021269676   179.99976173   159.22857827
 N      5   1   2     2.218021409621   179.99998099     0.00000000
 N      6   1   2     2.218022318417   179.99988695   222.45670598
 N      7   1   2     2.218022007706   179.99981964   172.72429205

---------------------
BASIS SET INFORMATION
---------------------
There are 3 groups of distinct atoms

 Group   1 Type Fe  : 17s11p7d1f contracted to 6s4p4d1f pattern {842111/6311/4111/1}
 Group   2 Type C   : 11s6p2d1f contracted to 5s3p2d1f pattern {62111/411/11/1}
 Group   3 Type N   : 11s6p2d1f contracted to 5s3p2d1f pattern {62111/411/11/1}

Atom   0Fe   basis set group =>   1
Atom   1C    basis set group =>   2
Atom   2C    basis set group =>   2
Atom   3C    basis set group =>   2
Atom   4C    basis set group =>   2
Atom   5C    basis set group =>   2
Atom   6C    basis set group =>   2
Atom   7N    basis set group =>   3
Atom   8N    basis set group =>   3
Atom   9N    basis set group =>   3
Atom  10N    basis set group =>   3
Atom  11N    basis set group =>   3
Atom  12N    basis set group =>   3
---------------------------------
AUXILIARY/J BASIS SET INFORMATION
---------------------------------
There are 3 groups of distinct atoms

 Group   1 Type Fe  : 19s5p5d3f3g contracted to 8s5p5d2f3g pattern {121111111/11111/11111/21/111}
 Group   2 Type C   : 12s5p4d2f1g contracted to 6s4p3d1f1g pattern {711111/2111/211/2/1}
 Group   3 Type N   : 12s5p4d2f1g contracted to 6s4p3d1f1g pattern {711111/2111/211/2/1}

Atom   0Fe   basis set group =>   1
Atom   1C    basis set group =>   2
Atom   2C    basis set group =>   2
Atom   3C    basis set group =>   2
Atom   4C    basis set group =>   2
Atom   5C    basis set group =>   2
Atom   6C    basis set group =>   2
Atom   7N    basis set group =>   3
Atom   8N    basis set group =>   3
Atom   9N    basis set group =>   3
Atom  10N    basis set group =>   3
Atom  11N    basis set group =>   3
Atom  12N    basis set group =>   3


           ************************************************************
           *        Program running with 4 parallel MPI-processes     *
           *              working on a common directory               *
           ************************************************************
------------------------------------------------------------------------------
                             ORCA STARTUP CALCULATIONS
                           -- RI-GTO INTEGRALS CHOSEN --
------------------------------------------------------------------------------
------------------------------------------------------------------------------
                   ___                                                        
                  /   \      - P O W E R E D   B Y -                         
                 /     \                                                     
                 |  |  |   _    _      __       _____    __    __             
                 |  |  |  | |  | |    /  \     |  _  \  |  |  /  |          
                  \  \/   | |  | |   /    \    | | | |  |  | /  /          
                 / \  \   | |__| |  /  /\  \   | |_| |  |  |/  /          
                |  |  |   |  __  | /  /__\  \  |    /   |      \           
                |  |  |   | |  | | |   __   |  |    \   |  |\   \          
                \     /   | |  | | |  |  |  |  | |\  \  |  | \   \       
                 \___/    |_|  |_| |__|  |__|  |_| \__\ |__|  \__/        
                                                                              
                      - O R C A' S   B I G   F R I E N D -                    
                                      &                                       
                       - I N T E G R A L  F E E D E R -                       
                                                                              
 v1 FN, 2020, v2 2021, v3 2022-2024                                           
------------------------------------------------------------------------------


----------------------
SHARK INTEGRAL PACKAGE
----------------------

Number of atoms                             ...     13
Number of basis functions                   ...    417
Number of shells                            ...    147
Maximum angular momentum                    ...      3
Integral batch strategy                     ... SHARK/LIBINT Hybrid
RI-J (if used) integral strategy            ... SPLIT-RIJ (Revised 2003 algorithm where possible)
Printlevel                                  ...      1
Contraction scheme used                     ... SEGMENTED contraction
Prescreening option                         ... SCHWARTZ
   Thresh                                   ... 1.000e-10
   Tcut                                     ... 1.000e-11
   Tpresel                                  ... 1.000e-11 
Coulomb Range Separation                    ... NOT USED
Exchange Range Separation                   ... Long Range
   Mu parameter                             ... 3.300e-01
   Scaling (regular/separated)              ... 1.900e-01 4.600e-01
Robust (split-)RI terms used:
  metric    (central integrals)             ... YES
  density   (r.h.s.  integrals)             ... YES
  potential (l.h.s.  integrals)             ... YES
Multipole approximations                    ... NOT USED
Finite Nucleus Model                        ... NOT USED
CABS basis                                  ... NOT available
Auxiliary Coulomb fitting basis             ... AVAILABLE
   # of basis functions in Aux-J            ...    677
   # of shells in Aux-J                     ...    203
   Maximum angular momentum in Aux-J        ...      4
Auxiliary J/K fitting basis                 ... NOT available
Auxiliary Correlation fitting basis         ... NOT available
Auxiliary 'external' fitting basis          ... NOT available

Checking pre-screening integrals            ... done (  0.0 sec) Dimension = 147
   => SHARK Basis and OBASIS are compatible. Storing Pre-screening
Shell pair information
Shell pair cut-off parameter TPreSel        ...   1.0e-11
Total number of shell pairs                 ...     10878
Shell pairs after pre-screening             ...      8970
Total number of primitive shell pairs       ...     38549
Primitive shell pairs kept                  ...     20846
          la=0 lb=0:   1620 shell pairs
          la=1 lb=0:   2262 shell pairs
          la=1 lb=1:    784 shell pairs
          la=2 lb=0:   1458 shell pairs
          la=2 lb=1:   1054 shell pairs
          la=2 lb=2:    346 shell pairs
          la=3 lb=0:    594 shell pairs
          la=3 lb=1:    466 shell pairs
          la=3 lb=2:    316 shell pairs
          la=3 lb=3:     70 shell pairs

Checking whether 4 symmetric matrices of dimension 417 fit in memory
:Max Core in MB      =   3000.00
 MB in use           =     15.06
 MB left             =   2984.94
 MB needed           =      2.66
 Data fit in memory  = YES
Calculating RI/J V-Matrix + Cholesky decomp.... done (  0.0 sec)
Calculating Nuclear repulsion               ... done (  0.0 sec) ENN=    890.446512275459 Eh

Diagonalization of the overlap matrix:
Smallest eigenvalue                        ... 1.697e-05
Time for diagonalization                   ...    0.032 sec
Threshold for overlap eigenvalues          ... 1.000e-07
Number of eigenvalues below threshold      ... 0
Time for construction of square roots      ...    0.012 sec
Total time needed                          ...    0.045 sec

-------------------
DFT GRID GENERATION
-------------------

General Integration Accuracy     IntAcc      ... 4.959
Radial Grid Type                 RadialGrid  ... OptM3 with GC (2021)
Angular Grid (max. ang.)         AngularGrid ... 6 (Lebedev-590)
Angular grid pruning method      GridPruning ... 4 (adaptive)
Weight generation scheme         WeightScheme... mBecke (2022)
Basis function cutoff            BFCut       ... 1.0000e-10
Integration weight cutoff        WCut        ... 1.0000e-14
Partially contracted basis set               ... off
Rotationally invariant grid construction     ... off
Angular grids for H and He will be reduced by one unit
Core-polarized basis detected: some atoms will have their core
                               angular grid increased.

Total number of grid points                  ...   199820
Total number of batches                      ...     3130
Average number of points per batch           ...       63
Average number of grid points per atom       ...    15371

--------------------
COSX GRID GENERATION
--------------------

GRIDX 1
-------
General Integration Accuracy     IntAcc      ... 4.020
Radial Grid Type                 RadialGrid  ... OptM3 with GC (2021)
Angular Grid (max. ang.)         AngularGrid ... 2 (Lebedev-110)
Angular grid pruning method      GridPruning ... 4 (adaptive)
Weight generation scheme         WeightScheme... mBecke (2022)
Basis function cutoff            BFCut       ... 1.0000e-10
Integration weight cutoff        WCut        ... 1.0000e-14
Partially contracted basis set               ... on
Rotationally invariant grid construction     ... off
Angular grids for H and He will be reduced by one unit
Core-polarized basis detected: some atoms will have their core
                               angular grid increased.

Total number of grid points                  ...    27664
Total number of batches                      ...      225
Average number of points per batch           ...      122
Average number of grid points per atom       ...     2128
UseSFitting                                  ... on

GRIDX 2
-------
General Integration Accuracy     IntAcc      ... 4.338
Radial Grid Type                 RadialGrid  ... OptM3 with GC (2021)
Angular Grid (max. ang.)         AngularGrid ... 3 (Lebedev-194)
Angular grid pruning method      GridPruning ... 4 (adaptive)
Weight generation scheme         WeightScheme... mBecke (2022)
Basis function cutoff            BFCut       ... 1.0000e-10
Integration weight cutoff        WCut        ... 1.0000e-14
Partially contracted basis set               ... on
Rotationally invariant grid construction     ... off
Angular grids for H and He will be reduced by one unit
Core-polarized basis detected: some atoms will have their core
                               angular grid increased.

Total number of grid points                  ...    54400
Total number of batches                      ...      429
Average number of points per batch           ...      126
Average number of grid points per atom       ...     4185
UseSFitting                                  ... on

GRIDX 3
-------
General Integration Accuracy     IntAcc      ... 4.871
Radial Grid Type                 RadialGrid  ... OptM3 with GC (2021)
Angular Grid (max. ang.)         AngularGrid ... 4 (Lebedev-302)
Angular grid pruning method      GridPruning ... 4 (adaptive)
Weight generation scheme         WeightScheme... mBecke (2022)
Basis function cutoff            BFCut       ... 1.0000e-10
Integration weight cutoff        WCut        ... 1.0000e-14
Partially contracted basis set               ... on
Rotationally invariant grid construction     ... off
Angular grids for H and He will be reduced by one unit
Core-polarized basis detected: some atoms will have their core
                               angular grid increased.

Total number of grid points                  ...    96728
Total number of batches                      ...      761
Average number of points per batch           ...      127
Average number of grid points per atom       ...     7441
UseSFitting                                  ... on
Grids setup in   3.7 sec
Initializing property integral containers    ... done (  0.0 sec)

SHARK setup successfully completed in   4.1 seconds

Maximum memory used throughout the entire STARTUP-calculation: 58.6 MB


           ************************************************************
           *        Program running with 4 parallel MPI-processes     *
           *              working on a common directory               *
           ************************************************************
-------------------------------------------------------------------------------
                                 ORCA GUESS
                   Start orbitals & Density for SCF / CASSCF
-------------------------------------------------------------------------------

------------
SCF SETTINGS
------------
Hamiltonian:
 Density Functional     Method          .... DFT(GTOs)
 Exchange Functional    Exchange        .... WB88
 Correlation Functional Correlation     .... LYP
 LDA part of GGA corr.  LDAOpt          .... VWN-5
 Gradients option       PostSCFGGA      .... off
 Hybrid DFT is turned on
   Fraction HF Exchange ScalHFX         ....  0.190000
   Scaling of DF-GGA-X  ScalDFX         ....  0.350000
   Scaling of DF-GGA-C  ScalDFC         ....  0.810000
   Scaling of DF-LDA-C  ScalLDAC        ....  1.000000
   Perturbative correction              ....  0.000000
 Long-range corrected/Screened/Range-Separated Hybrid DFT is turned on
   Amount of maximum screened exact exchange              ....  0.460000
   Range separation parameter mu (erf(mu*r12)/r12)        ....  0.330000
 RI-approximation to the Coulomb term is turned on
   Number of AuxJ basis functions       .... 677
   RIJ-COSX (HFX calculated with COS-X)).... on


General Settings:
 Integral files         IntName         .... fecn6_nkxas_camb3lyp_tzvp
 Hartree-Fock type      HFTyp           .... RHF
 Total Charge           Charge          ....   -4
 Multiplicity           Mult            ....    1
 Number of Electrons    NEL             ....  108
 Basis Dimension        Dim             ....  417
 Nuclear Repulsion      ENuc            ....    890.4465122755 Eh

Convergence Acceleration:
 AO-DIIS                CNVDIIS         .... on
   Start iteration      DIISMaxIt       ....    12
   Startup error        DIISStart       ....  0.200000
   # of expansion vecs  DIISMaxEq       ....     5
   Bias factor          DIISBfac        ....   1.050
   Max. coefficient     DIISMaxC        ....  10.000
 MO-DIIS                CNVKDIIS        .... off
 Trust-Rad. Augm. Hess. CNVTRAH         .... auto
   Auto Start mean grad. ratio tolernc. ....  1.125000
   Auto Start start iteration           ....    50
   Auto Start num. interpolation iter.  ....    10
   Max. Number of Micro iterations      ....    24
   Max. Number of Macro iterations      .... Maxiter - #DIIS iter
   Number of Davidson start vectors     ....     2
   Converg. threshold    (grad. norm)   ....   5.000e-05
   Grad. Scal. Fac. for Micro threshold ....   0.100
   Minimum threshold for Micro iter.    ....   1.000e-02
   NR start threshold (gradient norm)   ....   1.000e-04
   Initial trust radius                 ....   0.400
   Minimum AH scaling param. (alpha)    ....   1.000
   Maximum AH scaling param. (alpha)    .... 1000.000
   Quad. conv. algorithm                .... NR
   White noise on init. David. guess    .... on
   Maximum white noise                  ....   0.010
   Pseudo random numbers                .... off
   Inactive MOs                         .... canonical
   Orbital update algorithm             .... Taylor
   Preconditioner                       .... Diag
   Full preconditioner red. dimension   ....   250
 SOSCF                 CNVSOSCF           .... on
   Start iteration     SOSCFMaxIt         ....   150
   Startup grad/error  SOSCFStart         ....  0.003300
   Hessian update      SOSCFHessUp        .... L-BFGS
   Autom. constraints  SOSCFAutoConstrain .... off
 Level Shifting         CNVShift        .... on
   Level shift para.    LevelShift      ....    0.2500
   Turn off err/grad.   ShiftErr        ....    0.0010
 Zerner damping         CNVZerner       .... off
 Static damping         CNVDamp         .... on
   Fraction old density DampFac         ....    0.7000
   Max. Damping (<1)    DampMax         ....    0.9800
   Min. Damping (>=0)   DampMin         ....    0.0000
   Turn off err/grad.   DampErr         ....    0.1000

SCF Procedure:
 Maximum # iterations   MaxIter         ....   125
 SCF integral mode      SCFMode         .... Direct
   Integral package                     .... SHARK and LIBINT hybrid scheme
 Reset frequency        DirectResetFreq ....    20
 Integral Threshold     Thresh          ....  1.000e-10 Eh
 Primitive CutOff       TCut            ....  1.000e-11 Eh

Convergence Tolerance:
 Convergence Check Mode ConvCheckMode   .... Total+1el-Energy
 Convergence forced     ConvForced      .... 1
 Energy Change          TolE            ....  1.000e-06 Eh
 1-El. energy change                    ....  1.000e-03 Eh
 Orbital Gradient       TolG            ....  5.000e-05
 Orbital Rotation angle TolX            ....  5.000e-05
 DIIS Error             TolErr          ....  1.000e-06

------------------------------
INITIAL GUESS: MODEL POTENTIAL
------------------------------
Loading Hartree-Fock densities                     ... done
Calculating cut-offs                               ... done
Initializing the effective Hamiltonian             ... done
Setting up the integral package (SHARK)            ... done
Starting the Coulomb interaction                   ... done (   0.2 sec)
Making the grid                                    ... done (   0.2 sec)
Mapping shells                                     ... done
Starting the XC term evaluation                    ... done (   0.2 sec)
  promolecular density results
     # of electrons  =    104.003659602
     EX              =   -123.477591095
     EC              =     -3.668747667
     EX+EC           =   -127.146338762
Transforming the Hamiltonian                       ... done (   0.0 sec)
Diagonalizing the Hamiltonian                      ... done (   0.0 sec)
Back transforming the eigenvectors                 ... done (   0.0 sec)
Now organizing SCF variables                       ... done
                      ------------------
                      INITIAL GUESS DONE (   0.7 sec)
                      ------------------
             **** ENERGY FILE WAS UPDATED (fecn6_nkxas_camb3lyp_tzvp.en.tmp) ****
Finished Guess after   0.8 sec
Maximum memory used throughout the entire GUESS-calculation: 26.2 MB


           ************************************************************
           *        Program running with 4 parallel MPI-processes     *
           *              working on a common directory               *
           ************************************************************

-------------------------------------------------------------------------------------------
                                      ORCA LEAN-SCF
                              memory conserving SCF solver
-------------------------------------------------------------------------------------------

----------------------------------------D-I-I-S--------------------------------------------
Iteration    Energy (Eh)           Delta-E    RMSDP     MaxDP     DIISErr   Damp  Time(sec)
-------------------------------------------------------------------------------------------
               ***  Starting incremental Fock matrix formation  ***
    1    -1819.8613611934142682     0.00e+00  4.90e-03  7.36e-02  2.27e-01  0.700  17.6
    2    -1820.1005926829911914    -2.39e-01  5.95e-03  9.33e-02  1.20e-01  0.700   8.4
                               ***Turning on AO-DIIS***
    3    -1820.2272445024564149    -1.27e-01  3.86e-03  5.86e-02  5.41e-02  0.700   8.8
    4    -1820.3055450237661717    -7.83e-02  8.10e-03  1.25e-01  3.61e-02  0.000   9.9
    5    -1820.4737809551943428    -1.68e-01  6.00e-04  8.69e-03  1.11e-02  0.000  10.5
    6    -1820.4758746871029871    -2.09e-03  3.79e-04  8.07e-03  1.23e-02  0.000   9.0
    7    -1820.4764867728267745    -6.12e-04  1.66e-04  4.01e-03  1.51e-02  0.000   8.6
    8    -1820.4768740883605460    -3.87e-04  2.28e-04  3.88e-03  3.99e-03  0.000   8.2
                              *** Initializing SOSCF ***
---------------------------------------S-O-S-C-F--------------------------------------
Iteration    Energy (Eh)           Delta-E    RMSDP     MaxDP     MaxGrad    Time(sec)
--------------------------------------------------------------------------------------
    9    -1820.4770819013278924    -2.08e-04  1.85e-04  4.29e-03  1.75e-03     8.4
               *** Restarting incremental Fock matrix formation ***
   10    -1820.4771209224013546    -3.90e-05  1.86e-04  4.91e-03  6.43e-04    22.1
   11    -1820.4771139002023119     7.02e-06  1.94e-04  4.96e-03  1.18e-03    14.4
   12    -1820.4771292275072483    -1.53e-05  1.75e-04  4.87e-03  8.51e-05    14.4
   13    -1820.4771290693865922     1.58e-07  8.32e-05  1.93e-03  1.38e-04    13.8
                 **** Energy Check signals convergence ****

               *****************************************************
               *                     SUCCESS                       *
               *           SCF CONVERGED AFTER  13 CYCLES          *
               *****************************************************

Recomputing exchange energy using gridx3       ... done (   60.728 sec)
Old exchange energy                            :    -32.313465487 Eh
New exchange energy                            :    -32.313500767 Eh
Exchange energy change after final integration :     -0.000035280 Eh
Total energy after final integration           :  -1820.477164884 Eh
             **** ENERGY FILE WAS UPDATED (fecn6_nkxas_camb3lyp_tzvp.en.tmp) ****

----------------
TOTAL SCF ENERGY
----------------

Total Energy       :      -1820.47716488396327 Eh          -49537.70210 eV

Components:
Nuclear Repulsion  :        890.44651227545910 Eh           24230.28144 eV
Electronic Energy  :      -2710.92364187939165 Eh          -73767.98259 eV
One Electron Energy:      -4337.40355902659576 Eh         -118026.75121 eV
Two Electron Energy:       1626.47991714720433 Eh           44258.76862 eV

Virial components:
Potential Energy   :      -3636.97590058252763 Eh          -98967.14565 eV
Kinetic Energy     :       1816.49873569856436 Eh           49429.44354 eV
Virial Ratio       :          2.00219016347615

DFT components:
N(Alpha)           :       54.000010963236 electrons
N(Beta)            :       54.000010963236 electrons
N(Total)           :      108.000021926471 electrons
E(XC)              :      -97.629417403714 Eh       

---------------
SCF CONVERGENCE
---------------

  Last Energy change         ...   -1.5812e-07  Tolerance :   1.0000e-06
  Last MAX-Density change    ...    1.9263e-03  Tolerance :   1.0000e-05
  Last RMS-Density change    ...    8.3190e-05  Tolerance :   1.0000e-06
  Last DIIS Error            ...    1.7537e-03  Tolerance :   1.0000e-06
  Last Orbital Gradient      ...    1.3829e-04  Tolerance :   5.0000e-05
  Last Orbital Rotation      ...    1.1243e-04  Tolerance :   5.0000e-05


----------------
ORBITAL ENERGIES
----------------

  NO   OCC          E(Eh)            E(eV) 
   0   2.0000    -255.559279     -6954.1215 
   1   2.0000     -29.509553      -802.9958 
   2   2.0000     -25.372427      -690.4188 
   3   2.0000     -25.372427      -690.4188 
   4   2.0000     -25.372427      -690.4188 
   5   2.0000     -13.803526      -375.6130 
   6   2.0000     -13.803523      -375.6130 
   7   2.0000     -13.803523      -375.6130 
   8   2.0000     -13.803519      -375.6128 
   9   2.0000     -13.803519      -375.6128 
  10   2.0000     -13.803518      -375.6128 
  11   2.0000      -9.696005      -263.8417 
  12   2.0000      -9.696005      -263.8417 
  13   2.0000      -9.696003      -263.8417 
  14   2.0000      -9.695991      -263.8413 
  15   2.0000      -9.695991      -263.8413 
  16   2.0000      -9.695990      -263.8413 
  17   2.0000      -2.922782       -79.5329 
  18   2.0000      -1.693243       -46.0755 
  19   2.0000      -1.693243       -46.0755 
  20   2.0000      -1.693243       -46.0755 
  21   2.0000      -0.403368       -10.9762 
  22   2.0000      -0.400074       -10.8866 
  23   2.0000      -0.400074       -10.8866 
  24   2.0000      -0.400074       -10.8866 
  25   2.0000      -0.398810       -10.8522 
  26   2.0000      -0.398810       -10.8522 
  27   2.0000      -0.018769        -0.5107 
  28   2.0000       0.056664         1.5419 
  29   2.0000       0.056664         1.5419 
  30   2.0000       0.056664         1.5419 
  31   2.0000       0.065843         1.7917 
  32   2.0000       0.065843         1.7917 
  33   2.0000       0.118559         3.2262 
  34   2.0000       0.131772         3.5857 
  35   2.0000       0.131772         3.5857 
  36   2.0000       0.131772         3.5857 
  37   2.0000       0.135914         3.6984 
  38   2.0000       0.135914         3.6984 
  39   2.0000       0.135914         3.6984 
  40   2.0000       0.156907         4.2696 
  41   2.0000       0.156907         4.2697 
  42   2.0000       0.165371         4.5000 
  43   2.0000       0.165371         4.5000 
  44   2.0000       0.165371         4.5000 
  45   2.0000       0.176781         4.8105 
  46   2.0000       0.176781         4.8105 
  47   2.0000       0.176781         4.8105 
  48   2.0000       0.195524         5.3205 
  49   2.0000       0.195524         5.3205 
  50   2.0000       0.195524         5.3205 
  51   2.0000       0.275777         7.5043 
  52   2.0000       0.275777         7.5043 
  53   2.0000       0.275777         7.5043 
  54   0.0000       0.553317        15.0565 
  55   0.0000       0.630358        17.1529 
  56   0.0000       0.630368        17.1532 
  57   0.0000       0.640637        17.4326 
  58   0.0000       0.640639        17.4327 
  59   0.0000       0.640640        17.4327 
  60   0.0000       0.641035        17.4434 
  61   0.0000       0.641035        17.4435 
  62   0.0000       0.641035        17.4435 
  63   0.0000       0.662509        18.0278 
  64   0.0000       0.662509        18.0278 
*Only the first 10 virtual orbitals were printed.

                    ********************************
                    * MULLIKEN POPULATION ANALYSIS *
                    ********************************

-----------------------
MULLIKEN ATOMIC CHARGES
-----------------------
   0 Fe:   -0.100595
   1 C :   -0.423525
   2 C :   -0.423473
   3 C :   -0.423410
   4 C :   -0.423466
   5 C :   -0.423510
   6 C :   -0.423223
   7 N :   -0.226449
   8 N :   -0.226458
   9 N :   -0.226457
  10 N :   -0.226498
  11 N :   -0.226483
  12 N :   -0.226451
Sum of atomic charges:   -4.0000000

--------------------------------
MULLIKEN REDUCED ORBITAL CHARGES
--------------------------------
  0 Fes       :     6.599563  s :     6.599563
      pz      :     4.251991  p :    12.755967
      px      :     4.251987
      py      :     4.251989
      dz2     :     0.672785  d :     6.743780
      dxz     :     1.799390
      dyz     :     1.799392
      dx2y2   :     0.672824
      dxy     :     1.799390
      f0      :     0.000385  f :     0.001285
      f+1     :     0.000171
      f-1     :     0.000171
      f+2     :     0.000043
      f-2     :     0.000000
      f+3     :     0.000257
      f-3     :     0.000257

  1 C s       :     3.643285  s :     3.643285
      pz      :     0.761414  p :     2.696502
      px      :     1.173673
      py      :     0.761416
      dz2     :     0.006701  d :     0.073332
      dxz     :     0.024386
      dyz     :     0.000565
      dx2y2   :     0.017294
      dxy     :     0.024386
      f0      :     0.001454  f :     0.010405
      f+1     :     0.000995
      f-1     :     0.000248
      f+2     :     0.002424
      f-2     :     0.000047
      f+3     :     0.001609
      f-3     :     0.003629

  2 C s       :     3.643269  s :     3.643269
      pz      :     0.761415  p :     2.696468
      px      :     1.173638
      py      :     0.761415
      dz2     :     0.006701  d :     0.073331
      dxz     :     0.024386
      dyz     :     0.000565
      dx2y2   :     0.017293
      dxy     :     0.024386
      f0      :     0.001454  f :     0.010405
      f+1     :     0.000995
      f-1     :     0.000248
      f+2     :     0.002424
      f-2     :     0.000047
      f+3     :     0.001609
      f-3     :     0.003629

  3 C s       :     3.643143  s :     3.643143
      pz      :     0.761414  p :     2.696526
      px      :     0.761416
      py      :     1.173696
      dz2     :     0.006702  d :     0.073336
      dxz     :     0.000565
      dyz     :     0.024386
      dx2y2   :     0.017297
      dxy     :     0.024386
      f0      :     0.001454  f :     0.010405
      f+1     :     0.000248
      f-1     :     0.000995
      f+2     :     0.002424
      f-2     :     0.000047
      f+3     :     0.003629
      f-3     :     0.001609

  4 C s       :     3.643318  s :     3.643318
      pz      :     0.761414  p :     2.696417
      px      :     0.761415
      py      :     1.173588
      dz2     :     0.006699  d :     0.073326
      dxz     :     0.000565
      dyz     :     0.024386
      dx2y2   :     0.017290
      dxy     :     0.024386
      f0      :     0.001454  f :     0.010405
      f+1     :     0.000248
      f-1     :     0.000995
      f+2     :     0.002424
      f-2     :     0.000047
      f+3     :     0.003629
      f-3     :     0.001609

  5 C s       :     3.643274  s :     3.643274
      pz      :     1.173674  p :     2.696502
      px      :     0.761414
      py      :     0.761415
      dz2     :     0.022587  d :     0.073329
      dxz     :     0.024386
      dyz     :     0.024386
      dx2y2   :     0.001405
      dxy     :     0.000565
      f0      :     0.002530  f :     0.010405
      f+1     :     0.003872
      f-1     :     0.003872
      f+2     :     0.000074
      f-2     :     0.000047
      f+3     :     0.000006
      f-3     :     0.000006

  6 C s       :     3.643003  s :     3.643003
      pz      :     1.173653  p :     2.696484
      px      :     0.761416
      py      :     0.761415
      dz2     :     0.022590  d :     0.073332
      dxz     :     0.024386
      dyz     :     0.024386
      dx2y2   :     0.001405
      dxy     :     0.000565
      f0      :     0.002530  f :     0.010405
      f+1     :     0.003872
      f-1     :     0.003872
      f+2     :     0.000074
      f-2     :     0.000047
      f+3     :     0.000006
      f-3     :     0.000006

  7 N s       :     3.252749  s :     3.252749
      pz      :     1.261667  p :     3.936458
      px      :     1.413125
      py      :     1.261667
      dz2     :     0.001628  d :     0.035140
      dxz     :     0.014317
      dyz     :     0.000001
      dx2y2   :     0.004877
      dxy     :     0.014317
      f0      :     0.000382  f :     0.002102
      f+1     :     0.000024
      f-1     :     0.000064
      f+2     :     0.000637
      f-2     :     0.000000
      f+3     :     0.000040
      f-3     :     0.000955

  8 N s       :     3.252756  s :     3.252756
      pz      :     1.261667  p :     3.936461
      px      :     1.413128
      py      :     1.261667
      dz2     :     0.001628  d :     0.035140
      dxz     :     0.014317
      dyz     :     0.000001
      dx2y2   :     0.004877
      dxy     :     0.014317
      f0      :     0.000382  f :     0.002102
      f+1     :     0.000024
      f-1     :     0.000064
      f+2     :     0.000637
      f-2     :     0.000000
      f+3     :     0.000040
      f-3     :     0.000955

  9 N s       :     3.252751  s :     3.252751
      pz      :     1.261667  p :     3.936464
      px      :     1.261667
      py      :     1.413130
      dz2     :     0.001628  d :     0.035140
      dxz     :     0.000001
      dyz     :     0.014317
      dx2y2   :     0.004877
      dxy     :     0.014317
      f0      :     0.000382  f :     0.002102
      f+1     :     0.000064
      f-1     :     0.000024
      f+2     :     0.000637
      f-2     :     0.000000
      f+3     :     0.000955
      f-3     :     0.000040

 10 N s       :     3.252806  s :     3.252806
      pz      :     1.261667  p :     3.936450
      px      :     1.261667
      py      :     1.413116
      dz2     :     0.001628  d :     0.035140
      dxz     :     0.000001
      dyz     :     0.014317
      dx2y2   :     0.004877
      dxy     :     0.014317
      f0      :     0.000382  f :     0.002102
      f+1     :     0.000064
      f-1     :     0.000024
      f+2     :     0.000637
      f-2     :     0.000000
      f+3     :     0.000955
      f-3     :     0.000040

 11 N s       :     3.252786  s :     3.252786
      pz      :     1.413121  p :     3.936455
      px      :     1.261667
      py      :     1.261667
      dz2     :     0.006502  d :     0.035140
      dxz     :     0.014317
      dyz     :     0.014317
      dx2y2   :     0.000003
      dxy     :     0.000001
      f0      :     0.000063  f :     0.002102
      f+1     :     0.001019
      f-1     :     0.001019
      f+2     :     0.000000
      f-2     :     0.000000
      f+3     :     0.000000
      f-3     :     0.000000

 12 N s       :     3.252745  s :     3.252745
      pz      :     1.413130  p :     3.936464
      px      :     1.261667
      py      :     1.261667
      dz2     :     0.006502  d :     0.035140
      dxz     :     0.014317
      dyz     :     0.014317
      dx2y2   :     0.000003
      dxy     :     0.000001
      f0      :     0.000063  f :     0.002102
      f+1     :     0.001019
      f-1     :     0.001019
      f+2     :     0.000000
      f-2     :     0.000000
      f+3     :     0.000000
      f-3     :     0.000000



                     *******************************
                     * LOEWDIN POPULATION ANALYSIS *
                     *******************************

----------------------
LOEWDIN ATOMIC CHARGES
----------------------
   0 Fe:   -0.791022
   1 C :   -0.271314
   2 C :   -0.271314
   3 C :   -0.271314
   4 C :   -0.271313
   5 C :   -0.271313
   6 C :   -0.271313
   7 N :   -0.263516
   8 N :   -0.263515
   9 N :   -0.263516
  10 N :   -0.263517
  11 N :   -0.263517
  12 N :   -0.263516

-------------------------------
LOEWDIN REDUCED ORBITAL CHARGES
-------------------------------
  0 Fes       :     6.270282  s :     6.270282
      pz      :     4.309139  p :    12.927417
      px      :     4.309139
      py      :     4.309139
      dz2     :     1.016853  d :     7.590582
      dxz     :     1.852292
      dyz     :     1.852292
      dx2y2   :     1.016853
      dxy     :     1.852292
      f0      :     0.000841  f :     0.002741
      f+1     :     0.000361
      f-1     :     0.000361
      f+2     :     0.000073
      f-2     :     0.000000
      f+3     :     0.000553
      f-3     :     0.000553

  1 C s       :     3.070310  s :     3.070310
      pz      :     0.759218  p :     2.801389
      px      :     1.282952
      py      :     0.759218
      dz2     :     0.032390  d :     0.346613
      dxz     :     0.111120
      dyz     :     0.001479
      dx2y2   :     0.090503
      dxy     :     0.111120
      f0      :     0.006458  f :     0.053003
      f+1     :     0.007036
      f-1     :     0.001070
      f+2     :     0.010604
      f-2     :     0.000250
      f+3     :     0.011595
      f-3     :     0.015992

  2 C s       :     3.070309  s :     3.070309
      pz      :     0.759218  p :     2.801389
      px      :     1.282952
      py      :     0.759218
      dz2     :     0.032390  d :     0.346612
      dxz     :     0.111120
      dyz     :     0.001479
      dx2y2   :     0.090503
      dxy     :     0.111120
      f0      :     0.006458  f :     0.053003
      f+1     :     0.007035
      f-1     :     0.001070
      f+2     :     0.010604
      f-2     :     0.000250
      f+3     :     0.011595
      f-3     :     0.015992

  3 C s       :     3.070310  s :     3.070310
      pz      :     0.759218  p :     2.801389
      px      :     0.759218
      py      :     1.282953
      dz2     :     0.032390  d :     0.346612
      dxz     :     0.001479
      dyz     :     0.111120
      dx2y2   :     0.090502
      dxy     :     0.111120
      f0      :     0.006458  f :     0.053003
      f+1     :     0.001070
      f-1     :     0.007035
      f+2     :     0.010604
      f-2     :     0.000250
      f+3     :     0.015992
      f-3     :     0.011595

  4 C s       :     3.070309  s :     3.070309
      pz      :     0.759218  p :     2.801388
      px      :     0.759218
      py      :     1.282951
      dz2     :     0.032390  d :     0.346612
      dxz     :     0.001479
      dyz     :     0.111120
      dx2y2   :     0.090502
      dxy     :     0.111120
      f0      :     0.006458  f :     0.053003
      f+1     :     0.001070
      f-1     :     0.007035
      f+2     :     0.010604
      f-2     :     0.000250
      f+3     :     0.015991
      f-3     :     0.011595

  5 C s       :     3.070309  s :     3.070309
      pz      :     1.282952  p :     2.801388
      px      :     0.759218
      py      :     0.759218
      dz2     :     0.119559  d :     0.346612
      dxz     :     0.111120
      dyz     :     0.111120
      dx2y2   :     0.003334
      dxy     :     0.001479
      f0      :     0.018434  f :     0.053003
      f+1     :     0.017028
      f-1     :     0.017028
      f+2     :     0.000196
      f-2     :     0.000250
      f+3     :     0.000033
      f-3     :     0.000033

  6 C s       :     3.070309  s :     3.070309
      pz      :     1.282952  p :     2.801389
      px      :     0.759218
      py      :     0.759218
      dz2     :     0.119559  d :     0.346612
      dxz     :     0.111120
      dyz     :     0.111120
      dx2y2   :     0.003334
      dxy     :     0.001479
      f0      :     0.018434  f :     0.053003
      f+1     :     0.017028
      f-1     :     0.017028
      f+2     :     0.000196
      f-2     :     0.000250
      f+3     :     0.000033
      f-3     :     0.000033

  7 N s       :     3.307818  s :     3.307818
      pz      :     1.161428  p :     3.861774
      px      :     1.538919
      py      :     1.161427
      dz2     :     0.011299  d :     0.081790
      dxz     :     0.018300
      dyz     :     0.000001
      dx2y2   :     0.033890
      dxy     :     0.018300
      f0      :     0.001069  f :     0.012134
      f+1     :     0.002412
      f-1     :     0.000178
      f+2     :     0.001782
      f-2     :     0.000001
      f+3     :     0.004020
      f-3     :     0.002672

  8 N s       :     3.307818  s :     3.307818
      pz      :     1.161427  p :     3.861774
      px      :     1.538919
      py      :     1.161427
      dz2     :     0.011299  d :     0.081790
      dxz     :     0.018300
      dyz     :     0.000001
      dx2y2   :     0.033890
      dxy     :     0.018300
      f0      :     0.001069  f :     0.012134
      f+1     :     0.002412
      f-1     :     0.000178
      f+2     :     0.001782
      f-2     :     0.000001
      f+3     :     0.004020
      f-3     :     0.002672

  9 N s       :     3.307818  s :     3.307818
      pz      :     1.161428  p :     3.861774
      px      :     1.161428
      py      :     1.538919
      dz2     :     0.011299  d :     0.081790
      dxz     :     0.000001
      dyz     :     0.018300
      dx2y2   :     0.033890
      dxy     :     0.018300
      f0      :     0.001069  f :     0.012134
      f+1     :     0.000178
      f-1     :     0.002412
      f+2     :     0.001782
      f-2     :     0.000001
      f+3     :     0.002672
      f-3     :     0.004020

 10 N s       :     3.307820  s :     3.307820
      pz      :     1.161428  p :     3.861774
      px      :     1.161427
      py      :     1.538919
      dz2     :     0.011299  d :     0.081790
      dxz     :     0.000001
      dyz     :     0.018300
      dx2y2   :     0.033890
      dxy     :     0.018300
      f0      :     0.001069  f :     0.012134
      f+1     :     0.000178
      f-1     :     0.002412
      f+2     :     0.001782
      f-2     :     0.000001
      f+3     :     0.002672
      f-3     :     0.004020

 11 N s       :     3.307819  s :     3.307819
      pz      :     1.538918  p :     3.861774
      px      :     1.161428
      py      :     1.161428
      dz2     :     0.045186  d :     0.081790
      dxz     :     0.018300
      dyz     :     0.018300
      dx2y2   :     0.000003
      dxy     :     0.000001
      f0      :     0.006432  f :     0.012134
      f+1     :     0.002850
      f-1     :     0.002850
      f+2     :     0.000000
      f-2     :     0.000001
      f+3     :     0.000000
      f-3     :     0.000000

 12 N s       :     3.307819  s :     3.307819
      pz      :     1.538919  p :     3.861774
      px      :     1.161428
      py      :     1.161428
      dz2     :     0.045186  d :     0.081790
      dxz     :     0.018300
      dyz     :     0.018300
      dx2y2   :     0.000003
      dxy     :     0.000001
      f0      :     0.006432  f :     0.012134
      f+1     :     0.002850
      f-1     :     0.002850
      f+2     :     0.000000
      f-2     :     0.000001
      f+3     :     0.000000
      f-3     :     0.000000



                      *****************************
                      * MAYER POPULATION ANALYSIS *
                      *****************************

  NA   - Mulliken gross atomic population
  ZA   - Total nuclear charge
  QA   - Mulliken gross atomic charge
  VA   - Mayer's total valence
  BVA  - Mayer's bonded valence
  FA   - Mayer's free valence

  ATOM       NA         ZA         QA         VA         BVA        FA
  0 Fe    26.1006    26.0000    -0.1006     4.1637     4.1637     0.0000
  1 C      6.4235     6.0000    -0.4235     3.8813     3.8813     0.0000
  2 C      6.4235     6.0000    -0.4235     3.8814     3.8814     0.0000
  3 C      6.4234     6.0000    -0.4234     3.8813     3.8813     0.0000
  4 C      6.4235     6.0000    -0.4235     3.8813     3.8813     0.0000
  5 C      6.4235     6.0000    -0.4235     3.8811     3.8811     0.0000
  6 C      6.4232     6.0000    -0.4232     3.8815     3.8815     0.0000
  7 N      7.2264     7.0000    -0.2264     3.1078     3.1078    -0.0000
  8 N      7.2265     7.0000    -0.2265     3.1078     3.1078     0.0000
  9 N      7.2265     7.0000    -0.2265     3.1078     3.1078     0.0000
 10 N      7.2265     7.0000    -0.2265     3.1078     3.1078     0.0000
 11 N      7.2265     7.0000    -0.2265     3.1078     3.1078     0.0000
 12 N      7.2265     7.0000    -0.2265     3.1078     3.1078     0.0000

  Mayer bond orders larger than 0.100000
B(  0-Fe,  1-C ) :   0.7088 B(  0-Fe,  2-C ) :   0.7088 B(  0-Fe,  3-C ) :   0.7087 
B(  0-Fe,  4-C ) :   0.7088 B(  0-Fe,  5-C ) :   0.7086 B(  0-Fe,  6-C ) :   0.7088 
B(  1-C ,  7-N ) :   3.1337 B(  2-C ,  8-N ) :   3.1337 B(  3-C ,  9-N ) :   3.1337 
B(  4-C , 10-N ) :   3.1337 B(  5-C , 11-N ) :   3.1337 B(  6-C , 12-N ) :   3.1338 


-------
TIMINGS
-------

Total SCF time: 0 days 0 hours 3 min 51 sec 

Total time                  ....     231.225 sec
Sum of individual times     ....     215.292 sec  ( 93.1%)

SCF preparation             ....       0.304 sec  (  0.1%)
Fock matrix formation       ....     213.253 sec  ( 92.2%)
  Startup                   ....       0.017 sec  (  0.0% of F)
  Split-RI-J                ....       6.249 sec  (  2.9% of F)
  Chain of spheres X        ....     201.863 sec  ( 94.7% of F)
  XC integration            ....      20.720 sec  (  9.7% of F)
    XC Preparation          ....       0.000 sec  (  0.0% of XC)
    Basis function eval.    ....       6.667 sec  ( 32.2% of XC)
    Density eval.           ....       6.208 sec  ( 30.0% of XC)
    XC-Functional eval.     ....       1.450 sec  (  7.0% of XC)
    XC-Potential eval.      ....       5.546 sec  ( 26.8% of XC)
Diagonalization             ....       0.000 sec  (  0.0%)
Density matrix formation    ....       0.132 sec  (  0.1%)
Total Energy calculation    ....       0.058 sec  (  0.0%)
Population analysis         ....       0.088 sec  (  0.0%)
Orbital Transformation      ....       0.173 sec  (  0.1%)
Orbital Orthonormalization  ....       0.000 sec  (  0.0%)
DIIS solution               ....       0.973 sec  (  0.4%)
SOSCF solution              ....       0.297 sec  (  0.1%)
Finished LeanSCF after 231.3 sec

Maximum memory used throughout the entire LEANSCF-calculation: 41.5 MB


           ************************************************************
           *        Program running with 4 parallel MPI-processes     *
           *              working on a common directory               *
           ************************************************************

------------------------------------------------------------------------------
                         ORCA PROPERTY INTEGRAL CALCULATIONS
------------------------------------------------------------------------------

GBWName                                   ... fecn6_nkxas_camb3lyp_tzvp.gbw
Number of atoms                           ...     13
Number of basis functions                 ...    417
Max core memory                           ...   3000 MB

Dipole integrals                          ... YES
Quadrupole integrals                      ...  NO
Linear momentum integrals                 ... YES
Angular momentum integrals                ... YES
Higher moments length integrals           ...  NO
Higher moments velocity integrals         ...  NO
Kinetic energy integrals                  ...  NO
GIAO right hand sides                     ...  NO
GIAO dipole derivative integrals          ...  NO
SOC integrals                             ...  NO
EPR diamagnetic integrals (GIAO)          ...  NO
EPR gauge integrals                       ...  NO
Field gradient integrals                  ...  NO (   0 nuclei)
Spin-dipole/Fermi contact integrals       ...  NO (   0 nuclei)
Contact density integrals                 ...  NO (   0 nuclei)
Nucleus-orbit integrals                   ...  NO (   0 nuclei)
Geometric perturbations                   ...  NO (  13 nuclei)

Choice of electric origin   ... Center of mass
Position of electric origin ... (  0.0000,  0.0000, -0.0000) 
Choice of magnetic origin   ... GIAO
Position of magnetic origin ... (  0.0000,  0.0000,  0.0000) 

Calculating integrals                     ... Electric Dipole (Length)     done (  0.0 sec)
Calculating integrals                     ... Linear Momentum              done (  0.1 sec)
Calculating integrals                     ... Angular Momentum  (ElOri)    done (  0.1 sec)

Property integrals calculated in   0.2 sec

Maximum memory used throughout the entire PROPINT-calculation: 30.2 MB


           ************************************************************
           *        Program running with 4 parallel MPI-processes     *
           *              working on a common directory               *
           ************************************************************
------------------------------------------------------------------------------
                        ORCA TD-DFT/TDA CALCULATION
------------------------------------------------------------------------------

Input orbitals are from        ... fecn6_nkxas_camb3lyp_tzvp.gbw
CI-vector output               ... fecn6_nkxas_camb3lyp_tzvp.cis
Solver                         ... FN-2001
Tamm-Dancoff approximation     ... operative
CIS-Integral strategy          ... AO-integrals
Integral handling              ... AO integral Direct
Max. core memory used          ... 3000 MB
Reference state                ... RHF
Generation of triplets         ... off
Follow IRoot                   ... off
Number of operators            ... 1
Orbital ranges used for CIS calculation:
 Operator 0:  Orbitals   5... 10  to  54...416
XAS localization array:
 Operator 0:  Orbitals  -1... -1

-------------------
XC-INTEGRATION GRID
-------------------

General Integration Accuracy     IntAcc      ... 3.467
Radial Grid Type                 RadialGrid  ... OptM3 with GC (2021)
Angular Grid (max. ang.)         AngularGrid ... 3 (Lebedev-194)
Angular grid pruning method      GridPruning ... 4 (adaptive)
Weight generation scheme         WeightScheme... mBecke (2022)
Basis function cutoff            BFCut       ... 1.0000e-10
Integration weight cutoff        WCut        ... 1.0000e-14
Partially contracted basis set               ... off
Rotationally invariant grid construction     ... off
Angular grids for H and He will be reduced by one unit
Core-polarized basis detected: some atoms will have their core
                               angular grid increased.

Total number of grid points                  ...    34564
Total number of batches                      ...      548
Average number of points per batch           ...       63
Average number of grid points per atom       ...     2659

---------------------
COSX-INTEGRATION GRID
---------------------

General Integration Accuracy     IntAcc      ... 3.067
Radial Grid Type                 RadialGrid  ... OptM3 with GC (2021)
Angular Grid (max. ang.)         AngularGrid ... 2 (Lebedev-110)
Angular grid pruning method      GridPruning ... 4 (adaptive)
Weight generation scheme         WeightScheme... mBecke (2022)
Basis function cutoff            BFCut       ... 1.0000e-10
Integration weight cutoff        WCut        ... 1.0000e-14
Partially contracted basis set               ... on
Rotationally invariant grid construction     ... off
Angular grids for H and He will be reduced by one unit
Core-polarized basis detected: some atoms will have their core
                               angular grid increased.

Total number of grid points                  ...    16688
Total number of batches                      ...      136
Average number of points per batch           ...      122
Average number of grid points per atom       ...     1284

---------------
TD-DFT XC SETUP
---------------

DFT calculation                         ... on
Name of the grid file                   ... fecn6_nkxas_camb3lyp_tzvp.grid_cis.tmp
RI-approximation                        ... on
Aux-basis dimension                     ... 0
Exchange functional (TD-DFT)            ... WB88
Correlation functional (TD-DFT)         ... LYP
 LDA part of GGA corr.  LDAOpt (TD-DFT) ... VWN-5
Hybrid DFT                              ... on
   Exchange mixing (TD-DFT)             ...  0.190
   GGA exch. scaling (TD-DFT)           ...  0.350
   GGA corr. scaling (TD-DFT)           ...  0.810
Range-Separated Exchange                ... on
   Range Range separation parameter mu  .... 0.330
   Max. amount of RS exchange (TD-DFT)  ...  0.460

Building densities             ... done
Calculating rho(r) on the grid ... done
Building xc-kernel on the grid ... done
                    *** TD-DFT CALCULATION INITIALIZED ***

------------------------
DAVIDSON-DIAGONALIZATION
------------------------

Dimension of the eigenvalue problem            ...   2178
Number of roots to be determined               ...     80
Maximum size of the expansion space            ...    800
Maximum number of iterations                   ...    100
Convergence tolerance for the residual         ...    1.000e-06
Convergence tolerance for the energies         ...    1.000e-06
Orthogonality tolerance                        ...    1.000e-14
Level Shift                                    ...    0.000e+00
Constructing the preconditioner                ... o.k.
Building the initial guess                     ... o.k.
Number of trial vectors determined             ...    512


                       ****Iteration    0****
   Time for iteration     :  TOTAL=433.6 TRAFO=0.6 RIJ=24.9 COSX=293.5 XC=112.1
   Size of expansion space: 240
   Lowest Energy          :    14.252932257033
   Maximum Energy change  :    14.389834203588 (vector 79)
   Maximum residual norm  :     0.003405478482

                       ****Iteration    1****
   Time for iteration     :  TOTAL=102.1 TRAFO=0.2 RIJ=3.4 COSX=68.9 XC=29.5
   Size of expansion space: 320
   Lowest Energy          :    14.248894467087
   Maximum Energy change  :     0.004037789959 (vector 1)
   Maximum residual norm  :     0.000067521988

                       ****Iteration    2****
   Time for iteration     :  TOTAL=97.9 TRAFO=0.3 RIJ=5.7 COSX=58.7 XC=32.6
   Size of expansion space: 400
   Lowest Energy          :    14.248885193006
   Maximum Energy change  :     0.000015976277 (vector 31)
   Maximum residual norm  :     0.000000367449

      *** CONVERGENCE OF RESIDUAL NORM REACHED ***

Storing the converged CI vectors               ... fecn6_nkxas_camb3lyp_tzvp.cis1

                 *** DAVIDSON DONE ***

Total time for solving the CIS problem:   636.805sec

------------------------------------
TD-DFT/TDA EXCITED STATES (SINGLETS)
------------------------------------

the weight of the individual excitations are printed if larger than 1.0e-02

STATE  1:  E=  14.248885 au    387.732 eV  3127268.8 cm**-1 <S**2> =   0.000000 Mult 1
     5a ->  71a  :     0.085602 (c= -0.29257877)
     6a ->  60a  :     0.327024 (c= -0.57185993)
     6a ->  62a  :     0.018934 (c= -0.13760056)
     7a ->  60a  :     0.012094 (c=  0.10997173)
     7a ->  71a  :     0.036548 (c= -0.19117522)
     8a ->  59a  :     0.048011 (c=  0.21911387)
     8a ->  64a  :     0.013077 (c=  0.11435474)
     8a ->  65a  :     0.068133 (c=  0.26102320)
     8a ->  66a  :     0.035875 (c=  0.18940784)
     8a ->  67a  :     0.068434 (c=  0.26159854)
     9a ->  57a  :     0.048039 (c=  0.21917829)
     9a ->  63a  :     0.073468 (c=  0.27105004)
     9a ->  65a  :     0.010846 (c= -0.10414350)
     9a ->  66a  :     0.013880 (c= -0.11781291)
     9a ->  67a  :     0.018957 (c=  0.13768455)
     9a ->  68a  :     0.074200 (c= -0.27239705)

STATE  2:  E=  14.248885 au    387.732 eV  3127268.8 cm**-1 <S**2> =   0.000000 Mult 1
     5a ->  73a  :     0.079783 (c=  0.28245891)
     6a ->  61a  :     0.026659 (c= -0.16327477)
     6a ->  73a  :     0.034475 (c= -0.18567522)
     7a ->  60a  :     0.014459 (c= -0.12024498)
     7a ->  61a  :     0.083975 (c=  0.28978524)
     7a ->  62a  :     0.225639 (c=  0.47501515)
     9a ->  58a  :     0.048405 (c=  0.22001151)
     9a ->  64a  :     0.066475 (c=  0.25782717)
     9a ->  65a  :     0.010256 (c= -0.10127159)
     9a ->  66a  :     0.060313 (c=  0.24558767)
     9a ->  67a  :     0.016273 (c= -0.12756376)
     9a ->  68a  :     0.028117 (c= -0.16768245)
    10a ->  59a  :     0.041693 (c=  0.20418795)
    10a ->  63a  :     0.013234 (c=  0.11504119)
    10a ->  64a  :     0.016979 (c=  0.13030395)
    10a ->  65a  :     0.056573 (c=  0.23785132)
    10a ->  66a  :     0.023879 (c= -0.15452708)
    10a ->  67a  :     0.082292 (c= -0.28686527)

STATE  3:  E=  14.248885 au    387.732 eV  3127268.8 cm**-1 <S**2> =   0.000000 Mult 1
     5a ->  72a  :     0.082370 (c= -0.28700166)
     6a ->  61a  :     0.088542 (c= -0.29756036)
     6a ->  62a  :     0.069535 (c=  0.26369521)
     6a ->  72a  :     0.017973 (c= -0.13406303)
     7a ->  61a  :     0.165100 (c= -0.40632467)
     7a ->  62a  :     0.035880 (c=  0.18942045)
     7a ->  72a  :     0.019459 (c=  0.13949413)
     8a ->  58a  :     0.050171 (c= -0.22398938)
     8a ->  64a  :     0.070697 (c= -0.26588843)
     8a ->  65a  :     0.010380 (c=  0.10188055)
     8a ->  66a  :     0.051865 (c=  0.22773836)
     8a ->  67a  :     0.015212 (c= -0.12333733)
     8a ->  68a  :     0.037563 (c= -0.19381100)
    10a ->  57a  :     0.044292 (c=  0.21045594)
    10a ->  63a  :     0.069158 (c=  0.26297842)
    10a ->  65a  :     0.018150 (c= -0.13472358)
    10a ->  66a  :     0.027289 (c=  0.16519261)
    10a ->  67a  :     0.010738 (c= -0.10362509)
    10a ->  68a  :     0.069164 (c=  0.26299073)

STATE  4:  E=  14.248904 au    387.732 eV  3127272.9 cm**-1 <S**2> =   0.000000 Mult 1
     5a ->  66a  :     0.065574 (c=  0.25607336)
     5a ->  67a  :     0.022493 (c=  0.14997833)
     5a ->  68a  :     0.056713 (c= -0.23814451)
     6a ->  58a  :     0.037196 (c= -0.19286136)
     6a ->  59a  :     0.032330 (c=  0.17980594)
     6a ->  64a  :     0.038238 (c= -0.19554650)
     6a ->  65a  :     0.071802 (c=  0.26795969)
     6a ->  66a  :     0.016871 (c=  0.12988976)
     7a ->  57a  :     0.021913 (c=  0.14802885)
     7a ->  63a  :     0.031613 (c=  0.17780082)
     7a ->  64a  :     0.022843 (c=  0.15113858)
     7a ->  67a  :     0.028549 (c= -0.16896307)
     8a ->  60a  :     0.083578 (c= -0.28909829)
     8a ->  61a  :     0.055337 (c= -0.23523857)
     8a ->  62a  :     0.014681 (c=  0.12116528)
     8a ->  71a  :     0.023149 (c= -0.15214690)
     8a ->  72a  :     0.028342 (c= -0.16835172)
     9a ->  60a  :     0.012553 (c=  0.11204182)
     9a ->  61a  :     0.033424 (c=  0.18282299)
     9a ->  62a  :     0.075015 (c=  0.27388780)
     9a ->  71a  :     0.010731 (c= -0.10358976)
     9a ->  73a  :     0.028600 (c=  0.16911552)
    10a ->  62a  :     0.084994 (c=  0.29153709)
    10a ->  73a  :     0.026546 (c= -0.16293065)

STATE  5:  E=  14.248904 au    387.732 eV  3127272.9 cm**-1 <S**2> =   0.000000 Mult 1
     5a ->  67a  :     0.117336 (c=  0.34254299)
     5a ->  68a  :     0.022480 (c=  0.14993184)
     6a ->  58a  :     0.061677 (c=  0.24834839)
     6a ->  59a  :     0.010886 (c=  0.10433391)
     6a ->  64a  :     0.110743 (c=  0.33278095)
     6a ->  67a  :     0.010333 (c=  0.10165333)
     7a ->  57a  :     0.010863 (c=  0.10422794)
     7a ->  59a  :     0.024399 (c=  0.15620333)
     7a ->  63a  :     0.018581 (c=  0.13631371)
     7a ->  65a  :     0.036163 (c=  0.19016490)
     7a ->  66a  :     0.036282 (c= -0.19047870)
     8a ->  60a  :     0.061713 (c= -0.24842196)
     8a ->  61a  :     0.055388 (c=  0.23534678)
     8a ->  62a  :     0.059350 (c= -0.24361906)
     8a ->  71a  :     0.028936 (c= -0.17010628)
     8a ->  72a  :     0.029407 (c=  0.17148488)
     9a ->  60a  :     0.016100 (c=  0.12688598)
     9a ->  61a  :     0.032293 (c= -0.17970259)
     9a ->  62a  :     0.042433 (c= -0.20599275)
     9a ->  73a  :     0.028192 (c= -0.16790421)
    10a ->  61a  :     0.015286 (c=  0.12363543)
    10a ->  62a  :     0.078022 (c=  0.27932462)
    10a ->  73a  :     0.033096 (c= -0.18192383)

STATE  6:  E=  14.248904 au    387.732 eV  3127272.9 cm**-1 <S**2> =   0.000000 Mult 1
     5a ->  66a  :     0.073928 (c=  0.27189661)
     5a ->  68a  :     0.062732 (c=  0.25046262)
     6a ->  57a  :     0.013687 (c=  0.11699241)
     6a ->  63a  :     0.023627 (c=  0.15371144)
     6a ->  67a  :     0.027692 (c=  0.16640800)
     6a ->  68a  :     0.030931 (c= -0.17587311)
     7a ->  57a  :     0.060801 (c= -0.24657949)
     7a ->  59a  :     0.027572 (c=  0.16604844)
     7a ->  63a  :     0.096009 (c= -0.30985295)
     7a ->  65a  :     0.047101 (c=  0.21702658)
     7a ->  68a  :     0.010709 (c= -0.10348650)
     8a ->  60a  :     0.031884 (c= -0.17856056)
     8a ->  71a  :     0.010225 (c= -0.10111694)
     9a ->  60a  :     0.149441 (c= -0.38657541)
     9a ->  71a  :     0.049848 (c=  0.22326696)
    10a ->  61a  :     0.166454 (c=  0.40798714)
    10a ->  72a  :     0.057815 (c= -0.24044853)

STATE  7:  E=  14.248921 au    387.733 eV  3127276.7 cm**-1 <S**2> =   0.000000 Mult 1
     5a ->  60a  :     0.232698 (c= -0.48238798)
     5a ->  62a  :     0.018132 (c= -0.13465407)
     6a ->  71a  :     0.118205 (c= -0.34380888)
     7a ->  60a  :     0.102248 (c= -0.31976276)
     8a ->  59a  :     0.047948 (c=  0.21897120)
     8a ->  64a  :     0.013711 (c=  0.11709564)
     8a ->  65a  :     0.067804 (c=  0.26039221)
     8a ->  66a  :     0.035139 (c=  0.18745314)
     8a ->  67a  :     0.068967 (c=  0.26261559)
     9a ->  57a  :     0.048254 (c= -0.21966750)
     9a ->  63a  :     0.073917 (c= -0.27187668)
     9a ->  65a  :     0.010587 (c=  0.10289487)
     9a ->  66a  :     0.014092 (c=  0.11871044)
     9a ->  67a  :     0.019395 (c= -0.13926645)
     9a ->  68a  :     0.073645 (c=  0.27137671)

STATE  8:  E=  14.248921 au    387.733 eV  3127276.7 cm**-1 <S**2> =   0.000000 Mult 1
     5a ->  60a  :     0.017038 (c=  0.13053129)
     5a ->  61a  :     0.049364 (c= -0.22217981)
     5a ->  62a  :     0.168957 (c= -0.41104347)
     6a ->  61a  :     0.057252 (c=  0.23927287)
     6a ->  62a  :     0.053954 (c=  0.23227922)
     7a ->  62a  :     0.014686 (c=  0.12118613)
     7a ->  73a  :     0.109937 (c= -0.33156728)
     9a ->  58a  :     0.048179 (c= -0.21949807)
     9a ->  64a  :     0.066242 (c= -0.25737589)
     9a ->  65a  :     0.010706 (c=  0.10346870)
     9a ->  66a  :     0.058800 (c= -0.24248692)
     9a ->  67a  :     0.015281 (c=  0.12361732)
     9a ->  68a  :     0.029658 (c=  0.17221482)
    10a ->  59a  :     0.040994 (c=  0.20247039)
    10a ->  63a  :     0.014534 (c=  0.12055725)
    10a ->  64a  :     0.017341 (c=  0.13168391)
    10a ->  65a  :     0.055355 (c=  0.23527641)
    10a ->  66a  :     0.022783 (c= -0.15093905)
    10a ->  67a  :     0.084064 (c= -0.28993817)

STATE  9:  E=  14.248921 au    387.733 eV  3127276.7 cm**-1 <S**2> =   0.000000 Mult 1
     5a ->  61a  :     0.189494 (c= -0.43530873)
     5a ->  62a  :     0.051474 (c=  0.22687886)
     6a ->  61a  :     0.025128 (c= -0.15851897)
     6a ->  62a  :     0.036927 (c=  0.19216497)
     6a ->  72a  :     0.049720 (c= -0.22298065)
[...]
  0-1A  -> 59-1A   391.092786 3154376.4     3.2   -0.00000  -0.00000   0.00000  -0.00003
  0-1A  -> 60-1A   391.092795 3154376.5     3.2   -0.00000  -0.00000   0.00001   0.00001
  0-1A  -> 61-1A   391.115879 3154562.6     3.2    0.00001   0.00192  -0.00133   0.00013
  0-1A  -> 62-1A   391.115882 3154562.7     3.2   -0.00000   0.00021  -0.00008   0.00035
  0-1A  -> 63-1A   391.115886 3154562.7     3.2   -0.00006   0.00035   0.00068  -0.00271
  0-1A  -> 64-1A   391.115897 3154562.8     3.2    0.00029  -0.00426  -0.00252   0.00078
  0-1A  -> 65-1A   391.115901 3154562.8     3.2    0.00000  -0.00081   0.00003   0.00043
  0-1A  -> 66-1A   391.115905 3154562.8     3.2   -0.00035   0.00134  -0.00199  -0.00590
  0-1A  -> 67-1A   391.115916 3154562.9     3.2   -0.00024  -0.02419   0.01691  -0.02097
  0-1A  -> 68-1A   391.115916 3154562.9     3.2    0.00004  -0.01938  -0.03018  -0.00236
  0-1A  -> 69-1A   391.115917 3154562.9     3.2    0.00032   0.01867  -0.00966  -0.02883
  0-1A  -> 70-1A   391.115943 3154563.1     3.2    0.00003   0.00231   0.00084  -0.00121
  0-1A  -> 71-1A   391.115944 3154563.2     3.2   -0.00003  -0.00046   0.00418  -0.00321
  0-1A  -> 72-1A   391.115944 3154563.2     3.2   -0.00002   0.00038  -0.00434  -0.00264
  0-1A  -> 73-1A   391.554300 3158098.7     3.2    0.03902   0.22887   0.41370   0.36775
  0-1A  -> 74-1A   391.554301 3158098.8     3.2   -0.07442   0.12536  -0.40868   0.40562
  0-1A  -> 75-1A   391.554306 3158098.8     3.2    0.04999   0.51069  -0.03922  -0.26797
  0-1A  -> 76-1A   391.554318 3158098.9     3.2   -0.01262   0.11772   0.04555   0.00574
  0-1A  -> 77-1A   391.554320 3158098.9     3.2   -0.00967  -0.06816   0.13379   0.04473
  0-1A  -> 78-1A   391.554328 3158099.0     3.2    0.00925   0.16312  -0.12048   0.02571
  0-1A  -> 79-1A   391.554428 3158099.8     3.2    0.03236  -0.01092   0.01430  -0.00562
  0-1A  -> 80-1A   391.554431 3158099.8     3.2   -0.01880   0.00822   0.00526   0.00837

------------------------------------------------------------------------------------------
                     CD SPECTRUM VIA TRANSITION VELOCITY DIPOLE MOMENTS    
------------------------------------------------------------------------------------------
     Transition      Energy     Energy  Wavelength    R        MX        MY        MZ   
                      (eV)      (cm-1)    (nm)   (1e40*cgs)   (au)      (au)      (au)  
------------------------------------------------------------------------------------------
  0-1A  ->  1-1A   387.731878 3127268.8     3.2   -0.01745  -5.19480  -0.25150   0.43350
  0-1A  ->  2-1A   387.731879 3127268.8     3.2   -0.03266   0.46800  -0.81925   5.13292
  0-1A  ->  3-1A   387.731879 3127268.8     3.2    0.05022   0.17929  -5.14809  -0.83802
  0-1A  ->  4-1A   387.732385 3127272.9     3.2    0.00015  -0.00828  -0.00311   0.00432
  0-1A  ->  5-1A   387.732385 3127272.9     3.2   -0.00010  -0.00443   0.00219  -0.01348
  0-1A  ->  6-1A   387.732385 3127272.9     3.2   -0.00012   0.00960  -0.00293  -0.00328
  0-1A  ->  7-1A   387.732852 3127276.7     3.2   -0.00012  -0.00008   0.00036   0.00049
  0-1A  ->  8-1A   387.732853 3127276.7     3.2    0.00006  -0.00032   0.00012   0.00238
  0-1A  ->  9-1A   387.732853 3127276.7     3.2    0.00004   0.00022   0.00157   0.00084
  0-1A  -> 10-1A   387.733057 3127278.3     3.2   -0.00675   0.00129   0.00123   0.00179
  0-1A  -> 11-1A   387.733057 3127278.3     3.2   -0.05148   0.00485  -0.00058  -0.00430
  0-1A  -> 12-1A   387.733057 3127278.3     3.2    0.05821  -0.00277  -0.00150  -0.00403
  0-1A  -> 13-1A   388.020935 3129600.2     3.2   -0.00000  -0.00000   0.00005   0.00001
  0-1A  -> 14-1A   388.021021 3129600.9     3.2   -0.00001   0.00001   0.00005   0.00000
  0-1A  -> 15-1A   388.021078 3129601.4     3.2    0.00003  -0.00001  -0.00004  -0.00002
  0-1A  -> 16-1A   388.021108 3129601.6     3.2   -0.00000  -0.00001  -0.00001   0.00010
  0-1A  -> 17-1A   388.021136 3129601.8     3.2   -0.00002  -0.00006  -0.00002  -0.00000
  0-1A  -> 18-1A   388.021246 3129602.7     3.2    0.00000  -0.00003   0.00001   0.00002
  0-1A  -> 19-1A   389.686040 3143030.2     3.2   -0.00000  -0.00000   0.00002  -0.00000
  0-1A  -> 20-1A   389.686078 3143030.5     3.2    0.00000   0.00000   0.00000   0.00001
  0-1A  -> 21-1A   389.686167 3143031.2     3.2   -0.00000  -0.00000  -0.00000   0.00000
  0-1A  -> 22-1A   389.686198 3143031.5     3.2    0.00000  -0.00000  -0.00000   0.00000
  0-1A  -> 23-1A   389.686275 3143032.1     3.2    0.00000  -0.00000   0.00000  -0.00001
  0-1A  -> 24-1A   389.686400 3143033.1     3.2   -0.00000  -0.00000  -0.00000  -0.00000
  0-1A  -> 25-1A   390.096338 3146339.5     3.2    0.00000  -0.00000  -0.00001   0.00001
  0-1A  -> 26-1A   390.096398 3146340.0     3.2    0.00000   0.00001   0.00000  -0.00001
  0-1A  -> 27-1A   390.096452 3146340.4     3.2    0.00000   0.00002  -0.00002  -0.00000
  0-1A  -> 28-1A   390.096476 3146340.6     3.2   -0.00000   0.00000  -0.00000   0.00000
  0-1A  -> 29-1A   390.096543 3146341.1     3.2    0.00000   0.00000  -0.00000  -0.00000
  0-1A  -> 30-1A   390.096600 3146341.6     3.2   -0.00000   0.00000   0.00000   0.00000
  0-1A  -> 31-1A   390.233883 3147448.9     3.2   -0.00006  -0.00001   0.00002   0.00000
  0-1A  -> 32-1A   390.233964 3147449.5     3.2    0.00019  -0.00000   0.00001  -0.00001
  0-1A  -> 33-1A   390.234013 3147449.9     3.2   -0.00026   0.00001   0.00002   0.00000
  0-1A  -> 34-1A   390.234019 3147450.0     3.2    0.00012   0.00001  -0.00002  -0.00001
  0-1A  -> 35-1A   390.234119 3147450.8     3.2    0.00001   0.00000  -0.00001   0.00001
  0-1A  -> 36-1A   390.234251 3147451.8     3.2   -0.00000   0.00000   0.00000  -0.00000
  0-1A  -> 37-1A   390.671429 3150977.9     3.2   -0.00000   0.00000   0.00000   0.00000
  0-1A  -> 38-1A   390.671436 3150978.0     3.2   -0.00000  -0.00001   0.00000  -0.00000
  0-1A  -> 39-1A   390.671439 3150978.0     3.2    0.00000   0.00001  -0.00000   0.00000
  0-1A  -> 40-1A   390.671576 3150979.1     3.2    0.00000   0.00000  -0.00000   0.00000
  0-1A  -> 41-1A   390.671583 3150979.2     3.2    0.00000   0.00000   0.00000  -0.00000
  0-1A  -> 42-1A   390.671586 3150979.2     3.2   -0.00000   0.00000   0.00000  -0.00000
  0-1A  -> 43-1A   390.842147 3152354.8     3.2    0.00103  -0.05467   0.52439  -0.15604
  0-1A  -> 44-1A   390.842153 3152354.9     3.2   -0.02367   0.51404   0.05215   0.07987
  0-1A  -> 45-1A   390.842188 3152355.2     3.2    0.03565  -0.12060   0.16500   0.55414
  0-1A  -> 46-1A   390.842194 3152355.2     3.2   -0.00348   0.04435  -0.32500   0.11258
  0-1A  -> 47-1A   390.842218 3152355.4     3.2   -0.00925  -0.21225  -0.11415  -0.24220
  0-1A  -> 48-1A   390.842220 3152355.4     3.2    0.00982   0.30978   0.03860  -0.12568
  0-1A  -> 49-1A   390.842259 3152355.7     3.2    0.00171   0.01222  -0.00256  -0.00902
  0-1A  -> 50-1A   390.842297 3152356.1     3.2    0.01082   0.00792  -0.00146  -0.00669
  0-1A  -> 51-1A   390.842311 3152356.2     3.2   -0.01929  -0.00794   0.00102   0.00251
  0-1A  -> 52-1A   390.842329 3152356.3     3.2   -0.01990   0.00920   0.00387  -0.00494
  0-1A  -> 53-1A   390.842356 3152356.5     3.2    0.00441   0.00070   0.00084  -0.00466
  0-1A  -> 54-1A   390.842380 3152356.7     3.2    0.01214   0.00197   0.00231   0.00207
  0-1A  -> 55-1A   391.092664 3154375.4     3.2   -0.00000   0.00001   0.00001   0.00000
  0-1A  -> 56-1A   391.092673 3154375.5     3.2   -0.00000  -0.00001   0.00000   0.00002
  0-1A  -> 57-1A   391.092703 3154375.7     3.2    0.00000   0.00000  -0.00000   0.00001
  0-1A  -> 58-1A   391.092780 3154376.3     3.2    0.00000   0.00001  -0.00004   0.00000
  0-1A  -> 59-1A   391.092786 3154376.4     3.2   -0.00000  -0.00000   0.00000  -0.00003
  0-1A  -> 60-1A   391.092795 3154376.5     3.2   -0.00000  -0.00000   0.00001   0.00001
  0-1A  -> 61-1A   391.115879 3154562.6     3.2    0.00001   0.00192  -0.00133   0.00013
  0-1A  -> 62-1A   391.115882 3154562.7     3.2   -0.00000   0.00021  -0.00008   0.00035
  0-1A  -> 63-1A   391.115886 3154562.7     3.2   -0.00006   0.00035   0.00068  -0.00271
  0-1A  -> 64-1A   391.115897 3154562.8     3.2    0.00032  -0.00426  -0.00252   0.00078
  0-1A  -> 65-1A   391.115901 3154562.8     3.2    0.00000  -0.00081   0.00003   0.00043
  0-1A  -> 66-1A   391.115905 3154562.8     3.2   -0.00038   0.00134  -0.00199  -0.00590
  0-1A  -> 67-1A   391.115916 3154562.9     3.2   -0.00026  -0.02419   0.01691  -0.02097
  0-1A  -> 68-1A   391.115916 3154562.9     3.2    0.00004  -0.01938  -0.03018  -0.00236
  0-1A  -> 69-1A   391.115917 3154562.9     3.2    0.00035   0.01867  -0.00966  -0.02883
  0-1A  -> 70-1A   391.115943 3154563.1     3.2    0.00004   0.00231   0.00084  -0.00121
  0-1A  -> 71-1A   391.115944 3154563.2     3.2   -0.00003  -0.00046   0.00418  -0.00321
  0-1A  -> 72-1A   391.115944 3154563.2     3.2   -0.00002   0.00038  -0.00434  -0.00264
  0-1A  -> 73-1A   391.554300 3158098.7     3.2    0.03826   0.22887   0.41370   0.36775
  0-1A  -> 74-1A   391.554301 3158098.8     3.2   -0.07298   0.12536  -0.40868   0.40562
  0-1A  -> 75-1A   391.554306 3158098.8     3.2    0.04903   0.51069  -0.03922  -0.26797
  0-1A  -> 76-1A   391.554318 3158098.9     3.2   -0.01238   0.11772   0.04555   0.00574
  0-1A  -> 77-1A   391.554320 3158098.9     3.2   -0.00949  -0.06816   0.13379   0.04473
  0-1A  -> 78-1A   391.554328 3158099.0     3.2    0.00907   0.16312  -0.12048   0.02571
  0-1A  -> 79-1A   391.554428 3158099.8     3.2    0.03174  -0.01092   0.01430  -0.00562
  0-1A  -> 80-1A   391.554431 3158099.8     3.2   -0.01844   0.00822   0.00526   0.00837

Total run time:      643.288 sec

           *** ORCA-CIS/TD-DFT FINISHED WITHOUT ERROR ***
-----------------------
CIS/TD-DFT TOTAL ENERGY
-----------------------

    E(SCF)  =  -1820.477164884 Eh
    DE(CIS) =     14.248885193 Eh (Root  1)
    ----------------------------- ---------
    E(tot)  =  -1806.228279691 Eh


Maximum memory used throughout the entire CIS-calculation: 1718.0 MB
=> NOW LEAVING ORCA_CIS

-------------------------   --------------------
FINAL SINGLE POINT ENERGY     -1806.228279690957
-------------------------   --------------------



           ************************************************************
           *        Program running with 4 parallel MPI-processes     *
           *              working on a common directory               *
           ************************************************************

------------------------------------------------------------------------------
                              ORCA PROPERTY CALCULATIONS
------------------------------------------------------------------------------

GBWName                                 ... fecn6_nkxas_camb3lyp_tzvp.gbw
Number of atoms                         ...     13
Number of basis functions               ...    417
Max core memory                         ...   3000 MB

Electric properties:
Dipole moment                           ... YES
Quadrupole moment                       ...  NO
Static polarizability (Dipole/Dipole)   ...  NO
Static polarizability (Dipole/Quad.)    ...  NO
Static polarizability (Quad./Quad.)     ...  NO
Static polarizability (Velocity)        ...  NO
Static hyperpolarizability              ...  NO

Atomic electric properties:
Dipole moment                           ...  NO
Quadrupole moment                       ...  NO
Static polarizability                   ...  NO

Choice of electric origin               ... Center of mass
Position of electric origin             ...     0.000000     0.000000    -0.000000

General magnetic properties:
Magnetizability                         ...  NO

EPR properties:
g-Tensor (aka g-matrix)                 ...  NO
Zero-Field splitting spin-orbit         ...  NO
Zero-field splitting spin-spin          ...  NO
Hyperfine couplings                     ...  NO (   0 nuclei)
Quadrupole couplings                    ...  NO (   0 nuclei)
Contact density                         ...  NO (   0 nuclei)

NMR properties:
Chemical shifts                         ...  NO (   0 nuclei)
Spin-rotation constants                 ...  NO (   0 nuclei)
Spin-spin couplings                     ...  NO (   0 nuclei,    0 pairs)

Choice of magnetic origin               ... GIAO
Position of magnetic origin             ...     0.000000     0.000000     0.000000

Properties with geometric perturbations:
SCF Hessian                             ...  NO
IR spectrum                             ...  NO
VCD spectrum                            ...  NO
X-ray spectroscopy properties:
SCF XES/XAS/RIXS spectra                ...  NO

SCF SOC stabilization energy            ...  NO
Diagonal Born-Oppenheimer correction    ...  NO

-------------
DIPOLE MOMENT
-------------

Method             : SCF
Type of density    : Electron Density
Multiplicity       :   1
Irrep              :   0
Energy             : -1820.4771648839632689 Eh
Basis              : AO
                                X                 Y                 Z
Electronic contribution:      0.000009998       0.000002004       0.000001996
Nuclear contribution   :     -0.000003845      -0.000002859      -0.000000116
                        -----------------------------------------
Total Dipole Moment    :      0.000006154      -0.000000855       0.000001880
                        -----------------------------------------
Magnitude (a.u.)       :      0.000006491
Magnitude (Debye)      :      0.000016499



--------------------
Rotational spectrum 
--------------------
 
Rotational constants in cm-1:             0.022408             0.022408             0.022408 
Rotational constants in MHz :           671.763178           671.762443           671.760492 

Dipole components along the rotational axes: 
x,y,z [a.u.] :     0.000005     0.000001     0.000004 
x,y,z [Debye]:     0.000012     0.000003     0.000011 

 

Dipole moment calculation done in   0.0 sec 

Maximum memory used throughout the entire PROP-calculation: 25.8 MB

--------------------------------
SUGGESTED CITATIONS FOR THIS RUN
--------------------------------

Below you find a list of papers that are relevant to this ORCA run
We neither can nor want to force you to cite these papers, but we appreciate if you do
You receive ORCA, which is the product of decades of hard work by many enthusiastic individuals, for free
The only thing we kindly ask in return is that you cite our papers,
We deeply appreciate it, if you show your appreciation for ORCA by not just citing the generic ORCA reference.

Please note that relegating all ORCA citations to the supporting information does *not* help us.
SI sections are not indexed - citations you put there will not count into any citation statistics
But we need these citations in order to attract the funding resources that allow us to do what we are doing

Therefore, if you are a happy ORCA user, please consider citing a few of the papers listed below in the main body of your paper

In addition to the list printed below, the program has created the file fecn6_nkxas_camb3lyp_tzvp.bibtex that contains the list in bibtex format
You can import this file easily into all common literature databanks and citation aid programs

It goes without saying that in many instances, there are alternative algorithms to achieve similar
results as the ones you have gotten from ORCA. It is, of course, also the case that in some instances
ORCA just re-implements algorithms worked out by others. We are fully aware of that and we are also
fully appreciative of our colleagues work. Hence this citation list should not be read as indicating
that the listed papers, which are focused on our own work, are the only ones worth citing. It simply
meant to make it easier for users to cite ORCA specific papers. It is not a substitute for doing your
own literature research and citing the relevant literature in a scientifically appropriate manner.

List of essential papers. We consider these as the minimum necessary citations

  1. Neese, F.
     Software update: the ORCA program system, version 6.0
     WIRES Comput. Molec. Sci. 2025 15(1), e70019
     doi.org/10.1002/wcms.70019

List of papers to cite with high priority. The work reported in these papers was absolutely
necessary for this run to complete.
Our perspective: the developers of density functionals and basis sets usually get cited in chemistry papers
Good! But without the algorithms to do something with them, the functionals or basis sets would not do anything.
Hence, in our opinion, the algorithm design and method developments papers are equally worthy of getting cited

  1. Neese, F.; Olbrich, G.
     Efficient use of the resolution of the identity approximation in time-dependent density functional calculations with hybrid density functionals
     Chem. Phys. Lett. 2002 362 , 170-178
     doi.org/10.1016/s0009-2614(02)01053-9
  2. Neese, F.
     An improvement of the resolution of the identity approximation for the formation of the Coulomb matrix
     J. Comp. Chem. 2003 24(14), 1740-1747
     doi.org/10.1002/jcc.10318
  3. Neese, F.; Wennmohs, F.; Hansen, A.; Becker, U.
     Efficient, approximate and parallel Hartree-Fock and hybrid DFT calculations. A 'chain-of-spheres' algorithm for the Hartree-Fock exchange
     Chem. Phys. 2009 356(1-3), 98-109
     doi.org/10.1016/j.chemphys.2008.10.036
  4. Helmich-Paris, B.; de Souza, B.; Neese, F.; Izsák, R.
     An improved chain of spheres for exchange algorithm
     J. Chem. Phys. 2021 155(10), 104109
     doi.org/10.1063/5.0058766
  5. Neese, F.
     The SHARK Integral Generation and Digestion System
     J. Comp. Chem. 2022 44(3), 381
     doi.org/10.1002/jcc.26942

List of suggested additional citations. These are papers that are important in the 'surrounding' of 
of this run, or papers that preceded the highly important papers. If you like your results we are grateful for a citation.

  1. Izsak, R.; Neese, F.
     An overlap fitted chain of spheres exchange method
     J. Chem. Phys. 2011 135 , 144105
     doi.org/10.1063/1.3646921
  2. Izsak, R.; Hansen, A.; Neese, F.
     The resolution of identity and chain of spheres approximations for the LPNO-CCSD singles Fock term
     Molec. Phys. 2012 110 , 2413-2417
     doi.org/10.1080/00268976.2012.687466
  3. Neese, F.
     The ORCA program system
     WIRES Comput. Molec. Sci. 2012 2(1), 73-78
     doi.org/10.1002/wcms.81
  4. Izsak, R.; Neese, F.; Klopper, W.
     Robust fitting techniques in the chain of spheres approximation to the Fock exchange: The role of the complementary space
     J. Chem. Phys. 2013 139 , 
     doi.org/10.1063/1.4819264
  5. Neese, F.
     Software update: the ORCA program system, version 4.0
     WIRES Comput. Molec. Sci. 2018 8(1), 1-6
     doi.org/10.1002/wcms.1327
  6. Neese, F.; Wennmohs, F.; Becker, U.; Riplinger, C.
     The ORCA quantum chemistry program package
     J. Chem. Phys. 2020 152(22), 224108
     doi.org/10.1063/5.0004608
  7. Neese, F.
     Software update: The ORCA program system—Version 5.0
     WIRES Comput. Molec. Sci. 2022 12(1), e1606
     doi.org/10.1002/wcms.1606

List of optional additional citations

  1. Neese, F.
     Approximate second-order SCF convergence for spin unrestricted wavefunctions
     Chem. Phys. Lett. 2000 325(1-3), 93-98
     doi.org/10.1016/s0009-2614(00)00662-x

Timings for individual modules:

Sum of individual times          ...      881.515 sec (=  14.692 min)
Startup calculation              ...        4.340 sec (=   0.072 min)   0.5 %
SCF iterations                   ...      232.454 sec (=   3.874 min)  26.4 %
Property integrals               ...        0.657 sec (=   0.011 min)   0.1 %
Property calculations            ...        0.332 sec (=   0.006 min)   0.0 %
CIS module                       ...      643.732 sec (=  10.729 min)  73.0 %
                             ****ORCA TERMINATED NORMALLY****
TOTAL RUN TIME: 0 days 0 hours 14 minutes 41 seconds 843 msec
