
                                 *****************
                                 * O   R   C   A *
                                 *****************

                                            #,                                       
                                            ###                                      
                                            ####                                     
                                            #####                                    
                                            ######                                   
                                           ########,                                 
                                     ,,################,,,,,                         
                               ,,#################################,,                 
                          ,,##########################################,,             
                       ,#########################################, ''#####,          
                    ,#############################################,,   '####,        
                  ,##################################################,,,,####,       
                ,###########''''           ''''###############################       
              ,#####''   ,,,,##########,,,,          '''####'''          '####       
            ,##' ,,,,###########################,,,                        '##       
           ' ,,###''''                  '''############,,,                           
         ,,##''                                '''############,,,,        ,,,,,,###''
      ,#''                                            '''#######################'''  
     '                                                          ''''####''''         
             ,#######,   #######,   ,#######,      ##                                
            ,#'     '#,  ##    ##  ,#'     '#,    #''#        ,####,    ,#,          
            ##       ##  ##   ,#'  ##            #'  '#       #'       ,# #          
            ##       ##  #######   ##           ,######,      #####,      #          
            '#,     ,#'  ##    ##  '#,     ,#' ,#      #,     #,   #      #          
             '#######'   ##     ##  '#######'  #'      '#     '####' #    #          



                #########################################################
                #                        -***-                          #
                #          Department of theory and spectroscopy        #
                #                                                       #
                #                      Frank Neese                      #
                #                                                       #
                #     Directorship, Architecture, Infrastructure        #
                #                    SHARK, DRIVERS                     #
                #        Core code/Algorithms in most modules           #
                #                                                       #
                #        Max Planck Institute fuer Kohlenforschung      #
                #                Kaiser Wilhelm Platz 1                 #
                #                 D-45470 Muelheim/Ruhr                 #
                #                      Germany                          #
                #                                                       #
                #                  All rights reserved                  #
                #                        -***-                          #
                #########################################################


                         Program Version 6.1.1  -  RELEASE   -
                                (GIT: $487d211c$)
                          ($2025-11-21 10:33:24 +0100$)


 With contributions from (in alphabetic order):
[Max-Planck-Institut fuer Kohlenforschung]                               
  Daniel Aravena         : Magnetic Suceptibility                        
  Michael Atanasov       : Ab Initio Ligand Field Theory (pilot matlab implementation)
  Alexander A. Auer      : GIAO ZORA, VPT2 properties, NMR spectrum      
  Ute Becker             : All parallelization in ORCA, NUMFREQ, NUMCALC 
  Giovanni Bistoni       : ED, misc. LED, open-shell LED, HFLD           
  Dmytro Bykov           : pre 5.0 version of the SCF Hessian            
  Marcos Casanova-Páez   : Triplet and SCS-CIS(D). UHF-(DLPNO)-IP/EA/STEOM-CCSD. UHF-CVS-IP/STEOM-CCSD   
  Vijay G. Chilkuri      : MRCI spin determinant printing, contributions to CSF-ICE 
  Pauline Colinet        : FMM embedding                                 
  Dipayan Datta          : RHF DLPNO-CCSD density                        
  Achintya Kumar Dutta   : EOM-CC, STEOM-CC                              
  Nicolas Foglia         : Exact transition moments, OPA infrastructure, MCD improvements    
  Dmitry Ganyushin       : Spin-Orbit,Spin-Spin,Magnetic field MRCI      
  Miquel Garcia-Rates    : C-PCM and meta-GGA Hessian, CCSD/C-PCM, Gaussian charge scheme 
  Tiago L. C. Gouveia    : GS-ROHF, GS-ROCIS                             
  Yang Guo               : DLPNO-NEVPT2, F12-NEVPT2, CIM, IAO-localization        
  Andreas Hansen         : Spin unrestricted coupled pair/coupled cluster methods 
  Ingolf Harden          : AUTO-CI MPn and infrastructure                
  Benjamin Helmich-Paris : MC-RPA, TRAH-(SCF,CASSCF), AVAS, COSX integrals, SCF dyn. polar., MC-PDFT, srDFT 
  Lee Huntington         : MR-EOM, pCC                                   
  Robert Izsak           : Overlap fitted RIJCOSX, COSX-SCS-MP3, EOM     
  Riya Kayal             : Wick's Theorem for AUTO-CI, AUTO-CI UHF-CCSDT 
  Emily Kempfer          : AUTO-CI RHF CISDT and CCSDT, approximate NEVPT4
  Christian Kollmar      : KDIIS, OOCD, Brueckner-CCSD(T), CCSD density, CASPT2, CASPT2-K, improved NEVPT2 
  Axel Koslowski         : Symmetry handling                             
  Simone Kossmann        : meta-GGA functionals, TD-DFT gradient, OOMP2, (MP2 Hessian; deprecated post 5.0) 
  Lucas Lang             : DCDCAS, Hyperfine gauge corrections, ICE-SOC+SSC
  Marvin Lechner         : AUTO-CI (C++ implementation), FIC-MRCC        
  Spencer Leger          : CASSCF response                               
  Dagmar Lenk            : GEPOL surface, SMD, ORCA-2-JSON               
  Dimitrios Liakos       : Extrapolation schemes; Compound Job, Property file
  Dimitrios Manganas     : Further ROCIS development; embedding schemes. LFT, Crystal Embedding 
  Dimitrios Pantazis     : SARC Basis sets                               
  Anastasios Papadopoulos: AUTO-CI, single reference methods and gradients 
  Taras Petrenko         : pre 6.0 DFT Hessian and TD-DFT gradient,  ECA, NRVS 
  Petra Pikulova         : Analytic Raman intensities                    
  Peter Pinski           : DLPNO-MP2, DLPNO-MP2 Gradient                 
  Shashank Vittal Rao    : ES-AILFT, MagRelax                            
  Christoph Reimann      : Effective Core Potentials                     
  Marius Retegan         : Local ZFS, SOC                                
  Christoph Riplinger    : Optimizer, TS searches, QM/MM, DLPNO-CCSD(T), (RO)-DLPNO pert. Triples 
  Michael Roemelt        : Original ROCIS implementation, recursive CI coupling coefficients
  Masaaki Saitow         : Open-shell DLPNO-CCSD energy and density      
  Barbara Sandhoefer     : DKH picture change effects                    
  Yorick L. A. Schmerwitz: GMF and freeze-and-release deltaSCF, NEB S-IDPP initial path                    
  Kantharuban Sivalingam : CASSCF convergence/infrastructure, NEVPT2, NEVPT3, NEVPT4(SD), FIC-MRCI and CEPA variants
  Bernardo de Souza      : ESD, SOC TD-DFT                               
  Georgi L. Stoychev     : AutoAux, RI-MP2 NMR, DLPNO-MP2 response, X2C  
  Van Anh Tran           : RI-MP2 g-tensors                              
  Willem Van den Heuvel  : Paramagnetic NMR                              
  Zikuan Wang            : NOTCH, Electric field optimization            
  Frank Wennmohs         : Technical directorship and infrastructure     
  Hang Xu                : AUTO-CI-Response properties                   
                                                                         
[FACCTs GmbH]                                                            
  Markus Bursch, Nicolas Foglia, Miquel Garcia-Rates, Ingolf Harden, Hagen Neugebauer, Anastasios Papadopoulos, 
  Christoph Riplinger, Bernardo de Souza, Georgi L. Stoychev                                                    
                                                                 
  APM, various basis sets, CI-OPT, improved COSX, DLPNO-Multilevel,           
  DOCKER, DRACO, updates on ESD, Fragmentator, GOAT, IRC, LR-CPCM, L-BFGS, MBIS, meta-GGA TD-DFT gradient, ML-optimized integration grids, 
  MM, NACMEs, nearIR, NEB, NEB-TS, NL-DFT gradient (VV10), 2- and 3-layer-ONIOM, interface openCOSMO-RS, QMMM,   
  Crystal-QMMM, RESP, rigid body optimization, SF, symmetry and pop. for TD-DFT, various functionals, SOLVATOR                                   
                                                                         
[Other institutions]                                                     
  V. Asgeirsson          : NEB                                           
  Christoph Bannwarth    : sTDA-DFT, sTD-DFT, PBEh-3c, B97-3c, D3        
  Giovanni Bistoni       : ETS/NOCV, ADLD/ADEX, COVALED                  
  Martin Brehm           : Molecular dynamics                            
  Ronald Cardenas        : ETS/NOCV                                      
  Martina Colucci        : COVALED                                       
  Sebastian Ehlert       : rSCAN, r2SCAN, r2SCAN-3c, D4, dhf basis sets  
  Marvin Friede          : D4 for Fr, Ra, Ac-Lr                          
  Lars Goerigk           : TD-DFT with DH, B97 family of functionals     
  Stefan Grimme          : VdW corrections, initial TS optimization, DFT functionals, gCP, sTDA/sTD-DF 
  Waldemar Hujo          : DFT-NL                                        
  H. Jonsson             : NEB                                           
  Holger Kruse           : gCP                                           
  Marcel Mueller         : wB97X-3c, vDZP basis set                      
  Hagen Neugebauer       : wr2SCAN, Native XTB                           
  Gianluca Regni         : ADLD/ADEX                                     
  Tobias Risthaus        : pre 6.0 range-separated hybrid DFT and stability analysis
  Lukas Wittmann         : regularized MP2, r2SCAN double-hybrids, wr2SCAN        
                                                                         
We gratefully acknowledge several colleagues who have allowed us to      
interface, adapt or use parts of their codes:                            
  Ed Valeev, F. Pavosevic, A. Kumar             : LibInt (2-el integral package), F12 methods 
  Garnet Chan, S. Sharma, J. Yang, R. Olivares  : DMRG                   
  Ulf Ekstrom                                   : XCFun DFT Library      
  Mihaly Kallay                                 : mrcc  (arbitrary order and MRCC methods)
  Frank Weinhold                                : gennbo (NPA and NBO analysis)           
  Simon Mueller                                 : openCOSMO-RS                            
  Christopher J. Cramer and Donald G. Truhlar   : smd solvation model                     
  S Lehtola, MJT Oliveira, MAL Marques          : LibXC Library                           
  Liviu Ungur et al                             : ANISO software                          


 Your calculation uses the libint2 library for the computation of 2-el integrals
 For citations please refer to: http://libint.valeyev.net

 Your ORCA version has been built with support for libXC version: 7.0.0
 For citations please refer to: https://libxc.gitlab.io

 This ORCA versions uses:
   CBLAS   interface :  Fast vector & matrix operations
   LAPACKE interface :  Fast linear algebra routines
   SCALAPACK package :  Parallel linear algebra routines
   Shared memory     :  Shared parallel matrices
   BLAS/LAPACK       :  OpenBLAS 0.3.29  USE64BITINT DYNAMIC_ARCH NO_AFFINITY Haswell SINGLE_THREADED
        Core in use  :  Haswell
   Copyright (c) 2011-2014, The OpenBLAS Project


  ***********************************
  * Starting time: Wed Jun  3 16:19:32 2026
  * Host name:     steezy
  * Process ID:    1058711
  * Working dir.:  /home/jannes/hexacyanide/fecn6/02_nkxas/pbe0
  ***********************************

NOTE: MaxCore=3000 MB was set to SCF,MP2,MDCI,CIPSI,MRCI,RASCI and CIS
      => If you want to overwrite this, your respective input block should be placed after the MaxCore statement


***************************************
The coordinates will be read from file: ../../01_opt/fecn6_opt_pbe0_tzvp.xyz
***************************************


================================================================================

----- Orbital basis set information -----
Your calculation utilizes the basis: def2-TZVP
   F. Weigend and R. Ahlrichs, Phys. Chem. Chem. Phys. 7, 3297 (2005).

----- AuxJ basis set information -----
Your calculation utilizes the auxiliary basis: def2/J
   H-Rn: F. Weigend, Phys. Chem. Chem. Phys. 8, 1057 (2006).
   Fr-Lr: K. Eichkorn, F. Weigend, O. Treutler, R. Ahlrichs; Theor. Chem. Acc. 97, 119 (1997).

================================================================================
                                        WARNINGS
                       Please study these warnings very carefully!
================================================================================

WARNING: Old DensityContainer found on disk!
         Will remove this file - 
         If you want to keep old densities, please start your calculation with a different basename. 


WARNING: CIS/ROCIS methods need fully converged wavefunctions
  ===> : Setting SCFConvForced true
         You can overwrite this default with %scf ConvForced false 


================================================================================
                                       INPUT FILE
================================================================================
NAME = fecn6_nkxas_pbe0_tzvp.inp
|  1> %pal nprocs 4 end
|  2> %maxcore 3000
|  3> ! PBE0 def2-TZVP def2/J RIJCOSX DefGrid3
|  4> %tddft
|  5>   nroots 150
|  6>   OrbWin[0] = 5,10,-1,-1
|  7> end
|  8> * xyzfile -4 1 ../../01_opt/fecn6_opt_pbe0_tzvp.xyz
|  9> 
| 10>                          ****END OF INPUT****
================================================================================

                       ****************************
                       * Single Point Calculation *
                       ****************************

---------------------------------
CARTESIAN COORDINATES (ANGSTROEM)
---------------------------------
  Fe     0.000001    0.000001    0.000000
  C      1.992320   -0.000004   -0.000001
  C     -1.992317    0.000002    0.000002
  C     -0.000005    1.992321   -0.000001
  C     -0.000000   -1.992318    0.000002
  C      0.000002   -0.000002    1.992318
  C      0.000006    0.000002   -1.992319
  N      3.166046   -0.000007   -0.000004
  N     -3.166043    0.000004    0.000002
  N     -0.000013    3.166048   -0.000003
  N     -0.000001   -3.166044    0.000004
  N      0.000000   -0.000005    3.166045
  N      0.000005    0.000002   -3.166046

----------------------------
CARTESIAN COORDINATES (A.U.)
----------------------------
  NO LB      ZA    FRAG     MASS         X           Y           Z
   0 Fe   26.0000    0    55.850    0.000002    0.000002    0.000000
   1 C     6.0000    0    12.011    3.764938   -0.000007   -0.000002
   2 C     6.0000    0    12.011   -3.764934    0.000004    0.000003
   3 C     6.0000    0    12.011   -0.000009    3.764942   -0.000001
   4 C     6.0000    0    12.011   -0.000000   -3.764935    0.000004
   5 C     6.0000    0    12.011    0.000003   -0.000003    3.764935
   6 C     6.0000    0    12.011    0.000011    0.000003   -3.764937
   7 N     7.0000    0    14.007    5.982959   -0.000013   -0.000007
   8 N     7.0000    0    14.007   -5.982955    0.000007    0.000004
   9 N     7.0000    0    14.007   -0.000024    5.982963   -0.000005
  10 N     7.0000    0    14.007   -0.000002   -5.982957    0.000007
  11 N     7.0000    0    14.007    0.000001   -0.000009    5.982958
  12 N     7.0000    0    14.007    0.000009    0.000003   -5.982959

--------------------------------
INTERNAL COORDINATES (ANGSTROEM)
--------------------------------
 Fe     0   0   0     0.000000000000     0.00000000     0.00000000
 C      1   0   0     1.992318261767     0.00000000     0.00000000
 C      1   2   0     1.992318755222   179.99989449     0.00000000
 C      1   2   3     1.992320320540    90.00030639   176.08463907
 C      1   2   4     1.992318856103    89.99990346   180.00004421
 C      1   2   5     1.992318028941    90.00002332    89.99986381
 C      1   2   5     1.992318862032    89.99983068   269.99991913
 N      2   1   6     1.173726119520   179.99992353   182.76480919
 N      3   1   6     1.173726000184   179.99994479   117.62380217
 N      4   1   2     1.173726303437   179.99976173   159.22857827
 N      5   1   2     1.173726377493   179.99998099     0.00000000
 N      6   1   2     1.173726858407   179.99988695   222.45670598
 N      7   1   2     1.173726693986   179.99981964   172.72429205

---------------------------
INTERNAL COORDINATES (A.U.)
---------------------------
 Fe     0   0   0     0.000000000000     0.00000000     0.00000000
 C      1   0   0     3.764935886350     0.00000000     0.00000000
 C      1   2   0     3.764936818845   179.99989449     0.00000000
 C      1   2   3     3.764939776868    90.00030639   176.08463907
 C      1   2   4     3.764937009481    89.99990346   180.00004421
 C      1   2   5     3.764935446371    90.00002332    89.99986381
 C      1   2   5     3.764937020686    89.99983068   269.99991913
 N      2   1   6     2.218020922124   179.99992353   182.76480919
 N      3   1   6     2.218020696611   179.99994479   117.62380217
 N      4   1   2     2.218021269676   179.99976173   159.22857827
 N      5   1   2     2.218021409621   179.99998099     0.00000000
 N      6   1   2     2.218022318417   179.99988695   222.45670598
 N      7   1   2     2.218022007706   179.99981964   172.72429205

---------------------
BASIS SET INFORMATION
---------------------
There are 3 groups of distinct atoms

 Group   1 Type Fe  : 17s11p7d1f contracted to 6s4p4d1f pattern {842111/6311/4111/1}
 Group   2 Type C   : 11s6p2d1f contracted to 5s3p2d1f pattern {62111/411/11/1}
 Group   3 Type N   : 11s6p2d1f contracted to 5s3p2d1f pattern {62111/411/11/1}

Atom   0Fe   basis set group =>   1
Atom   1C    basis set group =>   2
Atom   2C    basis set group =>   2
Atom   3C    basis set group =>   2
Atom   4C    basis set group =>   2
Atom   5C    basis set group =>   2
Atom   6C    basis set group =>   2
Atom   7N    basis set group =>   3
Atom   8N    basis set group =>   3
Atom   9N    basis set group =>   3
Atom  10N    basis set group =>   3
Atom  11N    basis set group =>   3
Atom  12N    basis set group =>   3
---------------------------------
AUXILIARY/J BASIS SET INFORMATION
---------------------------------
There are 3 groups of distinct atoms

 Group   1 Type Fe  : 19s5p5d3f3g contracted to 8s5p5d2f3g pattern {121111111/11111/11111/21/111}
 Group   2 Type C   : 12s5p4d2f1g contracted to 6s4p3d1f1g pattern {711111/2111/211/2/1}
 Group   3 Type N   : 12s5p4d2f1g contracted to 6s4p3d1f1g pattern {711111/2111/211/2/1}

Atom   0Fe   basis set group =>   1
Atom   1C    basis set group =>   2
Atom   2C    basis set group =>   2
Atom   3C    basis set group =>   2
Atom   4C    basis set group =>   2
Atom   5C    basis set group =>   2
Atom   6C    basis set group =>   2
Atom   7N    basis set group =>   3
Atom   8N    basis set group =>   3
Atom   9N    basis set group =>   3
Atom  10N    basis set group =>   3
Atom  11N    basis set group =>   3
Atom  12N    basis set group =>   3


           ************************************************************
           *        Program running with 4 parallel MPI-processes     *
           *              working on a common directory               *
           ************************************************************
------------------------------------------------------------------------------
                             ORCA STARTUP CALCULATIONS
                           -- RI-GTO INTEGRALS CHOSEN --
------------------------------------------------------------------------------
------------------------------------------------------------------------------
                   ___                                                        
                  /   \      - P O W E R E D   B Y -                         
                 /     \                                                     
                 |  |  |   _    _      __       _____    __    __             
                 |  |  |  | |  | |    /  \     |  _  \  |  |  /  |          
                  \  \/   | |  | |   /    \    | | | |  |  | /  /          
                 / \  \   | |__| |  /  /\  \   | |_| |  |  |/  /          
                |  |  |   |  __  | /  /__\  \  |    /   |      \           
                |  |  |   | |  | | |   __   |  |    \   |  |\   \          
                \     /   | |  | | |  |  |  |  | |\  \  |  | \   \       
                 \___/    |_|  |_| |__|  |__|  |_| \__\ |__|  \__/        
                                                                              
                      - O R C A' S   B I G   F R I E N D -                    
                                      &                                       
                       - I N T E G R A L  F E E D E R -                       
                                                                              
 v1 FN, 2020, v2 2021, v3 2022-2024                                           
------------------------------------------------------------------------------


----------------------
SHARK INTEGRAL PACKAGE
----------------------

Number of atoms                             ...     13
Number of basis functions                   ...    417
Number of shells                            ...    147
Maximum angular momentum                    ...      3
Integral batch strategy                     ... SHARK/LIBINT Hybrid
RI-J (if used) integral strategy            ... SPLIT-RIJ (Revised 2003 algorithm where possible)
Printlevel                                  ...      1
Contraction scheme used                     ... SEGMENTED contraction
Prescreening option                         ... SCHWARTZ
   Thresh                                   ... 1.000e-10
   Tcut                                     ... 1.000e-11
   Tpresel                                  ... 1.000e-11 
Coulomb Range Separation                    ... NOT USED
Exchange Range Separation                   ... NOT USED
Multipole approximations                    ... NOT USED
Finite Nucleus Model                        ... NOT USED
CABS basis                                  ... NOT available
Auxiliary Coulomb fitting basis             ... AVAILABLE
   # of basis functions in Aux-J            ...    677
   # of shells in Aux-J                     ...    203
   Maximum angular momentum in Aux-J        ...      4
Auxiliary J/K fitting basis                 ... NOT available
Auxiliary Correlation fitting basis         ... NOT available
Auxiliary 'external' fitting basis          ... NOT available

Checking pre-screening integrals            ... done (  0.0 sec) Dimension = 147
   => SHARK Basis and OBASIS are compatible. Storing Pre-screening
Shell pair information
Shell pair cut-off parameter TPreSel        ...   1.0e-11
Total number of shell pairs                 ...     10878
Shell pairs after pre-screening             ...      8970
Total number of primitive shell pairs       ...     38549
Primitive shell pairs kept                  ...     20846
          la=0 lb=0:   1620 shell pairs
          la=1 lb=0:   2262 shell pairs
          la=1 lb=1:    784 shell pairs
          la=2 lb=0:   1458 shell pairs
          la=2 lb=1:   1054 shell pairs
          la=2 lb=2:    346 shell pairs
          la=3 lb=0:    594 shell pairs
          la=3 lb=1:    466 shell pairs
          la=3 lb=2:    316 shell pairs
          la=3 lb=3:     70 shell pairs

Checking whether 4 symmetric matrices of dimension 417 fit in memory
:Max Core in MB      =   3000.00
 MB in use           =     15.06
 MB left             =   2984.94
 MB needed           =      2.66
 Data fit in memory  = YES
Calculating RI/J V-Matrix + Cholesky decomp.... done (  0.0 sec)
Calculating Nuclear repulsion               ... done (  0.0 sec) ENN=    890.446512275459 Eh

Diagonalization of the overlap matrix:
Smallest eigenvalue                        ... 1.697e-05
Time for diagonalization                   ...    0.030 sec
Threshold for overlap eigenvalues          ... 1.000e-07
Number of eigenvalues below threshold      ... 0
Time for construction of square roots      ...    0.011 sec
Total time needed                          ...    0.043 sec

-------------------
DFT GRID GENERATION
-------------------

General Integration Accuracy     IntAcc      ... 4.959
Radial Grid Type                 RadialGrid  ... OptM3 with GC (2021)
Angular Grid (max. ang.)         AngularGrid ... 6 (Lebedev-590)
Angular grid pruning method      GridPruning ... 4 (adaptive)
Weight generation scheme         WeightScheme... mBecke (2022)
Basis function cutoff            BFCut       ... 1.0000e-10
Integration weight cutoff        WCut        ... 1.0000e-14
Partially contracted basis set               ... off
Rotationally invariant grid construction     ... off
Angular grids for H and He will be reduced by one unit
Core-polarized basis detected: some atoms will have their core
                               angular grid increased.

Total number of grid points                  ...   199820
Total number of batches                      ...     3130
Average number of points per batch           ...       63
Average number of grid points per atom       ...    15371

--------------------
COSX GRID GENERATION
--------------------

GRIDX 1
-------
General Integration Accuracy     IntAcc      ... 4.020
Radial Grid Type                 RadialGrid  ... OptM3 with GC (2021)
Angular Grid (max. ang.)         AngularGrid ... 2 (Lebedev-110)
Angular grid pruning method      GridPruning ... 4 (adaptive)
Weight generation scheme         WeightScheme... mBecke (2022)
Basis function cutoff            BFCut       ... 1.0000e-10
Integration weight cutoff        WCut        ... 1.0000e-14
Partially contracted basis set               ... on
Rotationally invariant grid construction     ... off
Angular grids for H and He will be reduced by one unit
Core-polarized basis detected: some atoms will have their core
                               angular grid increased.

Total number of grid points                  ...    27664
Total number of batches                      ...      225
Average number of points per batch           ...      122
Average number of grid points per atom       ...     2128
UseSFitting                                  ... on

GRIDX 2
-------
General Integration Accuracy     IntAcc      ... 4.338
Radial Grid Type                 RadialGrid  ... OptM3 with GC (2021)
Angular Grid (max. ang.)         AngularGrid ... 3 (Lebedev-194)
Angular grid pruning method      GridPruning ... 4 (adaptive)
Weight generation scheme         WeightScheme... mBecke (2022)
Basis function cutoff            BFCut       ... 1.0000e-10
Integration weight cutoff        WCut        ... 1.0000e-14
Partially contracted basis set               ... on
Rotationally invariant grid construction     ... off
Angular grids for H and He will be reduced by one unit
Core-polarized basis detected: some atoms will have their core
                               angular grid increased.

Total number of grid points                  ...    54400
Total number of batches                      ...      429
Average number of points per batch           ...      126
Average number of grid points per atom       ...     4185
UseSFitting                                  ... on

GRIDX 3
-------
General Integration Accuracy     IntAcc      ... 4.871
Radial Grid Type                 RadialGrid  ... OptM3 with GC (2021)
Angular Grid (max. ang.)         AngularGrid ... 4 (Lebedev-302)
Angular grid pruning method      GridPruning ... 4 (adaptive)
Weight generation scheme         WeightScheme... mBecke (2022)
Basis function cutoff            BFCut       ... 1.0000e-10
Integration weight cutoff        WCut        ... 1.0000e-14
Partially contracted basis set               ... on
Rotationally invariant grid construction     ... off
Angular grids for H and He will be reduced by one unit
Core-polarized basis detected: some atoms will have their core
                               angular grid increased.

Total number of grid points                  ...    96728
Total number of batches                      ...      761
Average number of points per batch           ...      127
Average number of grid points per atom       ...     7441
UseSFitting                                  ... on
Grids setup in   3.7 sec
Initializing property integral containers    ... done (  0.0 sec)

SHARK setup successfully completed in   4.1 seconds

Maximum memory used throughout the entire STARTUP-calculation: 58.6 MB


           ************************************************************
           *        Program running with 4 parallel MPI-processes     *
           *              working on a common directory               *
           ************************************************************
-------------------------------------------------------------------------------
                                 ORCA GUESS
                   Start orbitals & Density for SCF / CASSCF
-------------------------------------------------------------------------------

------------
SCF SETTINGS
------------
Hamiltonian:
 Density Functional     Method          .... DFT(GTOs)
 Exchange Functional    Exchange        .... PBE
   PBE kappa parameter   XKappa         ....  0.804000
   PBE mue parameter    XMuePBE         ....  0.219520
 Correlation Functional Correlation     .... PBE
   PBE beta parameter  CBetaPBE         ....  0.066725
 LDA part of GGA corr.  LDAOpt          .... PW91-LDA
 Gradients option       PostSCFGGA      .... off
 Hybrid DFT is turned on
   Fraction HF Exchange ScalHFX         ....  0.250000
   Scaling of DF-GGA-X  ScalDFX         ....  0.750000
   Scaling of DF-GGA-C  ScalDFC         ....  1.000000
   Scaling of DF-LDA-C  ScalLDAC        ....  1.000000
   Perturbative correction              ....  0.000000
   NL short-range parameter             ....  6.900000
 RI-approximation to the Coulomb term is turned on
   Number of AuxJ basis functions       .... 677
   RIJ-COSX (HFX calculated with COS-X)).... on


General Settings:
 Integral files         IntName         .... fecn6_nkxas_pbe0_tzvp
 Hartree-Fock type      HFTyp           .... RHF
 Total Charge           Charge          ....   -4
 Multiplicity           Mult            ....    1
 Number of Electrons    NEL             ....  108
 Basis Dimension        Dim             ....  417
 Nuclear Repulsion      ENuc            ....    890.4465122755 Eh

Convergence Acceleration:
 AO-DIIS                CNVDIIS         .... on
   Start iteration      DIISMaxIt       ....    12
   Startup error        DIISStart       ....  0.200000
   # of expansion vecs  DIISMaxEq       ....     5
   Bias factor          DIISBfac        ....   1.050
   Max. coefficient     DIISMaxC        ....  10.000
 MO-DIIS                CNVKDIIS        .... off
 Trust-Rad. Augm. Hess. CNVTRAH         .... auto
   Auto Start mean grad. ratio tolernc. ....  1.125000
   Auto Start start iteration           ....    50
   Auto Start num. interpolation iter.  ....    10
   Max. Number of Micro iterations      ....    24
   Max. Number of Macro iterations      .... Maxiter - #DIIS iter
   Number of Davidson start vectors     ....     2
   Converg. threshold    (grad. norm)   ....   5.000e-05
   Grad. Scal. Fac. for Micro threshold ....   0.100
   Minimum threshold for Micro iter.    ....   1.000e-02
   NR start threshold (gradient norm)   ....   1.000e-04
   Initial trust radius                 ....   0.400
   Minimum AH scaling param. (alpha)    ....   1.000
   Maximum AH scaling param. (alpha)    .... 1000.000
   Quad. conv. algorithm                .... NR
   White noise on init. David. guess    .... on
   Maximum white noise                  ....   0.010
   Pseudo random numbers                .... off
   Inactive MOs                         .... canonical
   Orbital update algorithm             .... Taylor
   Preconditioner                       .... Diag
   Full preconditioner red. dimension   ....   250
 SOSCF                 CNVSOSCF           .... on
   Start iteration     SOSCFMaxIt         ....   150
   Startup grad/error  SOSCFStart         ....  0.003300
   Hessian update      SOSCFHessUp        .... L-BFGS
   Autom. constraints  SOSCFAutoConstrain .... off
 Level Shifting         CNVShift        .... on
   Level shift para.    LevelShift      ....    0.2500
   Turn off err/grad.   ShiftErr        ....    0.0010
 Zerner damping         CNVZerner       .... off
 Static damping         CNVDamp         .... on
   Fraction old density DampFac         ....    0.7000
   Max. Damping (<1)    DampMax         ....    0.9800
   Min. Damping (>=0)   DampMin         ....    0.0000
   Turn off err/grad.   DampErr         ....    0.1000

SCF Procedure:
 Maximum # iterations   MaxIter         ....   125
 SCF integral mode      SCFMode         .... Direct
   Integral package                     .... SHARK and LIBINT hybrid scheme
 Reset frequency        DirectResetFreq ....    20
 Integral Threshold     Thresh          ....  1.000e-10 Eh
 Primitive CutOff       TCut            ....  1.000e-11 Eh

Convergence Tolerance:
 Convergence Check Mode ConvCheckMode   .... Total+1el-Energy
 Convergence forced     ConvForced      .... 1
 Energy Change          TolE            ....  1.000e-06 Eh
 1-El. energy change                    ....  1.000e-03 Eh
 Orbital Gradient       TolG            ....  5.000e-05
 Orbital Rotation angle TolX            ....  5.000e-05
 DIIS Error             TolErr          ....  1.000e-06

------------------------------
INITIAL GUESS: MODEL POTENTIAL
------------------------------
Loading Hartree-Fock densities                     ... done
Calculating cut-offs                               ... done
Initializing the effective Hamiltonian             ... done
Setting up the integral package (SHARK)            ... done
Starting the Coulomb interaction                   ... done (   0.2 sec)
Making the grid                                    ... done (   0.2 sec)
Mapping shells                                     ... done
Starting the XC term evaluation                    ... done (   0.2 sec)
  promolecular density results
     # of electrons  =    104.003659602
     EX              =   -123.477591095
     EC              =     -3.668747667
     EX+EC           =   -127.146338762
Transforming the Hamiltonian                       ... done (   0.0 sec)
Diagonalizing the Hamiltonian                      ... done (   0.0 sec)
Back transforming the eigenvectors                 ... done (   0.0 sec)
Now organizing SCF variables                       ... done
                      ------------------
                      INITIAL GUESS DONE (   0.7 sec)
                      ------------------
             **** ENERGY FILE WAS UPDATED (fecn6_nkxas_pbe0_tzvp.en.tmp) ****
Finished Guess after   0.8 sec
Maximum memory used throughout the entire GUESS-calculation: 26.2 MB


           ************************************************************
           *        Program running with 4 parallel MPI-processes     *
           *              working on a common directory               *
           ************************************************************

-------------------------------------------------------------------------------------------
                                      ORCA LEAN-SCF
                              memory conserving SCF solver
-------------------------------------------------------------------------------------------

----------------------------------------D-I-I-S--------------------------------------------
Iteration    Energy (Eh)           Delta-E    RMSDP     MaxDP     DIISErr   Damp  Time(sec)
-------------------------------------------------------------------------------------------
               ***  Starting incremental Fock matrix formation  ***
    1    -1819.1430235557909327     0.00e+00  5.79e-03  8.15e-02  2.33e-01  0.700  11.7
Warning: op=0 Small HOMO/LUMO gap (   0.064) - skipping pre-diagonalization
         Will do a full diagonalization
    2    -1819.3932647238475511    -2.50e-01  9.31e-03  1.59e-01  1.16e-01  0.700   6.1
                               ***Turning on AO-DIIS***
    3    -1819.5161156256535833    -1.23e-01  3.86e-03  5.80e-02  5.63e-02  0.700   5.8
    4    -1819.5884066663625163    -7.23e-02  5.21e-03  6.91e-02  4.32e-02  0.000   5.5
    5    -1819.7465713217211487    -1.58e-01  1.78e-03  3.11e-02  3.14e-02  0.000   6.4
    6    -1819.7485552656444270    -1.98e-03  7.12e-04  1.38e-02  4.34e-03  0.000   6.3
    7    -1819.7489147102050993    -3.59e-04  2.92e-04  5.35e-03  3.70e-03  0.000   6.0
    8    -1819.7490387624338837    -1.24e-04  9.04e-05  2.09e-03  3.50e-03  0.000   5.7
                              *** Initializing SOSCF ***
---------------------------------------S-O-S-C-F--------------------------------------
Iteration    Energy (Eh)           Delta-E    RMSDP     MaxDP     MaxGrad    Time(sec)
--------------------------------------------------------------------------------------
    9    -1819.7490848849888607    -4.61e-05  7.38e-05  1.80e-03  1.75e-03     5.4
               *** Restarting incremental Fock matrix formation ***
   10    -1819.7490944624987605    -9.58e-06  8.24e-05  1.73e-03  4.17e-04    14.5
   11    -1819.7490866672615084     7.80e-06  8.25e-05  1.73e-03  1.21e-03     9.0
   12    -1819.7490974051233934    -1.07e-05  1.22e-04  2.95e-03  1.16e-04     9.0
   13    -1819.7490964913595235     9.14e-07  3.83e-05  8.19e-04  2.14e-04     8.7
                 **** Energy Check signals convergence ****

               *****************************************************
               *                     SUCCESS                       *
               *           SCF CONVERGED AFTER  13 CYCLES          *
               *****************************************************

Recomputing exchange energy using gridx3       ... done (   20.886 sec)
Old exchange energy                            :    -31.300818468 Eh
New exchange energy                            :    -31.300927337 Eh
Exchange energy change after final integration :     -0.000108869 Eh
Total energy after final integration           :  -1819.749206608 Eh
             **** ENERGY FILE WAS UPDATED (fecn6_nkxas_pbe0_tzvp.en.tmp) ****

----------------
TOTAL SCF ENERGY
----------------

Total Energy       :      -1819.74920660819430 Eh          -49517.89335 eV

Components:
Nuclear Repulsion  :        890.44651227545910 Eh           24230.28144 eV
Electronic Energy  :      -2710.19561001443435 Eh          -73748.17183 eV
One Electron Energy:      -4337.35370893563595 Eh         -118025.39472 eV
Two Electron Energy:       1627.15809892120183 Eh           44277.22288 eV

Virial components:
Potential Energy   :      -3635.65670766279436 Eh          -98931.24858 eV
Kinetic Energy     :       1815.90750105460029 Eh           49413.35523 eV
Virial Ratio       :          2.00211558438487

DFT components:
N(Alpha)           :       54.000010976449 electrons
N(Beta)            :       54.000010976449 electrons
N(Total)           :      108.000021952899 electrons
E(X)               :      -94.019907303476 Eh       
E(C)               :       -3.844083095953 Eh       
E(XC)              :      -97.863990399429 Eh       

---------------
SCF CONVERGENCE
---------------

  Last Energy change         ...   -9.1376e-07  Tolerance :   1.0000e-06
  Last MAX-Density change    ...    8.1860e-04  Tolerance :   1.0000e-05
  Last RMS-Density change    ...    3.8326e-05  Tolerance :   1.0000e-06
  Last DIIS Error            ...    1.7535e-03  Tolerance :   1.0000e-06
  Last Orbital Gradient      ...    2.1360e-04  Tolerance :   5.0000e-05
  Last Orbital Rotation      ...    1.5755e-04  Tolerance :   5.0000e-05


----------------
ORBITAL ENERGIES
----------------

  NO   OCC          E(Eh)            E(eV) 
   0   2.0000    -255.786044     -6960.2921 
   1   2.0000     -29.565125      -804.5079 
   2   2.0000     -25.391393      -690.9349 
   3   2.0000     -25.391393      -690.9349 
   4   2.0000     -25.391393      -690.9349 
   5   2.0000     -13.795991      -375.4080 
   6   2.0000     -13.795988      -375.4079 
   7   2.0000     -13.795988      -375.4079 
   8   2.0000     -13.795985      -375.4078 
   9   2.0000     -13.795985      -375.4078 
  10   2.0000     -13.795985      -375.4078 
  11   2.0000      -9.674217      -263.2488 
  12   2.0000      -9.674217      -263.2488 
  13   2.0000      -9.674214      -263.2488 
  14   2.0000      -9.674206      -263.2485 
  15   2.0000      -9.674206      -263.2485 
  16   2.0000      -9.674206      -263.2485 
  17   2.0000      -2.899365       -78.8957 
  18   2.0000      -1.653788       -45.0019 
  19   2.0000      -1.653788       -45.0019 
  20   2.0000      -1.653788       -45.0019 
  21   2.0000      -0.346220        -9.4211 
  22   2.0000      -0.343237        -9.3400 
  23   2.0000      -0.343237        -9.3400 
  24   2.0000      -0.343237        -9.3400 
  25   2.0000      -0.342100        -9.3090 
  26   2.0000      -0.342100        -9.3090 
  27   2.0000       0.041573         1.1313 
  28   2.0000       0.112430         3.0594 
  29   2.0000       0.112430         3.0594 
  30   2.0000       0.112430         3.0594 
  31   2.0000       0.121398         3.3034 
  32   2.0000       0.121398         3.3034 
  33   2.0000       0.176998         4.8164 
  34   2.0000       0.189030         5.1438 
  35   2.0000       0.189030         5.1438 
  36   2.0000       0.189030         5.1438 
  37   2.0000       0.193241         5.2584 
  38   2.0000       0.193241         5.2584 
  39   2.0000       0.193241         5.2584 
  40   2.0000       0.213855         5.8193 
  41   2.0000       0.213855         5.8193 
  42   2.0000       0.219390         5.9699 
  43   2.0000       0.219390         5.9699 
  44   2.0000       0.219390         5.9699 
  45   2.0000       0.229886         6.2555 
  46   2.0000       0.229886         6.2555 
  47   2.0000       0.229886         6.2555 
  48   2.0000       0.249063         6.7774 
  49   2.0000       0.249063         6.7774 
  50   2.0000       0.249064         6.7774 
  51   2.0000       0.328311         8.9338 
  52   2.0000       0.328311         8.9338 
  53   2.0000       0.328311         8.9338 
  54   0.0000       0.532812        14.4986 
  55   0.0000       0.585122        15.9220 
  56   0.0000       0.585123        15.9220 
  57   0.0000       0.598017        16.2729 
  58   0.0000       0.598017        16.2729 
  59   0.0000       0.598017        16.2729 
  60   0.0000       0.607530        16.5317 
  61   0.0000       0.607531        16.5317 
  62   0.0000       0.607531        16.5318 
  63   0.0000       0.625899        17.0316 
  64   0.0000       0.625900        17.0316 
*Only the first 10 virtual orbitals were printed.

                    ********************************
                    * MULLIKEN POPULATION ANALYSIS *
                    ********************************

-----------------------
MULLIKEN ATOMIC CHARGES
-----------------------
   0 Fe:   -0.214271
   1 C :   -0.345303
   2 C :   -0.345197
   3 C :   -0.345090
   4 C :   -0.345320
   5 C :   -0.345481
   6 C :   -0.345447
   7 N :   -0.285630
   8 N :   -0.285639
   9 N :   -0.285636
  10 N :   -0.285683
  11 N :   -0.285647
  12 N :   -0.285656
Sum of atomic charges:   -4.0000000

--------------------------------
MULLIKEN REDUCED ORBITAL CHARGES
--------------------------------
  0 Fes       :     6.599795  s :     6.599795
      pz      :     4.269346  p :    12.808039
      px      :     4.269348
      py      :     4.269345
      dz2     :     0.735688  d :     6.805232
      dxz     :     1.778013
      dyz     :     1.778014
      dx2y2   :     0.735503
      dxy     :     1.778014
      f0      :     0.000356  f :     0.001205
      f+1     :     0.000162
      f-1     :     0.000162
      f+2     :     0.000045
      f-2     :     0.000000
      f+3     :     0.000240
      f-3     :     0.000240

  1 C s       :     3.621836  s :     3.621836
      pz      :     0.766642  p :     2.640017
      px      :     1.106731
      py      :     0.766643
      dz2     :     0.006643  d :     0.073534
      dxz     :     0.024803
      dyz     :     0.000685
      dx2y2   :     0.016599
      dxy     :     0.024803
      f0      :     0.001392  f :     0.009916
      f+1     :     0.000943
      f-1     :     0.000236
      f+2     :     0.002310
      f-2     :     0.000053
      f+3     :     0.001516
      f-3     :     0.003465

  2 C s       :     3.621775  s :     3.621775
      pz      :     0.766643  p :     2.639974
      px      :     1.106687
      py      :     0.766643
      dz2     :     0.006643  d :     0.073533
      dxz     :     0.024803
      dyz     :     0.000685
      dx2y2   :     0.016598
      dxy     :     0.024803
      f0      :     0.001392  f :     0.009916
      f+1     :     0.000943
      f-1     :     0.000236
      f+2     :     0.002310
      f-2     :     0.000053
      f+3     :     0.001516
      f-3     :     0.003465

  3 C s       :     3.621646  s :     3.621646
      pz      :     0.766643  p :     2.639993
      px      :     0.766644
      py      :     1.106706
      dz2     :     0.006643  d :     0.073534
      dxz     :     0.000685
      dyz     :     0.024803
      dx2y2   :     0.016600
      dxy     :     0.024803
      f0      :     0.001392  f :     0.009916
      f+1     :     0.000236
      f-1     :     0.000943
      f+2     :     0.002310
      f-2     :     0.000053
      f+3     :     0.003465
      f-3     :     0.001516

  4 C s       :     3.621975  s :     3.621975
      pz      :     0.766642  p :     2.639900
      px      :     0.766643
      py      :     1.106614
      dz2     :     0.006642  d :     0.073530
      dxz     :     0.000685
      dyz     :     0.024803
      dx2y2   :     0.016596
      dxy     :     0.024803
      f0      :     0.001392  f :     0.009916
      f+1     :     0.000236
      f-1     :     0.000943
      f+2     :     0.002310
      f-2     :     0.000053
      f+3     :     0.003465
      f-3     :     0.001516

  5 C s       :     3.621961  s :     3.621961
      pz      :     1.106788  p :     2.640073
      px      :     0.766643
      py      :     0.766642
      dz2     :     0.021573  d :     0.073531
      dxz     :     0.024803
      dyz     :     0.024803
      dx2y2   :     0.001666
      dxy     :     0.000685
      f0      :     0.002375  f :     0.009916
      f+1     :     0.003695
      f-1     :     0.003695
      f+2     :     0.000085
      f-2     :     0.000053
      f+3     :     0.000007
      f-3     :     0.000007

  6 C s       :     3.621923  s :     3.621923
      pz      :     1.106788  p :     2.640075
      px      :     0.766644
      py      :     0.766644
      dz2     :     0.021576  d :     0.073533
      dxz     :     0.024803
      dyz     :     0.024803
      dx2y2   :     0.001666
      dxy     :     0.000685
      f0      :     0.002375  f :     0.009916
      f+1     :     0.003695
      f-1     :     0.003695
      f+2     :     0.000085
      f-2     :     0.000053
      f+3     :     0.000007
      f-3     :     0.000007

  7 N s       :     3.300461  s :     3.300461
      pz      :     1.263879  p :     3.945286
      px      :     1.417528
      py      :     1.263879
      dz2     :     0.001960  d :     0.037572
      dxz     :     0.014868
      dyz     :     0.000001
      dx2y2   :     0.005875
      dxy     :     0.014868
      f0      :     0.000401  f :     0.002310
      f+1     :     0.000065
      f-1     :     0.000067
      f+2     :     0.000668
      f-2     :     0.000000
      f+3     :     0.000108
      f-3     :     0.001002

  8 N s       :     3.300469  s :     3.300469
      pz      :     1.263879  p :     3.945287
      px      :     1.417529
      py      :     1.263879
      dz2     :     0.001960  d :     0.037572
      dxz     :     0.014868
      dyz     :     0.000001
      dx2y2   :     0.005875
      dxy     :     0.014868
      f0      :     0.000401  f :     0.002310
      f+1     :     0.000065
      f-1     :     0.000067
      f+2     :     0.000668
      f-2     :     0.000000
      f+3     :     0.000108
      f-3     :     0.001002

  9 N s       :     3.300462  s :     3.300462
      pz      :     1.263879  p :     3.945291
      px      :     1.263879
      py      :     1.417533
      dz2     :     0.001960  d :     0.037572
      dxz     :     0.000001
      dyz     :     0.014868
      dx2y2   :     0.005875
      dxy     :     0.014868
      f0      :     0.000401  f :     0.002310
      f+1     :     0.000067
      f-1     :     0.000065
      f+2     :     0.000668
      f-2     :     0.000000
      f+3     :     0.001002
      f-3     :     0.000108

 10 N s       :     3.300524  s :     3.300524
      pz      :     1.263879  p :     3.945277
      px      :     1.263879
      py      :     1.417519
      dz2     :     0.001960  d :     0.037572
      dxz     :     0.000001
      dyz     :     0.014868
      dx2y2   :     0.005875
      dxy     :     0.014868
      f0      :     0.000401  f :     0.002310
      f+1     :     0.000067
      f-1     :     0.000065
      f+2     :     0.000668
      f-2     :     0.000000
      f+3     :     0.001002
      f-3     :     0.000108

 11 N s       :     3.300480  s :     3.300480
      pz      :     1.417526  p :     3.945285
      px      :     1.263879
      py      :     1.263879
      dz2     :     0.007832  d :     0.037572
      dxz     :     0.014868
      dyz     :     0.014868
      dx2y2   :     0.000003
      dxy     :     0.000001
      f0      :     0.000172  f :     0.002310
      f+1     :     0.001069
      f-1     :     0.001069
      f+2     :     0.000001
      f-2     :     0.000000
      f+3     :     0.000000
      f-3     :     0.000000

 12 N s       :     3.300484  s :     3.300484
      pz      :     1.417531  p :     3.945289
      px      :     1.263879
      py      :     1.263879
      dz2     :     0.007832  d :     0.037572
      dxz     :     0.014868
      dyz     :     0.014868
      dx2y2   :     0.000003
      dxy     :     0.000001
      f0      :     0.000172  f :     0.002310
      f+1     :     0.001069
      f-1     :     0.001069
      f+2     :     0.000001
      f-2     :     0.000000
      f+3     :     0.000000
      f-3     :     0.000000



                     *******************************
                     * LOEWDIN POPULATION ANALYSIS *
                     *******************************

----------------------
LOEWDIN ATOMIC CHARGES
----------------------
   0 Fe:   -0.798684
   1 C :   -0.269641
   2 C :   -0.269640
   3 C :   -0.269640
   4 C :   -0.269640
   5 C :   -0.269641
   6 C :   -0.269641
   7 N :   -0.263912
   8 N :   -0.263912
   9 N :   -0.263912
  10 N :   -0.263913
  11 N :   -0.263913
  12 N :   -0.263913

-------------------------------
LOEWDIN REDUCED ORBITAL CHARGES
-------------------------------
  0 Fes       :     6.272005  s :     6.272005
      pz      :     4.313729  p :    12.941187
      px      :     4.313729
      py      :     4.313729
      dz2     :     1.046204  d :     7.582803
      dxz     :     1.830132
      dyz     :     1.830132
      dx2y2   :     1.046203
      dxy     :     1.830132
      f0      :     0.000819  f :     0.002688
      f+1     :     0.000355
      f-1     :     0.000355
      f+2     :     0.000077
      f-2     :     0.000000
      f+3     :     0.000541
      f-3     :     0.000541

  1 C s       :     3.066726  s :     3.066726
      pz      :     0.765027  p :     2.797243
      px      :     1.267190
      py      :     0.765027
      dz2     :     0.033147  d :     0.352850
      dxz     :     0.112762
      dyz     :     0.001551
      dx2y2   :     0.092627
      dxy     :     0.112762
      f0      :     0.006433  f :     0.052822
      f+1     :     0.007003
      f-1     :     0.001070
      f+2     :     0.010583
      f-2     :     0.000251
      f+3     :     0.011535
      f-3     :     0.015947

  2 C s       :     3.066725  s :     3.066725
      pz      :     0.765027  p :     2.797243
      px      :     1.267190
      py      :     0.765027
      dz2     :     0.033147  d :     0.352850
      dxz     :     0.112762
      dyz     :     0.001551
      dx2y2   :     0.092627
      dxy     :     0.112762
      f0      :     0.006433  f :     0.052822
      f+1     :     0.007003
      f-1     :     0.001070
      f+2     :     0.010583
      f-2     :     0.000251
      f+3     :     0.011535
      f-3     :     0.015947

  3 C s       :     3.066726  s :     3.066726
      pz      :     0.765026  p :     2.797243
      px      :     0.765026
      py      :     1.267190
      dz2     :     0.033147  d :     0.352849
      dxz     :     0.001551
      dyz     :     0.112762
      dx2y2   :     0.092626
      dxy     :     0.112762
      f0      :     0.006433  f :     0.052822
      f+1     :     0.001070
      f-1     :     0.007003
      f+2     :     0.010583
      f-2     :     0.000251
      f+3     :     0.015947
      f-3     :     0.011535

  4 C s       :     3.066726  s :     3.066726
      pz      :     0.765027  p :     2.797242
      px      :     0.765027
      py      :     1.267189
      dz2     :     0.033147  d :     0.352850
      dxz     :     0.001551
      dyz     :     0.112762
      dx2y2   :     0.092626
      dxy     :     0.112762
      f0      :     0.006433  f :     0.052822
      f+1     :     0.001070
      f-1     :     0.007003
      f+2     :     0.010583
      f-2     :     0.000251
      f+3     :     0.015947
      f-3     :     0.011535

  5 C s       :     3.066727  s :     3.066727
      pz      :     1.267190  p :     2.797243
      px      :     0.765027
      py      :     0.765026
      dz2     :     0.122366  d :     0.352850
      dxz     :     0.112762
      dyz     :     0.112762
      dx2y2   :     0.003408
      dxy     :     0.001551
      f0      :     0.018334  f :     0.052822
      f+1     :     0.016984
      f-1     :     0.016984
      f+2     :     0.000204
      f-2     :     0.000251
      f+3     :     0.000032
      f-3     :     0.000032

  6 C s       :     3.066727  s :     3.066727
      pz      :     1.267190  p :     2.797243
      px      :     0.765027
      py      :     0.765027
      dz2     :     0.122366  d :     0.352849
      dxz     :     0.112762
      dyz     :     0.112762
      dx2y2   :     0.003408
      dxy     :     0.001551
      f0      :     0.018334  f :     0.052822
      f+1     :     0.016984
      f-1     :     0.016984
      f+2     :     0.000204
      f-2     :     0.000251
      f+3     :     0.000032
      f-3     :     0.000032

  7 N s       :     3.313106  s :     3.313106
      pz      :     1.160092  p :     3.854871
      px      :     1.534688
      py      :     1.160092
      dz2     :     0.011443  d :     0.083870
      dxz     :     0.019052
      dyz     :     0.000001
      dx2y2   :     0.034322
      dxy     :     0.019052
      f0      :     0.001087  f :     0.012066
      f+1     :     0.002350
      f-1     :     0.000182
      f+2     :     0.001813
      f-2     :     0.000001
      f+3     :     0.003916
      f-3     :     0.002718

  8 N s       :     3.313106  s :     3.313106
      pz      :     1.160092  p :     3.854871
      px      :     1.534688
      py      :     1.160092
      dz2     :     0.011443  d :     0.083870
      dxz     :     0.019052
      dyz     :     0.000001
      dx2y2   :     0.034322
      dxy     :     0.019052
      f0      :     0.001087  f :     0.012066
      f+1     :     0.002350
      f-1     :     0.000182
      f+2     :     0.001813
      f-2     :     0.000001
      f+3     :     0.003916
      f-3     :     0.002718

  9 N s       :     3.313106  s :     3.313106
      pz      :     1.160092  p :     3.854871
      px      :     1.160092
      py      :     1.534687
      dz2     :     0.011443  d :     0.083870
      dxz     :     0.000001
      dyz     :     0.019052
      dx2y2   :     0.034322
      dxy     :     0.019052
      f0      :     0.001087  f :     0.012066
      f+1     :     0.000182
      f-1     :     0.002350
      f+2     :     0.001813
      f-2     :     0.000001
      f+3     :     0.002718
      f-3     :     0.003916

 10 N s       :     3.313107  s :     3.313107
      pz      :     1.160092  p :     3.854871
      px      :     1.160092
      py      :     1.534688
      dz2     :     0.011443  d :     0.083870
      dxz     :     0.000001
      dyz     :     0.019052
      dx2y2   :     0.034322
      dxy     :     0.019052
      f0      :     0.001087  f :     0.012066
      f+1     :     0.000182
      f-1     :     0.002350
      f+2     :     0.001813
      f-2     :     0.000001
      f+3     :     0.002718
      f-3     :     0.003916

 11 N s       :     3.313106  s :     3.313106
      pz      :     1.534687  p :     3.854871
      px      :     1.160092
      py      :     1.160092
      dz2     :     0.045761  d :     0.083870
      dxz     :     0.019052
      dyz     :     0.019052
      dx2y2   :     0.000004
      dxy     :     0.000001
      f0      :     0.006265  f :     0.012066
      f+1     :     0.002900
      f-1     :     0.002900
      f+2     :     0.000000
      f-2     :     0.000001
      f+3     :     0.000000
      f-3     :     0.000000

 12 N s       :     3.313106  s :     3.313106
      pz      :     1.534688  p :     3.854871
      px      :     1.160092
      py      :     1.160092
      dz2     :     0.045761  d :     0.083870
      dxz     :     0.019052
      dyz     :     0.019052
      dx2y2   :     0.000004
      dxy     :     0.000001
      f0      :     0.006265  f :     0.012066
      f+1     :     0.002900
      f-1     :     0.002900
      f+2     :     0.000000
      f-2     :     0.000001
      f+3     :     0.000000
      f-3     :     0.000000



                      *****************************
                      * MAYER POPULATION ANALYSIS *
                      *****************************

  NA   - Mulliken gross atomic population
  ZA   - Total nuclear charge
  QA   - Mulliken gross atomic charge
  VA   - Mayer's total valence
  BVA  - Mayer's bonded valence
  FA   - Mayer's free valence

  ATOM       NA         ZA         QA         VA         BVA        FA
  0 Fe    26.2143    26.0000    -0.2143     4.5075     4.5075     0.0000
  1 C      6.3453     6.0000    -0.3453     3.9427     3.9427     0.0000
  2 C      6.3452     6.0000    -0.3452     3.9428     3.9428     0.0000
  3 C      6.3451     6.0000    -0.3451     3.9429     3.9429    -0.0000
  4 C      6.3453     6.0000    -0.3453     3.9425     3.9425     0.0000
  5 C      6.3455     6.0000    -0.3455     3.9429     3.9429     0.0000
  6 C      6.3454     6.0000    -0.3454     3.9431     3.9431     0.0000
  7 N      7.2856     7.0000    -0.2856     3.0392     3.0392     0.0000
  8 N      7.2856     7.0000    -0.2856     3.0392     3.0392     0.0000
  9 N      7.2856     7.0000    -0.2856     3.0392     3.0392     0.0000
 10 N      7.2857     7.0000    -0.2857     3.0391     3.0391     0.0000
 11 N      7.2856     7.0000    -0.2856     3.0392     3.0392     0.0000
 12 N      7.2857     7.0000    -0.2857     3.0392     3.0392     0.0000

  Mayer bond orders larger than 0.100000
B(  0-Fe,  1-C ) :   0.7641 B(  0-Fe,  2-C ) :   0.7641 B(  0-Fe,  3-C ) :   0.7641 
B(  0-Fe,  4-C ) :   0.7640 B(  0-Fe,  5-C ) :   0.7641 B(  0-Fe,  6-C ) :   0.7642 
B(  1-C ,  7-N ) :   3.0575 B(  2-C ,  8-N ) :   3.0575 B(  3-C ,  9-N ) :   3.0576 
B(  4-C , 10-N ) :   3.0574 B(  5-C , 11-N ) :   3.0575 B(  6-C , 12-N ) :   3.0575 


-------
TIMINGS
-------

Total SCF time: 0 days 0 hours 2 min 8 sec 

Total time                  ....     128.877 sec
Sum of individual times     ....     121.319 sec  ( 94.1%)

SCF preparation             ....       0.258 sec  (  0.2%)
Fock matrix formation       ....     119.395 sec  ( 92.6%)
  Startup                   ....       0.015 sec  (  0.0% of F)
  Split-RI-J                ....       5.993 sec  (  5.0% of F)
  Chain of spheres X        ....     103.020 sec  ( 86.3% of F)
  XC integration            ....      17.688 sec  ( 14.8% of F)
    XC Preparation          ....       0.000 sec  (  0.0% of XC)
    Basis function eval.    ....       5.796 sec  ( 32.8% of XC)
    Density eval.           ....       5.446 sec  ( 30.8% of XC)
    XC-Functional eval.     ....       0.478 sec  (  2.7% of XC)
    XC-Potential eval.      ....       5.241 sec  ( 29.6% of XC)
Diagonalization             ....       0.000 sec  (  0.0%)
Density matrix formation    ....       0.123 sec  (  0.1%)
Total Energy calculation    ....       0.053 sec  (  0.0%)
Population analysis         ....       0.061 sec  (  0.0%)
Orbital Transformation      ....       0.176 sec  (  0.1%)
Orbital Orthonormalization  ....       0.000 sec  (  0.0%)
DIIS solution               ....       0.952 sec  (  0.7%)
SOSCF solution              ....       0.290 sec  (  0.2%)
Finished LeanSCF after 128.9 sec

Maximum memory used throughout the entire LEANSCF-calculation: 41.4 MB


           ************************************************************
           *        Program running with 4 parallel MPI-processes     *
           *              working on a common directory               *
           ************************************************************

------------------------------------------------------------------------------
                         ORCA PROPERTY INTEGRAL CALCULATIONS
------------------------------------------------------------------------------

GBWName                                   ... fecn6_nkxas_pbe0_tzvp.gbw
Number of atoms                           ...     13
Number of basis functions                 ...    417
Max core memory                           ...   3000 MB

Dipole integrals                          ... YES
Quadrupole integrals                      ...  NO
Linear momentum integrals                 ... YES
Angular momentum integrals                ... YES
Higher moments length integrals           ...  NO
Higher moments velocity integrals         ...  NO
Kinetic energy integrals                  ...  NO
GIAO right hand sides                     ...  NO
GIAO dipole derivative integrals          ...  NO
SOC integrals                             ...  NO
EPR diamagnetic integrals (GIAO)          ...  NO
EPR gauge integrals                       ...  NO
Field gradient integrals                  ...  NO (   0 nuclei)
Spin-dipole/Fermi contact integrals       ...  NO (   0 nuclei)
Contact density integrals                 ...  NO (   0 nuclei)
Nucleus-orbit integrals                   ...  NO (   0 nuclei)
Geometric perturbations                   ...  NO (  13 nuclei)

Choice of electric origin   ... Center of mass
Position of electric origin ... (  0.0000,  0.0000, -0.0000) 
Choice of magnetic origin   ... GIAO
Position of magnetic origin ... (  0.0000,  0.0000,  0.0000) 

Calculating integrals                     ... Electric Dipole (Length)     done (  0.0 sec)
Calculating integrals                     ... Linear Momentum              done (  0.0 sec)
Calculating integrals                     ... Angular Momentum  (ElOri)    done (  0.0 sec)

Property integrals calculated in   0.1 sec

Maximum memory used throughout the entire PROPINT-calculation: 30.2 MB


           ************************************************************
           *        Program running with 4 parallel MPI-processes     *
           *              working on a common directory               *
           ************************************************************
------------------------------------------------------------------------------
                        ORCA TD-DFT/TDA CALCULATION
------------------------------------------------------------------------------

Input orbitals are from        ... fecn6_nkxas_pbe0_tzvp.gbw
CI-vector output               ... fecn6_nkxas_pbe0_tzvp.cis
Solver                         ... FN-2001
Tamm-Dancoff approximation     ... operative
CIS-Integral strategy          ... AO-integrals
Integral handling              ... AO integral Direct
Max. core memory used          ... 3000 MB
Reference state                ... RHF
Generation of triplets         ... off
Follow IRoot                   ... off
Number of operators            ... 1
Orbital ranges used for CIS calculation:
 Operator 0:  Orbitals   5... 10  to  54...416
XAS localization array:
 Operator 0:  Orbitals  -1... -1

-------------------
XC-INTEGRATION GRID
-------------------

General Integration Accuracy     IntAcc      ... 3.467
Radial Grid Type                 RadialGrid  ... OptM3 with GC (2021)
Angular Grid (max. ang.)         AngularGrid ... 3 (Lebedev-194)
Angular grid pruning method      GridPruning ... 4 (adaptive)
Weight generation scheme         WeightScheme... mBecke (2022)
Basis function cutoff            BFCut       ... 1.0000e-10
Integration weight cutoff        WCut        ... 1.0000e-14
Partially contracted basis set               ... off
Rotationally invariant grid construction     ... off
Angular grids for H and He will be reduced by one unit
Core-polarized basis detected: some atoms will have their core
                               angular grid increased.

Total number of grid points                  ...    34564
Total number of batches                      ...      548
Average number of points per batch           ...       63
Average number of grid points per atom       ...     2659

---------------------
COSX-INTEGRATION GRID
---------------------

General Integration Accuracy     IntAcc      ... 3.067
Radial Grid Type                 RadialGrid  ... OptM3 with GC (2021)
Angular Grid (max. ang.)         AngularGrid ... 2 (Lebedev-110)
Angular grid pruning method      GridPruning ... 4 (adaptive)
Weight generation scheme         WeightScheme... mBecke (2022)
Basis function cutoff            BFCut       ... 1.0000e-10
Integration weight cutoff        WCut        ... 1.0000e-14
Partially contracted basis set               ... on
Rotationally invariant grid construction     ... off
Angular grids for H and He will be reduced by one unit
Core-polarized basis detected: some atoms will have their core
                               angular grid increased.

Total number of grid points                  ...    16688
Total number of batches                      ...      136
Average number of points per batch           ...      122
Average number of grid points per atom       ...     1284

---------------
TD-DFT XC SETUP
---------------

DFT calculation                         ... on
Name of the grid file                   ... fecn6_nkxas_pbe0_tzvp.grid_cis.tmp
RI-approximation                        ... on
Aux-basis dimension                     ... 0
Exchange functional (TD-DFT)            ... PBE
   PBE kappa parameter  XKappa (TD-DFT) ...  0.804000
   PBE mue parameter   XMuePBE (TD-DFT) ...  0.219520
Correlation functional (TD-DFT)         ... PBE
   PBE beta parameter CBetaPBE (TD-DFT) ...  0.066725
 LDA part of GGA corr.  LDAOpt (TD-DFT) ... PW91-LDA
Hybrid DFT                              ... on
   Exchange mixing (TD-DFT)             ...  0.250
   GGA exch. scaling (TD-DFT)           ...  0.750
   GGA corr. scaling (TD-DFT)           ...  1.000

Building densities             ... done
Calculating rho(r) on the grid ... done
Building xc-kernel on the grid ... done
                    *** TD-DFT CALCULATION INITIALIZED ***

------------------------
DAVIDSON-DIAGONALIZATION
------------------------

Dimension of the eigenvalue problem            ...   2178
Number of roots to be determined               ...    150
Maximum size of the expansion space            ...   1500
Maximum number of iterations                   ...    100
Convergence tolerance for the residual         ...    1.000e-06
Convergence tolerance for the energies         ...    1.000e-06
Orthogonality tolerance                        ...    1.000e-14
Level Shift                                    ...    0.000e+00
Constructing the preconditioner                ... o.k.
Building the initial guess                     ... o.k.
Number of trial vectors determined             ...    512


                       ****Iteration    0****
   Time for iteration     :  TOTAL=647.6 TRAFO=1.0 RIJ=20.0 COSX=416.5 XC=208.5
   Size of expansion space: 450
   Lowest Energy          :    14.293806424963
   Maximum Energy change  :    14.543243533346 (vector 149)
   Maximum residual norm  :     0.001991956303

                       ****Iteration    1****
   Time for iteration     :  TOTAL=137.2 TRAFO=0.3 RIJ=8.1 COSX=87.8 XC=40.7
   Size of expansion space: 600
   Lowest Energy          :    14.293753662556
   Maximum Energy change  :     0.001096796710 (vector 7)
   Maximum residual norm  :     0.000000521316

      *** CONVERGENCE OF RESIDUAL NORM REACHED ***

Storing the converged CI vectors               ... fecn6_nkxas_pbe0_tzvp.cis1

                 *** DAVIDSON DONE ***

Total time for solving the CIS problem:   789.792sec

------------------------------------
TD-DFT/TDA EXCITED STATES (SINGLETS)
------------------------------------

the weight of the individual excitations are printed if larger than 1.0e-02

STATE  1:  E=  14.293754 au    388.953 eV  3137116.3 cm**-1 <S**2> =   0.000000 Mult 1
     5a ->  54a  :     0.013918 (c= -0.11797501)
     7a ->  54a  :     0.080315 (c= -0.28339856)
    10a ->  54a  :     0.866662 (c=  0.93094693)

STATE  2:  E=  14.293754 au    388.953 eV  3137116.5 cm**-1 <S**2> =   0.000000 Mult 1
     9a ->  54a  :     0.958922 (c=  0.97924567)

STATE  3:  E=  14.293758 au    388.953 eV  3137117.2 cm**-1 <S**2> =   0.000000 Mult 1
     6a ->  54a  :     0.231082 (c= -0.48071016)
     7a ->  54a  :     0.665592 (c=  0.81583836)
    10a ->  54a  :     0.057984 (c=  0.24079966)

STATE  4:  E=  14.293758 au    388.953 eV  3137117.3 cm**-1 <S**2> =   0.000000 Mult 1
     6a ->  54a  :     0.017520 (c= -0.13236132)
     8a ->  54a  :     0.934403 (c= -0.96664540)

STATE  5:  E=  14.293759 au    388.953 eV  3137117.5 cm**-1 <S**2> =   0.000000 Mult 1
     5a ->  54a  :     0.244033 (c=  0.49399744)
     6a ->  54a  :     0.498486 (c=  0.70603535)
     7a ->  54a  :     0.161686 (c=  0.40210196)
     8a ->  54a  :     0.022750 (c= -0.15083122)
    10a ->  54a  :     0.033427 (c=  0.18283016)

STATE  6:  E=  14.293763 au    388.953 eV  3137118.3 cm**-1 <S**2> =   0.000000 Mult 1
     5a ->  54a  :     0.697444 (c= -0.83513103)
     6a ->  54a  :     0.212641 (c=  0.46113054)
     7a ->  54a  :     0.045451 (c=  0.21319243)
     8a ->  65a  :     0.010633 (c=  0.10311544)

STATE  7:  E=  14.295240 au    388.993 eV  3137442.5 cm**-1 <S**2> =   0.000000 Mult 1
     5a ->  71a  :     0.060807 (c=  0.24659174)
     6a ->  57a  :     0.373913 (c=  0.61148388)
     6a ->  59a  :     0.042559 (c= -0.20629757)
     7a ->  71a  :     0.027345 (c= -0.16536258)
     8a ->  60a  :     0.036978 (c=  0.19229546)
     8a ->  61a  :     0.048102 (c=  0.21932059)
     8a ->  62a  :     0.037175 (c= -0.19280880)
     8a ->  64a  :     0.011911 (c= -0.10913776)
     8a ->  66a  :     0.024704 (c= -0.15717372)
     8a ->  67a  :     0.046737 (c=  0.21618695)
     8a ->  68a  :     0.023803 (c=  0.15428237)
     9a ->  61a  :     0.034976 (c=  0.18701921)
     9a ->  62a  :     0.081404 (c=  0.28531389)
     9a ->  65a  :     0.017069 (c= -0.13064690)
     9a ->  66a  :     0.017832 (c=  0.13353736)
     9a ->  67a  :     0.047835 (c=  0.21871194)
     9a ->  68a  :     0.029085 (c= -0.17054352)

STATE  8:  E=  14.295240 au    388.993 eV  3137442.5 cm**-1 <S**2> =   0.000000 Mult 1
     5a ->  72a  :     0.027199 (c=  0.16492194)
     5a ->  73a  :     0.030988 (c= -0.17603402)
     6a ->  58a  :     0.087852 (c= -0.29639777)
     6a ->  59a  :     0.033954 (c= -0.18426672)
     6a ->  72a  :     0.013492 (c= -0.11615630)
     7a ->  57a  :     0.013674 (c= -0.11693569)
     7a ->  58a  :     0.146081 (c= -0.38220580)
     7a ->  59a  :     0.130388 (c= -0.36109241)
     8a ->  60a  :     0.079568 (c=  0.28207837)
     8a ->  61a  :     0.038166 (c= -0.19536053)
     8a ->  63a  :     0.015586 (c=  0.12484569)
     8a ->  66a  :     0.051707 (c=  0.22739233)
     8a ->  68a  :     0.042255 (c=  0.20556013)
    10a ->  61a  :     0.043757 (c= -0.20918274)
    10a ->  62a  :     0.070248 (c= -0.26504347)
    10a ->  65a  :     0.015107 (c=  0.12291116)
    10a ->  66a  :     0.014048 (c=  0.11852383)
    10a ->  67a  :     0.056998 (c=  0.23874205)
    10a ->  68a  :     0.023820 (c= -0.15433612)

STATE  9:  E=  14.295240 au    388.993 eV  3137442.5 cm**-1 <S**2> =   0.000000 Mult 1
     5a ->  72a  :     0.030774 (c= -0.17542488)
     5a ->  73a  :     0.026924 (c= -0.16408634)
     6a ->  58a  :     0.022774 (c= -0.15090976)
     6a ->  59a  :     0.053747 (c=  0.23183316)
     6a ->  73a  :     0.015664 (c= -0.12515682)
     7a ->  57a  :     0.015914 (c= -0.12615258)
     7a ->  58a  :     0.161684 (c=  0.40209939)
     7a ->  59a  :     0.158058 (c= -0.39756459)
     9a ->  60a  :     0.082290 (c= -0.28686291)
     9a ->  61a  :     0.036137 (c=  0.19009766)
     9a ->  63a  :     0.015994 (c= -0.12646811)
     9a ->  66a  :     0.049964 (c=  0.22352648)
     9a ->  68a  :     0.043398 (c=  0.20832250)
    10a ->  60a  :     0.030740 (c= -0.17532764)
    10a ->  61a  :     0.042430 (c= -0.20598610)
    10a ->  62a  :     0.048795 (c=  0.22089557)
    10a ->  64a  :     0.011063 (c=  0.10518206)
    10a ->  66a  :     0.031104 (c= -0.17636272)
    10a ->  67a  :     0.037310 (c=  0.19315745)
    10a ->  68a  :     0.026607 (c=  0.16311746)

STATE 10:  E=  14.295259 au    388.994 eV  3137446.6 cm**-1 <S**2> =   0.000000 Mult 1
     5a ->  66a  :     0.053167 (c= -0.23058059)
     5a ->  68a  :     0.073389 (c= -0.27090378)
     6a ->  60a  :     0.180585 (c=  0.42495305)
     6a ->  61a  :     0.056192 (c= -0.23704916)
     6a ->  63a  :     0.034627 (c=  0.18608277)
     7a ->  66a  :     0.034402 (c=  0.18547679)
     7a ->  68a  :     0.023814 (c=  0.15431906)
     8a ->  58a  :     0.125867 (c= -0.35477799)
     8a ->  59a  :     0.083355 (c= -0.28871218)
     8a ->  72a  :     0.024418 (c= -0.15626181)
     8a ->  73a  :     0.018537 (c=  0.13615118)
     9a ->  57a  :     0.010810 (c= -0.10397245)
     9a ->  58a  :     0.079604 (c=  0.28214206)
     9a ->  59a  :     0.114496 (c= -0.33837261)
     9a ->  72a  :     0.018614 (c=  0.13643398)
     9a ->  73a  :     0.024506 (c=  0.15654400)

STATE 11:  E=  14.295259 au    388.994 eV  3137446.6 cm**-1 <S**2> =   0.000000 Mult 1
     5a ->  66a  :     0.041309 (c=  0.20324649)
     5a ->  67a  :     0.072898 (c= -0.26999587)
     5a ->  68a  :     0.011119 (c= -0.10544460)
     6a ->  61a  :     0.039033 (c=  0.19756713)
     6a ->  62a  :     0.033273 (c= -0.18240797)
     6a ->  66a  :     0.015174 (c= -0.12318468)
     6a ->  67a  :     0.015060 (c=  0.12272021)
     6a ->  68a  :     0.012416 (c=  0.11142926)
     7a ->  60a  :     0.050861 (c=  0.22552406)
     7a ->  61a  :     0.083358 (c=  0.28871719)
     7a ->  62a  :     0.031634 (c= -0.17785816)
     7a ->  64a  :     0.019075 (c= -0.13811081)
     7a ->  67a  :     0.013139 (c= -0.11462502)
     8a ->  57a  :     0.194814 (c=  0.44137748)
     8a ->  59a  :     0.010012 (c= -0.10006228)
     8a ->  71a  :     0.042378 (c= -0.20585824)
    10a ->  57a  :     0.013837 (c=  0.11762934)
    10a ->  58a  :     0.055625 (c= -0.23584872)
    10a ->  59a  :     0.135441 (c=  0.36802325)
    10a ->  72a  :     0.013444 (c=  0.11594938)
    10a ->  73a  :     0.029670 (c=  0.17225102)

STATE 12:  E=  14.295259 au    388.994 eV  3137446.6 cm**-1 <S**2> =   0.000000 Mult 1
     5a ->  66a  :     0.033502 (c= -0.18303436)
     5a ->  67a  :     0.047631 (c= -0.21824579)
     5a ->  68a  :     0.043051 (c=  0.20748727)
     6a ->  61a  :     0.021106 (c= -0.14528063)
     6a ->  62a  :     0.024768 (c= -0.15737759)
     6a ->  67a  :     0.031639 (c= -0.17787215)
     6a ->  68a  :     0.012660 (c=  0.11251872)
     7a ->  61a  :     0.041427 (c=  0.20353667)
     7a ->  62a  :     0.149954 (c=  0.38723945)
     7a ->  65a  :     0.030781 (c= -0.17544592)
     9a ->  57a  :     0.189556 (c= -0.43538034)
     9a ->  59a  :     0.016920 (c=  0.13007881)
     9a ->  71a  :     0.043436 (c= -0.20841341)
    10a ->  58a  :     0.151633 (c=  0.38940071)
    10a ->  59a  :     0.052032 (c=  0.22810435)
    10a ->  72a  :     0.030169 (c= -0.17369331)
    10a ->  73a  :     0.013889 (c=  0.11785144)

STATE 13:  E=  14.295276 au    388.994 eV  3137450.5 cm**-1 <S**2> =   0.000000 Mult 1
     5a ->  57a  :     0.255865 (c=  0.50583123)
     5a ->  59a  :     0.032260 (c= -0.17961133)
     6a ->  71a  :     0.087805 (c=  0.29631981)
     7a ->  57a  :     0.119073 (c= -0.34506913)
     7a ->  59a  :     0.010902 (c=  0.10441155)
     8a ->  60a  :     0.037455 (c= -0.19353303)
     8a ->  61a  :     0.048044 (c= -0.21918999)
     8a ->  62a  :     0.036502 (c=  0.19105580)
     8a ->  64a  :     0.011879 (c=  0.10898859)
     8a ->  66a  :     0.024170 (c=  0.15546694)
     8a ->  67a  :     0.047122 (c= -0.21707679)
     8a ->  68a  :     0.023743 (c= -0.15408828)
     9a ->  61a  :     0.034444 (c=  0.18559221)
     9a ->  62a  :     0.082124 (c=  0.28657276)
     9a ->  65a  :     0.017186 (c= -0.13109440)
     9a ->  66a  :     0.017888 (c=  0.13374542)
     9a ->  67a  :     0.047430 (c=  0.21778453)
     9a ->  68a  :     0.029591 (c= -0.17202175)

STATE 14:  E=  14.295276 au    388.994 eV  3137450.5 cm**-1 <S**2> =   0.000000 Mult 1
     5a ->  57a  :     0.018006 (c=  0.13418584)
     5a ->  58a  :     0.141545 (c=  0.37622451)
     5a ->  59a  :     0.116407 (c=  0.34118497)
     6a ->  58a  :     0.067405 (c= -0.25962417)
     6a ->  59a  :     0.024883 (c= -0.15774198)
     6a ->  72a  :     0.017359 (c= -0.13175439)
     7a ->  58a  :     0.025548 (c=  0.15983750)
     7a ->  59a  :     0.021551 (c=  0.14680223)
     7a ->  72a  :     0.028277 (c= -0.16815845)
     7a ->  73a  :     0.032886 (c=  0.18134445)
     8a ->  60a  :     0.078667 (c=  0.28047567)
     8a ->  61a  :     0.038748 (c= -0.19684555)
     8a ->  63a  :     0.015423 (c=  0.12418816)
     8a ->  66a  :     0.052078 (c=  0.22820586)
     8a ->  68a  :     0.041663 (c=  0.20411535)
    10a ->  61a  :     0.043468 (c=  0.20849023)
    10a ->  62a  :     0.070819 (c=  0.26611760)
    10a ->  65a  :     0.015208 (c= -0.12332210)
    10a ->  66a  :     0.014024 (c= -0.11842127)
[...]
  0-1A  -> 44-1A   391.022266 3153807.6     3.2   -0.00035  -0.27445   0.40113   0.13916
  0-1A  -> 45-1A   391.022267 3153807.6     3.2    0.00062  -0.41157  -0.27465  -0.04472
  0-1A  -> 46-1A   391.022276 3153807.7     3.2   -0.00545   0.03686   0.02429   0.02568
  0-1A  -> 47-1A   391.022279 3153807.7     3.2    0.01402  -0.05564  -0.00802   0.10340
  0-1A  -> 48-1A   391.022279 3153807.7     3.2   -0.01170   0.08442   0.02734   0.05326
  0-1A  -> 49-1A   391.022294 3153807.8     3.2   -0.00531  -0.00508  -0.00599   0.01033
  0-1A  -> 50-1A   391.022295 3153807.8     3.2    0.00792  -0.01493   0.00980   0.00486
  0-1A  -> 51-1A   391.022297 3153807.8     3.2    0.00057  -0.00202   0.00667   0.00003
  0-1A  -> 52-1A   391.022309 3153807.9     3.2    0.00025  -0.00886   0.00401   0.00220
  0-1A  -> 53-1A   391.022310 3153808.0     3.2   -0.00411   0.00689  -0.00652   0.03623
  0-1A  -> 54-1A   391.022311 3153808.0     3.2    0.00232  -0.03143   0.00399   0.00489
  0-1A  -> 55-1A   391.322672 3156230.5     3.2   -0.00000  -0.00002   0.00000   0.00000
  0-1A  -> 56-1A   391.322689 3156230.7     3.2    0.00001  -0.00002  -0.00000   0.00003
  0-1A  -> 57-1A   391.322732 3156231.0     3.2   -0.00001  -0.00002  -0.00000   0.00001
  0-1A  -> 58-1A   391.322768 3156231.3     3.2    0.00001  -0.00005  -0.00004  -0.00000
  0-1A  -> 59-1A   391.322792 3156231.5     3.2    0.00004  -0.00000   0.00003   0.00000
  0-1A  -> 60-1A   391.322795 3156231.5     3.2   -0.00004   0.00000   0.00001  -0.00003
  0-1A  -> 61-1A   391.393629 3156802.8     3.2   -0.02308   0.09635  -0.30512   0.15086
  0-1A  -> 62-1A   391.393631 3156802.9     3.2    0.01441   0.08088  -0.05442  -0.33984
  0-1A  -> 63-1A   391.393638 3156802.9     3.2   -0.00322  -0.01152   0.04706   0.07783
  0-1A  -> 64-1A   391.393649 3156803.0     3.2    0.01690  -0.36034  -0.13248  -0.04639
  0-1A  -> 65-1A   391.393656 3156803.1     3.2    0.01128   0.08705  -0.19073  -0.07119
  0-1A  -> 66-1A   391.393657 3156803.1     3.2   -0.00816   0.05090   0.06250   0.06655
  0-1A  -> 67-1A   391.393710 3156803.5     3.2   -0.01132  -0.00662  -0.00402   0.00842
  0-1A  -> 68-1A   391.393715 3156803.5     3.2   -0.00426  -0.00320   0.00028  -0.00634
  0-1A  -> 69-1A   391.393721 3156803.6     3.2   -0.00466  -0.00091   0.00096   0.01201
  0-1A  -> 70-1A   391.393732 3156803.7     3.2    0.00248  -0.00914  -0.00374  -0.00154
  0-1A  -> 71-1A   391.393736 3156803.7     3.2    0.01028   0.00578   0.00581  -0.00028
  0-1A  -> 72-1A   391.393742 3156803.8     3.2   -0.00065  -0.00894   0.00693   0.00238
  0-1A  -> 73-1A   391.613980 3158580.1     3.2   -0.01032   0.01443  -0.11683   0.60169
  0-1A  -> 74-1A   391.613987 3158580.1     3.2    0.01537   0.16785   0.56656   0.06741
  0-1A  -> 75-1A   391.613992 3158580.2     3.2   -0.00930   0.57959  -0.17082  -0.02843
  0-1A  -> 76-1A   391.613999 3158580.2     3.2   -0.00122   0.03304  -0.02454  -0.14261
  0-1A  -> 77-1A   391.614010 3158580.3     3.2    0.00459  -0.03657  -0.19586  -0.12081
  0-1A  -> 78-1A   391.614012 3158580.3     3.2    0.00378   0.18900  -0.00427  -0.01721
  0-1A  -> 79-1A   391.614094 3158581.0     3.2    0.00035   0.00117   0.00081   0.01513
  0-1A  -> 80-1A   391.614100 3158581.1     3.2    0.00067   0.00085   0.00349  -0.00287
  0-1A  -> 81-1A   391.614111 3158581.1     3.2   -0.01090  -0.01557  -0.00933  -0.00019
  0-1A  -> 82-1A   391.614117 3158581.2     3.2   -0.00737   0.00142  -0.00100   0.01000
  0-1A  -> 83-1A   391.614124 3158581.3     3.2    0.01217  -0.00445  -0.00062  -0.00266
  0-1A  -> 84-1A   391.614134 3158581.3     3.2    0.00218   0.01483  -0.00685  -0.00152
  0-1A  -> 85-1A   391.681369 3159123.6     3.2    0.00000   0.00000   0.00001   0.00001
  0-1A  -> 86-1A   391.681373 3159123.7     3.2    0.00000  -0.00000  -0.00000  -0.00000
  0-1A  -> 87-1A   391.681375 3159123.7     3.2   -0.00000  -0.00000   0.00000  -0.00000
  0-1A  -> 88-1A   391.681484 3159124.5     3.2   -0.00000  -0.00000   0.00000   0.00000
  0-1A  -> 89-1A   391.681489 3159124.6     3.2    0.00000  -0.00000  -0.00000  -0.00000
  0-1A  -> 90-1A   391.681490 3159124.6     3.2    0.00000   0.00000   0.00000   0.00000
  0-1A  -> 91-1A   392.364916 3164636.8     3.2   -0.00001  -0.00001  -0.00000  -0.00001
  0-1A  -> 92-1A   392.364942 3164637.0     3.2    0.00000   0.00005  -0.00001   0.00000
  0-1A  -> 93-1A   392.365043 3164637.8     3.2    0.00002  -0.00001  -0.00000   0.00000
  0-1A  -> 94-1A   392.365096 3164638.3     3.2    0.00000   0.00000  -0.00000   0.00000
  0-1A  -> 95-1A   392.365134 3164638.6     3.2   -0.00001  -0.00000  -0.00003  -0.00001
  0-1A  -> 96-1A   392.365255 3164639.5     3.2   -0.00000  -0.00000   0.00001  -0.00000
  0-1A  -> 97-1A   392.552581 3166150.4     3.2    0.00000   0.00000   0.00003   0.00001
  0-1A  -> 98-1A   392.552695 3166151.3     3.2   -0.00000   0.00000   0.00001  -0.00000
  0-1A  -> 99-1A   392.552809 3166152.3     3.2    0.00000   0.00003   0.00000  -0.00000
  0-1A  -> 100-1A   392.552823 3166152.4     3.2    0.00000   0.00003  -0.00000   0.00001
  0-1A  -> 101-1A   392.552919 3166153.1     3.2   -0.00000   0.00001  -0.00000   0.00002
  0-1A  -> 102-1A   392.552946 3166153.4     3.2    0.00000  -0.00000  -0.00000   0.00003
  0-1A  -> 103-1A   392.685214 3167220.2     3.2   -0.00097  -0.02632   0.00043  -0.00366
  0-1A  -> 104-1A   392.685214 3167220.2     3.2    0.00372  -0.00318  -0.00124   0.01813
  0-1A  -> 105-1A   392.685218 3167220.2     3.2   -0.00210  -0.00263  -0.00221  -0.02637
  0-1A  -> 106-1A   392.685222 3167220.2     3.2    0.01142   0.02307   0.00102  -0.00101
  0-1A  -> 107-1A   392.685222 3167220.2     3.2   -0.01708   0.00478  -0.00313   0.02160
  0-1A  -> 108-1A   392.685226 3167220.3     3.2    0.00497  -0.00013   0.00248  -0.02704
  0-1A  -> 109-1A   392.685284 3167220.7     3.2    0.00013   0.00243  -0.00009  -0.00004
  0-1A  -> 110-1A   392.685286 3167220.8     3.2    0.00186   0.00157  -0.04445  -0.01422
  0-1A  -> 111-1A   392.685286 3167220.8     3.2   -0.00114   0.00078  -0.00674   0.05085
  0-1A  -> 112-1A   392.685311 3167221.0     3.2   -0.00667  -0.64999  -0.02462  -0.00043
  0-1A  -> 113-1A   392.685313 3167221.0     3.2    0.00007   0.02429  -0.63943  -0.11272
  0-1A  -> 114-1A   392.685313 3167221.0     3.2    0.00578  -0.00353   0.11334  -0.63768
  0-1A  -> 115-1A   392.865440 3168673.8     3.2    0.00000   0.00000   0.00000   0.00000
  0-1A  -> 116-1A   392.865447 3168673.9     3.2    0.00000  -0.00000  -0.00000  -0.00000
  0-1A  -> 117-1A   392.865448 3168673.9     3.2    0.00000   0.00000   0.00000  -0.00000
  0-1A  -> 118-1A   392.865555 3168674.7     3.2    0.00000   0.00006   0.00000   0.00000
  0-1A  -> 119-1A   392.865563 3168674.8     3.2    0.00000   0.00000   0.00006  -0.00000
  0-1A  -> 120-1A   392.865564 3168674.8     3.2   -0.00000   0.00000   0.00000  -0.00006
  0-1A  -> 121-1A   394.615956 3182792.7     3.1    0.08895  -0.79716  -1.85076  -0.97674
  0-1A  -> 122-1A   394.615961 3182792.7     3.1   -0.11361  -0.13681   1.09499  -1.95212
  0-1A  -> 123-1A   394.615965 3182792.7     3.1    0.04491  -2.08943   0.63640   0.49971
  0-1A  -> 124-1A   394.615989 3182792.9     3.1   -0.01333   0.06220   0.02558   0.00943
  0-1A  -> 125-1A   394.615993 3182793.0     3.1    0.02070   0.06810  -0.04409  -0.12907
  0-1A  -> 126-1A   394.615996 3182793.0     3.1   -0.03884   0.09489   0.07323   0.07961
  0-1A  -> 127-1A   394.616118 3182794.0     3.1    0.07230  -0.00458   0.01490  -0.02473
  0-1A  -> 128-1A   394.616119 3182794.0     3.1   -0.23664  -0.01550   0.02441   0.01065
  0-1A  -> 129-1A   394.616125 3182794.0     3.1    0.19614   0.02412  -0.00313  -0.01169
  0-1A  -> 130-1A   394.616186 3182794.5     3.1   -0.00669   0.02665  -0.01301  -0.02278
  0-1A  -> 131-1A   394.616189 3182794.5     3.1    0.00053   0.01512  -0.02214  -0.00748
  0-1A  -> 132-1A   394.616195 3182794.6     3.1   -0.01440  -0.00781   0.02207  -0.01506
  0-1A  -> 133-1A   394.823582 3184467.3     3.1   -0.00016  -0.00011  -0.00003   0.00004
  0-1A  -> 134-1A   394.823613 3184467.5     3.1   -0.00025  -0.00001  -0.00003   0.00005
  0-1A  -> 135-1A   394.823674 3184468.0     3.1    0.00030   0.00000   0.00001  -0.00006
  0-1A  -> 136-1A   394.823699 3184468.2     3.1    0.00011  -0.00001   0.00004  -0.00001
  0-1A  -> 137-1A   394.823745 3184468.6     3.1    0.00019   0.00003   0.00001  -0.00001
  0-1A  -> 138-1A   394.823919 3184470.0     3.1   -0.00019   0.00012  -0.00003   0.00003
  0-1A  -> 139-1A   395.144322 3187054.2     3.1   -0.00000  -0.00000  -0.00000  -0.00000
  0-1A  -> 140-1A   395.144325 3187054.2     3.1   -0.00000   0.00000  -0.00000   0.00000
  0-1A  -> 141-1A   395.144327 3187054.3     3.1    0.00000  -0.00000   0.00000   0.00000
  0-1A  -> 142-1A   395.144439 3187055.2     3.1    0.00000  -0.00002   0.00000   0.00002
  0-1A  -> 143-1A   395.144440 3187055.2     3.1    0.00000   0.00000  -0.00002   0.00002
  0-1A  -> 144-1A   395.144443 3187055.2     3.1   -0.00000  -0.00002   0.00002   0.00000
  0-1A  -> 145-1A   395.739482 3191854.5     3.1   -0.00000  -0.00002   0.00078   0.00037
  0-1A  -> 146-1A   395.739510 3191854.7     3.1    0.00000   0.00081   0.00002  -0.00032
  0-1A  -> 147-1A   395.739597 3191855.4     3.1    0.00005   0.00046   0.00034   0.00002
  0-1A  -> 148-1A   395.739604 3191855.5     3.1   -0.00006   0.00010  -0.00018  -0.00033
  0-1A  -> 149-1A   395.739638 3191855.8     3.1    0.00001   0.00006   0.00024   0.00017
  0-1A  -> 150-1A   395.739728 3191856.5     3.1    0.00000  -0.00002   0.00006   0.00004

Total run time:      793.007 sec

           *** ORCA-CIS/TD-DFT FINISHED WITHOUT ERROR ***
-----------------------
CIS/TD-DFT TOTAL ENERGY
-----------------------

    E(SCF)  =  -1819.749206608 Eh
    DE(CIS) =     14.293753663 Eh (Root  1)
    ----------------------------- ---------
    E(tot)  =  -1805.455452946 Eh


Maximum memory used throughout the entire CIS-calculation: 2894.0 MB
=> NOW LEAVING ORCA_CIS

-------------------------   --------------------
FINAL SINGLE POINT ENERGY     -1805.455452945638
-------------------------   --------------------



           ************************************************************
           *        Program running with 4 parallel MPI-processes     *
           *              working on a common directory               *
           ************************************************************

------------------------------------------------------------------------------
                              ORCA PROPERTY CALCULATIONS
------------------------------------------------------------------------------

GBWName                                 ... fecn6_nkxas_pbe0_tzvp.gbw
Number of atoms                         ...     13
Number of basis functions               ...    417
Max core memory                         ...   3000 MB

Electric properties:
Dipole moment                           ... YES
Quadrupole moment                       ...  NO
Static polarizability (Dipole/Dipole)   ...  NO
Static polarizability (Dipole/Quad.)    ...  NO
Static polarizability (Quad./Quad.)     ...  NO
Static polarizability (Velocity)        ...  NO
Static hyperpolarizability              ...  NO

Atomic electric properties:
Dipole moment                           ...  NO
Quadrupole moment                       ...  NO
Static polarizability                   ...  NO

Choice of electric origin               ... Center of mass
Position of electric origin             ...     0.000000     0.000000    -0.000000

General magnetic properties:
Magnetizability                         ...  NO

EPR properties:
g-Tensor (aka g-matrix)                 ...  NO
Zero-Field splitting spin-orbit         ...  NO
Zero-field splitting spin-spin          ...  NO
Hyperfine couplings                     ...  NO (   0 nuclei)
Quadrupole couplings                    ...  NO (   0 nuclei)
Contact density                         ...  NO (   0 nuclei)

NMR properties:
Chemical shifts                         ...  NO (   0 nuclei)
Spin-rotation constants                 ...  NO (   0 nuclei)
Spin-spin couplings                     ...  NO (   0 nuclei,    0 pairs)

Choice of magnetic origin               ... GIAO
Position of magnetic origin             ...     0.000000     0.000000     0.000000

Properties with geometric perturbations:
SCF Hessian                             ...  NO
IR spectrum                             ...  NO
VCD spectrum                            ...  NO
X-ray spectroscopy properties:
SCF XES/XAS/RIXS spectra                ...  NO

SCF SOC stabilization energy            ...  NO
Diagonal Born-Oppenheimer correction    ...  NO

-------------
DIPOLE MOMENT
-------------

Method             : SCF
Type of density    : Electron Density
Multiplicity       :   1
Irrep              :   0
Energy             : -1819.7492066081942994 Eh
Basis              : AO
                                X                 Y                 Z
Electronic contribution:      0.000009765       0.000002879       0.000001185
Nuclear contribution   :     -0.000003845      -0.000002859      -0.000000116
                        -----------------------------------------
Total Dipole Moment    :      0.000005920       0.000000019       0.000001070
                        -----------------------------------------
Magnitude (a.u.)       :      0.000006016
Magnitude (Debye)      :      0.000015292



--------------------
Rotational spectrum 
--------------------
 
Rotational constants in cm-1:             0.022408             0.022408             0.022408 
Rotational constants in MHz :           671.763178           671.762443           671.760492 

Dipole components along the rotational axes: 
x,y,z [a.u.] :     0.000004     0.000002     0.000004 
x,y,z [Debye]:     0.000010     0.000005     0.000011 

 

Dipole moment calculation done in   0.0 sec 

Maximum memory used throughout the entire PROP-calculation: 25.8 MB

--------------------------------
SUGGESTED CITATIONS FOR THIS RUN
--------------------------------

Below you find a list of papers that are relevant to this ORCA run
We neither can nor want to force you to cite these papers, but we appreciate if you do
You receive ORCA, which is the product of decades of hard work by many enthusiastic individuals, for free
The only thing we kindly ask in return is that you cite our papers,
We deeply appreciate it, if you show your appreciation for ORCA by not just citing the generic ORCA reference.

Please note that relegating all ORCA citations to the supporting information does *not* help us.
SI sections are not indexed - citations you put there will not count into any citation statistics
But we need these citations in order to attract the funding resources that allow us to do what we are doing

Therefore, if you are a happy ORCA user, please consider citing a few of the papers listed below in the main body of your paper

In addition to the list printed below, the program has created the file fecn6_nkxas_pbe0_tzvp.bibtex that contains the list in bibtex format
You can import this file easily into all common literature databanks and citation aid programs

It goes without saying that in many instances, there are alternative algorithms to achieve similar
results as the ones you have gotten from ORCA. It is, of course, also the case that in some instances
ORCA just re-implements algorithms worked out by others. We are fully aware of that and we are also
fully appreciative of our colleagues work. Hence this citation list should not be read as indicating
that the listed papers, which are focused on our own work, are the only ones worth citing. It simply
meant to make it easier for users to cite ORCA specific papers. It is not a substitute for doing your
own literature research and citing the relevant literature in a scientifically appropriate manner.

List of essential papers. We consider these as the minimum necessary citations

  1. Neese, F.
     Software update: the ORCA program system, version 6.0
     WIRES Comput. Molec. Sci. 2025 15(1), e70019
     doi.org/10.1002/wcms.70019

List of papers to cite with high priority. The work reported in these papers was absolutely
necessary for this run to complete.
Our perspective: the developers of density functionals and basis sets usually get cited in chemistry papers
Good! But without the algorithms to do something with them, the functionals or basis sets would not do anything.
Hence, in our opinion, the algorithm design and method developments papers are equally worthy of getting cited

  1. Neese, F.; Olbrich, G.
     Efficient use of the resolution of the identity approximation in time-dependent density functional calculations with hybrid density functionals
     Chem. Phys. Lett. 2002 362 , 170-178
     doi.org/10.1016/s0009-2614(02)01053-9
  2. Neese, F.
     An improvement of the resolution of the identity approximation for the formation of the Coulomb matrix
     J. Comp. Chem. 2003 24(14), 1740-1747
     doi.org/10.1002/jcc.10318
  3. Neese, F.; Wennmohs, F.; Hansen, A.; Becker, U.
     Efficient, approximate and parallel Hartree-Fock and hybrid DFT calculations. A 'chain-of-spheres' algorithm for the Hartree-Fock exchange
     Chem. Phys. 2009 356(1-3), 98-109
     doi.org/10.1016/j.chemphys.2008.10.036
  4. Helmich-Paris, B.; de Souza, B.; Neese, F.; Izsák, R.
     An improved chain of spheres for exchange algorithm
     J. Chem. Phys. 2021 155(10), 104109
     doi.org/10.1063/5.0058766
  5. Neese, F.
     The SHARK Integral Generation and Digestion System
     J. Comp. Chem. 2022 44(3), 381
     doi.org/10.1002/jcc.26942

List of suggested additional citations. These are papers that are important in the 'surrounding' of 
of this run, or papers that preceded the highly important papers. If you like your results we are grateful for a citation.

  1. Izsak, R.; Neese, F.
     An overlap fitted chain of spheres exchange method
     J. Chem. Phys. 2011 135 , 144105
     doi.org/10.1063/1.3646921
  2. Izsak, R.; Hansen, A.; Neese, F.
     The resolution of identity and chain of spheres approximations for the LPNO-CCSD singles Fock term
     Molec. Phys. 2012 110 , 2413-2417
     doi.org/10.1080/00268976.2012.687466
  3. Neese, F.
     The ORCA program system
     WIRES Comput. Molec. Sci. 2012 2(1), 73-78
     doi.org/10.1002/wcms.81
  4. Izsak, R.; Neese, F.; Klopper, W.
     Robust fitting techniques in the chain of spheres approximation to the Fock exchange: The role of the complementary space
     J. Chem. Phys. 2013 139 , 
     doi.org/10.1063/1.4819264
  5. Neese, F.
     Software update: the ORCA program system, version 4.0
     WIRES Comput. Molec. Sci. 2018 8(1), 1-6
     doi.org/10.1002/wcms.1327
  6. Neese, F.; Wennmohs, F.; Becker, U.; Riplinger, C.
     The ORCA quantum chemistry program package
     J. Chem. Phys. 2020 152(22), 224108
     doi.org/10.1063/5.0004608
  7. Neese, F.
     Software update: The ORCA program system—Version 5.0
     WIRES Comput. Molec. Sci. 2022 12(1), e1606
     doi.org/10.1002/wcms.1606

List of optional additional citations

  1. Neese, F.
     Approximate second-order SCF convergence for spin unrestricted wavefunctions
     Chem. Phys. Lett. 2000 325(1-3), 93-98
     doi.org/10.1016/s0009-2614(00)00662-x

Timings for individual modules:

Sum of individual times          ...      928.589 sec (=  15.476 min)
Startup calculation              ...        4.347 sec (=   0.072 min)   0.5 %
SCF iterations                   ...      130.067 sec (=   2.168 min)  14.0 %
Property integrals               ...        0.445 sec (=   0.007 min)   0.0 %
Property calculations            ...        0.360 sec (=   0.006 min)   0.0 %
CIS module                       ...      793.370 sec (=  13.223 min)  85.4 %
                             ****ORCA TERMINATED NORMALLY****
TOTAL RUN TIME: 0 days 0 hours 15 minutes 28 seconds 960 msec
