
                                 *****************
                                 * O   R   C   A *
                                 *****************

                                            #,                                       
                                            ###                                      
                                            ####                                     
                                            #####                                    
                                            ######                                   
                                           ########,                                 
                                     ,,################,,,,,                         
                               ,,#################################,,                 
                          ,,##########################################,,             
                       ,#########################################, ''#####,          
                    ,#############################################,,   '####,        
                  ,##################################################,,,,####,       
                ,###########''''           ''''###############################       
              ,#####''   ,,,,##########,,,,          '''####'''          '####       
            ,##' ,,,,###########################,,,                        '##       
           ' ,,###''''                  '''############,,,                           
         ,,##''                                '''############,,,,        ,,,,,,###''
      ,#''                                            '''#######################'''  
     '                                                          ''''####''''         
             ,#######,   #######,   ,#######,      ##                                
            ,#'     '#,  ##    ##  ,#'     '#,    #''#        ,####,    ,#,          
            ##       ##  ##   ,#'  ##            #'  '#       #'       ,# #          
            ##       ##  #######   ##           ,######,      #####,      #          
            '#,     ,#'  ##    ##  '#,     ,#' ,#      #,     #,   #      #          
             '#######'   ##     ##  '#######'  #'      '#     '####' #    #          



                #########################################################
                #                        -***-                          #
                #          Department of theory and spectroscopy        #
                #                                                       #
                #                      Frank Neese                      #
                #                                                       #
                #     Directorship, Architecture, Infrastructure        #
                #                    SHARK, DRIVERS                     #
                #        Core code/Algorithms in most modules           #
                #                                                       #
                #        Max Planck Institute fuer Kohlenforschung      #
                #                Kaiser Wilhelm Platz 1                 #
                #                 D-45470 Muelheim/Ruhr                 #
                #                      Germany                          #
                #                                                       #
                #                  All rights reserved                  #
                #                        -***-                          #
                #########################################################


                         Program Version 6.1.1  -  RELEASE   -
                                (GIT: $487d211c$)
                          ($2025-11-21 10:33:24 +0100$)


 With contributions from (in alphabetic order):
[Max-Planck-Institut fuer Kohlenforschung]                               
  Daniel Aravena         : Magnetic Suceptibility                        
  Michael Atanasov       : Ab Initio Ligand Field Theory (pilot matlab implementation)
  Alexander A. Auer      : GIAO ZORA, VPT2 properties, NMR spectrum      
  Ute Becker             : All parallelization in ORCA, NUMFREQ, NUMCALC 
  Giovanni Bistoni       : ED, misc. LED, open-shell LED, HFLD           
  Dmytro Bykov           : pre 5.0 version of the SCF Hessian            
  Marcos Casanova-Páez   : Triplet and SCS-CIS(D). UHF-(DLPNO)-IP/EA/STEOM-CCSD. UHF-CVS-IP/STEOM-CCSD   
  Vijay G. Chilkuri      : MRCI spin determinant printing, contributions to CSF-ICE 
  Pauline Colinet        : FMM embedding                                 
  Dipayan Datta          : RHF DLPNO-CCSD density                        
  Achintya Kumar Dutta   : EOM-CC, STEOM-CC                              
  Nicolas Foglia         : Exact transition moments, OPA infrastructure, MCD improvements    
  Dmitry Ganyushin       : Spin-Orbit,Spin-Spin,Magnetic field MRCI      
  Miquel Garcia-Rates    : C-PCM and meta-GGA Hessian, CCSD/C-PCM, Gaussian charge scheme 
  Tiago L. C. Gouveia    : GS-ROHF, GS-ROCIS                             
  Yang Guo               : DLPNO-NEVPT2, F12-NEVPT2, CIM, IAO-localization        
  Andreas Hansen         : Spin unrestricted coupled pair/coupled cluster methods 
  Ingolf Harden          : AUTO-CI MPn and infrastructure                
  Benjamin Helmich-Paris : MC-RPA, TRAH-(SCF,CASSCF), AVAS, COSX integrals, SCF dyn. polar., MC-PDFT, srDFT 
  Lee Huntington         : MR-EOM, pCC                                   
  Robert Izsak           : Overlap fitted RIJCOSX, COSX-SCS-MP3, EOM     
  Riya Kayal             : Wick's Theorem for AUTO-CI, AUTO-CI UHF-CCSDT 
  Emily Kempfer          : AUTO-CI RHF CISDT and CCSDT, approximate NEVPT4
  Christian Kollmar      : KDIIS, OOCD, Brueckner-CCSD(T), CCSD density, CASPT2, CASPT2-K, improved NEVPT2 
  Axel Koslowski         : Symmetry handling                             
  Simone Kossmann        : meta-GGA functionals, TD-DFT gradient, OOMP2, (MP2 Hessian; deprecated post 5.0) 
  Lucas Lang             : DCDCAS, Hyperfine gauge corrections, ICE-SOC+SSC
  Marvin Lechner         : AUTO-CI (C++ implementation), FIC-MRCC        
  Spencer Leger          : CASSCF response                               
  Dagmar Lenk            : GEPOL surface, SMD, ORCA-2-JSON               
  Dimitrios Liakos       : Extrapolation schemes; Compound Job, Property file
  Dimitrios Manganas     : Further ROCIS development; embedding schemes. LFT, Crystal Embedding 
  Dimitrios Pantazis     : SARC Basis sets                               
  Anastasios Papadopoulos: AUTO-CI, single reference methods and gradients 
  Taras Petrenko         : pre 6.0 DFT Hessian and TD-DFT gradient,  ECA, NRVS 
  Petra Pikulova         : Analytic Raman intensities                    
  Peter Pinski           : DLPNO-MP2, DLPNO-MP2 Gradient                 
  Shashank Vittal Rao    : ES-AILFT, MagRelax                            
  Christoph Reimann      : Effective Core Potentials                     
  Marius Retegan         : Local ZFS, SOC                                
  Christoph Riplinger    : Optimizer, TS searches, QM/MM, DLPNO-CCSD(T), (RO)-DLPNO pert. Triples 
  Michael Roemelt        : Original ROCIS implementation, recursive CI coupling coefficients
  Masaaki Saitow         : Open-shell DLPNO-CCSD energy and density      
  Barbara Sandhoefer     : DKH picture change effects                    
  Yorick L. A. Schmerwitz: GMF and freeze-and-release deltaSCF, NEB S-IDPP initial path                    
  Kantharuban Sivalingam : CASSCF convergence/infrastructure, NEVPT2, NEVPT3, NEVPT4(SD), FIC-MRCI and CEPA variants
  Bernardo de Souza      : ESD, SOC TD-DFT                               
  Georgi L. Stoychev     : AutoAux, RI-MP2 NMR, DLPNO-MP2 response, X2C  
  Van Anh Tran           : RI-MP2 g-tensors                              
  Willem Van den Heuvel  : Paramagnetic NMR                              
  Zikuan Wang            : NOTCH, Electric field optimization            
  Frank Wennmohs         : Technical directorship and infrastructure     
  Hang Xu                : AUTO-CI-Response properties                   
                                                                         
[FACCTs GmbH]                                                            
  Markus Bursch, Nicolas Foglia, Miquel Garcia-Rates, Ingolf Harden, Hagen Neugebauer, Anastasios Papadopoulos, 
  Christoph Riplinger, Bernardo de Souza, Georgi L. Stoychev                                                    
                                                                 
  APM, various basis sets, CI-OPT, improved COSX, DLPNO-Multilevel,           
  DOCKER, DRACO, updates on ESD, Fragmentator, GOAT, IRC, LR-CPCM, L-BFGS, MBIS, meta-GGA TD-DFT gradient, ML-optimized integration grids, 
  MM, NACMEs, nearIR, NEB, NEB-TS, NL-DFT gradient (VV10), 2- and 3-layer-ONIOM, interface openCOSMO-RS, QMMM,   
  Crystal-QMMM, RESP, rigid body optimization, SF, symmetry and pop. for TD-DFT, various functionals, SOLVATOR                                   
                                                                         
[Other institutions]                                                     
  V. Asgeirsson          : NEB                                           
  Christoph Bannwarth    : sTDA-DFT, sTD-DFT, PBEh-3c, B97-3c, D3        
  Giovanni Bistoni       : ETS/NOCV, ADLD/ADEX, COVALED                  
  Martin Brehm           : Molecular dynamics                            
  Ronald Cardenas        : ETS/NOCV                                      
  Martina Colucci        : COVALED                                       
  Sebastian Ehlert       : rSCAN, r2SCAN, r2SCAN-3c, D4, dhf basis sets  
  Marvin Friede          : D4 for Fr, Ra, Ac-Lr                          
  Lars Goerigk           : TD-DFT with DH, B97 family of functionals     
  Stefan Grimme          : VdW corrections, initial TS optimization, DFT functionals, gCP, sTDA/sTD-DF 
  Waldemar Hujo          : DFT-NL                                        
  H. Jonsson             : NEB                                           
  Holger Kruse           : gCP                                           
  Marcel Mueller         : wB97X-3c, vDZP basis set                      
  Hagen Neugebauer       : wr2SCAN, Native XTB                           
  Gianluca Regni         : ADLD/ADEX                                     
  Tobias Risthaus        : pre 6.0 range-separated hybrid DFT and stability analysis
  Lukas Wittmann         : regularized MP2, r2SCAN double-hybrids, wr2SCAN        
                                                                         
We gratefully acknowledge several colleagues who have allowed us to      
interface, adapt or use parts of their codes:                            
  Ed Valeev, F. Pavosevic, A. Kumar             : LibInt (2-el integral package), F12 methods 
  Garnet Chan, S. Sharma, J. Yang, R. Olivares  : DMRG                   
  Ulf Ekstrom                                   : XCFun DFT Library      
  Mihaly Kallay                                 : mrcc  (arbitrary order and MRCC methods)
  Frank Weinhold                                : gennbo (NPA and NBO analysis)           
  Simon Mueller                                 : openCOSMO-RS                            
  Christopher J. Cramer and Donald G. Truhlar   : smd solvation model                     
  S Lehtola, MJT Oliveira, MAL Marques          : LibXC Library                           
  Liviu Ungur et al                             : ANISO software                          


 Your calculation uses the libint2 library for the computation of 2-el integrals
 For citations please refer to: http://libint.valeyev.net

 Your ORCA version has been built with support for libXC version: 7.0.0
 For citations please refer to: https://libxc.gitlab.io

 This ORCA versions uses:
   CBLAS   interface :  Fast vector & matrix operations
   LAPACKE interface :  Fast linear algebra routines
   SCALAPACK package :  Parallel linear algebra routines
   Shared memory     :  Shared parallel matrices
   BLAS/LAPACK       :  OpenBLAS 0.3.29  USE64BITINT DYNAMIC_ARCH NO_AFFINITY Haswell SINGLE_THREADED
        Core in use  :  Haswell
   Copyright (c) 2011-2014, The OpenBLAS Project


  ***********************************
  * Starting time: Sat Jun  6 00:37:44 2026
  * Host name:     steezy
  * Process ID:    1641100
  * Working dir.:  /home/jannes/hexacyanide/fecn6/05_basis_comparison/pbe0
  ***********************************

NOTE: MaxCore=3000 MB was set to SCF,MP2,MDCI,CIPSI,MRCI,RASCI and CIS
      => If you want to overwrite this, your respective input block should be placed after the MaxCore statement


***************************************
The coordinates will be read from file: ../../01_opt/fecn6_opt_pbe0_tzvp.xyz
***************************************


================================================================================

----- Orbital basis set information -----
Your calculation utilizes the basis: def2-TZVP
   F. Weigend and R. Ahlrichs, Phys. Chem. Chem. Phys. 7, 3297 (2005).

The basis set includes element-specific modifications.

Your calculation utilizes the basis: aug-cc-pVTZ 
    H, B-Ne : Obtained from the ccRepo (grant-hill.group.shef.ac.uk/ccrepo) Feb. 2017
              R. A. Kendall, T. H. Dunning, Jr., R. J. Harrison, J. Chem. Phys. 96, 6796 (1992)
         He : Obtained from the ccRepo (grant-hill.group.shef.ac.uk/ccrepo) Feb. 2017
              D. E. Woon, T. H. Dunning, Jr., J. Chem. Phys. 100, 2975 (1994)
  Li-Be, Na : Obtained from the ccRepo (grant-hill.group.shef.ac.uk/ccrepo) Feb. 2017
              B. P. Prascher, D. E. Woon, K. A. Peterson, T. H. Dunning, Jr., A. K. Wilson, Theor. Chem. Acc. 128, 69 (2011)
         Mg : Obtained from the Peterson Research Group Website (tyr0.chem.wsu.edu/~kipeters) Feb. 2017
              B. P. Prascher, D. E. Woon, K. A. Peterson, T. H. Dunning, Jr., A. K. Wilson, Theor. Chem. Acc. 128, 69 (2011)
      Al-Ar : Obtained from the ccRepo (grant-hill.group.shef.ac.uk/ccrepo) Feb. 2017
              D. E. Woon, T. H. Dunning, Jr., J. Chem. Phys. 98, 1358 (1993)
      Sc-Zn : Obtained from the ccRepo (grant-hill.group.shef.ac.uk/ccrepo) Feb. 2017
              N. B. Balabanov, K. A. Peterson, J. Chem. Phys. 123, 064107 (2005)
              N. B. Balabanov, K. A. Peterson, J. Chem. Phys. 125, 074110 (2006)
      Ga-Kr : Obtained from the ccRepo (grant-hill.group.shef.ac.uk/ccrepo) Feb. 2017
              A. K. Wilson, D. E. Woon, K. A. Peterson, T. H. Dunning, Jr., J. Chem. Phys. 110, 7667 (1999)
     Ag, Au : Obtained from the Peterson Research Group Website (tyr0.chem.wsu.edu/~kipeters) Feb. 2017
              K. A. Peterson, C. Puzzarini, Theor. Chem. Acc. 114, 283 (2005)

----- AuxJ basis set information -----
Your calculation utilizes the AutoAux generation procedure.
  G. L. Stoychev, A. A. Auer, F. Neese, J. Chem. Theory Comput. 13, 554 (2017)

----- AuxC basis set information -----
Your calculation utilizes the AutoAux generation procedure.
  G. L. Stoychev, A. A. Auer, F. Neese, J. Chem. Theory Comput. 13, 554 (2017)

----- AuxJK basis set information -----
Your calculation utilizes the AutoAux generation procedure.
  G. L. Stoychev, A. A. Auer, F. Neese, J. Chem. Theory Comput. 13, 554 (2017)

----- AuxX basis set information -----
Your calculation utilizes the AutoAux generation procedure.
  G. L. Stoychev, A. A. Auer, F. Neese, J. Chem. Theory Comput. 13, 554 (2017)

================================================================================
                                        WARNINGS
                       Please study these warnings very carefully!
================================================================================


WARNING: CIS/ROCIS methods need fully converged wavefunctions
  ===> : Setting SCFConvForced true
         You can overwrite this default with %scf ConvForced false 


================================================================================
                                       INPUT FILE
================================================================================
NAME = nkxas.inp
|  1> %pal nprocs 4 end
|  2> %maxcore 3000
|  3> ! PBE0 def2-TZVP AutoAux RIJCOSX DefGrid3
|  4> %basis
|  5>   NewGTO N "aug-cc-pVTZ" end
|  6> end
|  7> %tddft
|  8>   nroots 200
|  9>   OrbWin[0] = 5,10,-1,-1
| 10> end
| 11> * xyzfile -4 1 ../../01_opt/fecn6_opt_pbe0_tzvp.xyz
| 12> 
| 13>                          ****END OF INPUT****
================================================================================

                       ****************************
                       * Single Point Calculation *
                       ****************************

---------------------------------
CARTESIAN COORDINATES (ANGSTROEM)
---------------------------------
  Fe     0.000001    0.000001    0.000000
  C      1.992320   -0.000004   -0.000001
  C     -1.992317    0.000002    0.000002
  C     -0.000005    1.992321   -0.000001
  C     -0.000000   -1.992318    0.000002
  C      0.000002   -0.000002    1.992318
  C      0.000006    0.000002   -1.992319
  N      3.166046   -0.000007   -0.000004
  N     -3.166043    0.000004    0.000002
  N     -0.000013    3.166048   -0.000003
  N     -0.000001   -3.166044    0.000004
  N      0.000000   -0.000005    3.166045
  N      0.000005    0.000002   -3.166046

----------------------------
CARTESIAN COORDINATES (A.U.)
----------------------------
  NO LB      ZA    FRAG     MASS         X           Y           Z
   0 Fe   26.0000    0    55.850    0.000002    0.000002    0.000000
   1 C     6.0000    0    12.011    3.764938   -0.000007   -0.000002
   2 C     6.0000    0    12.011   -3.764934    0.000004    0.000003
   3 C     6.0000    0    12.011   -0.000009    3.764942   -0.000001
   4 C     6.0000    0    12.011   -0.000000   -3.764935    0.000004
   5 C     6.0000    0    12.011    0.000003   -0.000003    3.764935
   6 C     6.0000    0    12.011    0.000011    0.000003   -3.764937
   7 N     7.0000    0    14.007    5.982959   -0.000013   -0.000007
   8 N     7.0000    0    14.007   -5.982955    0.000007    0.000004
   9 N     7.0000    0    14.007   -0.000024    5.982963   -0.000005
  10 N     7.0000    0    14.007   -0.000002   -5.982957    0.000007
  11 N     7.0000    0    14.007    0.000001   -0.000009    5.982958
  12 N     7.0000    0    14.007    0.000009    0.000003   -5.982959

--------------------------------
INTERNAL COORDINATES (ANGSTROEM)
--------------------------------
 Fe     0   0   0     0.000000000000     0.00000000     0.00000000
 C      1   0   0     1.992318261767     0.00000000     0.00000000
 C      1   2   0     1.992318755222   179.99989449     0.00000000
 C      1   2   3     1.992320320540    90.00030639   176.08463907
 C      1   2   4     1.992318856103    89.99990346   180.00004421
 C      1   2   5     1.992318028941    90.00002332    89.99986381
 C      1   2   5     1.992318862032    89.99983068   269.99991913
 N      2   1   6     1.173726119520   179.99992353   182.76480919
 N      3   1   6     1.173726000184   179.99994479   117.62380217
 N      4   1   2     1.173726303437   179.99976173   159.22857827
 N      5   1   2     1.173726377493   179.99998099     0.00000000
 N      6   1   2     1.173726858407   179.99988695   222.45670598
 N      7   1   2     1.173726693986   179.99981964   172.72429205

---------------------------
INTERNAL COORDINATES (A.U.)
---------------------------
 Fe     0   0   0     0.000000000000     0.00000000     0.00000000
 C      1   0   0     3.764935886350     0.00000000     0.00000000
 C      1   2   0     3.764936818845   179.99989449     0.00000000
 C      1   2   3     3.764939776868    90.00030639   176.08463907
 C      1   2   4     3.764937009481    89.99990346   180.00004421
 C      1   2   5     3.764935446371    90.00002332    89.99986381
 C      1   2   5     3.764937020686    89.99983068   269.99991913
 N      2   1   6     2.218020922124   179.99992353   182.76480919
 N      3   1   6     2.218020696611   179.99994479   117.62380217
 N      4   1   2     2.218021269676   179.99976173   159.22857827
 N      5   1   2     2.218021409621   179.99998099     0.00000000
 N      6   1   2     2.218022318417   179.99988695   222.45670598
 N      7   1   2     2.218022007706   179.99981964   172.72429205

---------------------
BASIS SET INFORMATION
---------------------
There are 3 groups of distinct atoms

 Group   1 Type Fe  : 17s11p7d1f contracted to 6s4p4d1f pattern {842111/6311/4111/1}
 Group   2 Type C   : 11s6p2d1f contracted to 5s3p2d1f pattern {62111/411/11/1}
 Group   3 Type N   : 19s6p3d2f contracted to 5s4p3d2f pattern {88111/3111/111/11}

Atom   0Fe   basis set group =>   1
Atom   1C    basis set group =>   2
Atom   2C    basis set group =>   2
Atom   3C    basis set group =>   2
Atom   4C    basis set group =>   2
Atom   5C    basis set group =>   2
Atom   6C    basis set group =>   2
Atom   7N    basis set group =>   3
Atom   8N    basis set group =>   3
Atom   9N    basis set group =>   3
Atom  10N    basis set group =>   3
Atom  11N    basis set group =>   3
Atom  12N    basis set group =>   3
---------------------------------
AUXILIARY/J BASIS SET INFORMATION
---------------------------------
There are 3 groups of distinct atoms

 Group   1 Type Fe  : 21s17p16d16f12g3h contracted to 21s17p16d16f12g3h pattern {111111111111111111111/11111111111111111/1111111111111111/1111111111111111/111111111111/111}
 Group   2 Type C   : 16s13p12d7f3g contracted to 16s13p12d7f3g pattern {1111111111111111/1111111111111/111111111111/1111111/111}
 Group   3 Type N   : 16s13p12d7f5g contracted to 16s13p12d7f5g pattern {1111111111111111/1111111111111/111111111111/1111111/11111}

Atom   0Fe   basis set group =>   1
Atom   1C    basis set group =>   2
Atom   2C    basis set group =>   2
Atom   3C    basis set group =>   2
Atom   4C    basis set group =>   2
Atom   5C    basis set group =>   2
Atom   6C    basis set group =>   2
Atom   7N    basis set group =>   3
Atom   8N    basis set group =>   3
Atom   9N    basis set group =>   3
Atom  10N    basis set group =>   3
Atom  11N    basis set group =>   3
Atom  12N    basis set group =>   3
---------------------------------
AUXILIARY/C BASIS SET INFORMATION
---------------------------------
There are 3 groups of distinct atoms

 Group   1 Type Fe  : 21s17p16d16f12g3h contracted to 21s17p16d16f12g3h pattern {111111111111111111111/11111111111111111/1111111111111111/1111111111111111/111111111111/111}
 Group   2 Type C   : 16s13p12d7f3g contracted to 16s13p12d7f3g pattern {1111111111111111/1111111111111/111111111111/1111111/111}
 Group   3 Type N   : 16s13p12d7f5g contracted to 16s13p12d7f5g pattern {1111111111111111/1111111111111/111111111111/1111111/11111}

Atom   0Fe   basis set group =>   1
Atom   1C    basis set group =>   2
Atom   2C    basis set group =>   2
Atom   3C    basis set group =>   2
Atom   4C    basis set group =>   2
Atom   5C    basis set group =>   2
Atom   6C    basis set group =>   2
Atom   7N    basis set group =>   3
Atom   8N    basis set group =>   3
Atom   9N    basis set group =>   3
Atom  10N    basis set group =>   3
Atom  11N    basis set group =>   3
Atom  12N    basis set group =>   3
----------------------------------
AUXILIARY/JK BASIS SET INFORMATION
----------------------------------
There are 3 groups of distinct atoms

 Group   1 Type Fe  : 21s17p16d16f12g3h contracted to 21s17p16d16f12g3h pattern {111111111111111111111/11111111111111111/1111111111111111/1111111111111111/111111111111/111}
 Group   2 Type C   : 16s13p12d7f3g contracted to 16s13p12d7f3g pattern {1111111111111111/1111111111111/111111111111/1111111/111}
 Group   3 Type N   : 16s13p12d7f5g contracted to 16s13p12d7f5g pattern {1111111111111111/1111111111111/111111111111/1111111/11111}

Atom   0Fe   basis set group =>   1
Atom   1C    basis set group =>   2
Atom   2C    basis set group =>   2
Atom   3C    basis set group =>   2
Atom   4C    basis set group =>   2
Atom   5C    basis set group =>   2
Atom   6C    basis set group =>   2
Atom   7N    basis set group =>   3
Atom   8N    basis set group =>   3
Atom   9N    basis set group =>   3
Atom  10N    basis set group =>   3
Atom  11N    basis set group =>   3
Atom  12N    basis set group =>   3
---------------------------------
AUXILIARY/X BASIS SET INFORMATION
---------------------------------
There are 3 groups of distinct atoms

 Group   1 Type Fe  : 21s17p16d16f12g3h contracted to 21s17p16d16f12g3h pattern {111111111111111111111/11111111111111111/1111111111111111/1111111111111111/111111111111/111}
 Group   2 Type C   : 16s13p12d7f3g contracted to 16s13p12d7f3g pattern {1111111111111111/1111111111111/111111111111/1111111/111}
 Group   3 Type N   : 16s13p12d7f5g contracted to 16s13p12d7f5g pattern {1111111111111111/1111111111111/111111111111/1111111/11111}

Atom   0Fe   basis set group =>   1
Atom   1C    basis set group =>   2
Atom   2C    basis set group =>   2
Atom   3C    basis set group =>   2
Atom   4C    basis set group =>   2
Atom   5C    basis set group =>   2
Atom   6C    basis set group =>   2
Atom   7N    basis set group =>   3
Atom   8N    basis set group =>   3
Atom   9N    basis set group =>   3
Atom  10N    basis set group =>   3
Atom  11N    basis set group =>   3
Atom  12N    basis set group =>   3


           ************************************************************
           *        Program running with 4 parallel MPI-processes     *
           *              working on a common directory               *
           ************************************************************
------------------------------------------------------------------------------
                             ORCA STARTUP CALCULATIONS
                           -- RI-GTO INTEGRALS CHOSEN --
------------------------------------------------------------------------------
------------------------------------------------------------------------------
                   ___                                                        
                  /   \      - P O W E R E D   B Y -                         
                 /     \                                                     
                 |  |  |   _    _      __       _____    __    __             
                 |  |  |  | |  | |    /  \     |  _  \  |  |  /  |          
                  \  \/   | |  | |   /    \    | | | |  |  | /  /          
                 / \  \   | |__| |  /  /\  \   | |_| |  |  |/  /          
                |  |  |   |  __  | /  /__\  \  |    /   |      \           
                |  |  |   | |  | | |   __   |  |    \   |  |\   \          
                \     /   | |  | | |  |  |  |  | |\  \  |  | \   \       
                 \___/    |_|  |_| |__|  |__|  |_| \__\ |__|  \__/        
                                                                              
                      - O R C A' S   B I G   F R I E N D -                    
                                      &                                       
                       - I N T E G R A L  F E E D E R -                       
                                                                              
 v1 FN, 2020, v2 2021, v3 2022-2024                                           
------------------------------------------------------------------------------


----------------------
SHARK INTEGRAL PACKAGE
----------------------

Number of atoms                             ...     13
Number of basis functions                   ...    543
Number of shells                            ...    201
Maximum angular momentum                    ...      3
Integral batch strategy                     ... SHARK/LIBINT Hybrid
RI-J (if used) integral strategy            ... SPLIT-RIJ (Revised 2003 algorithm where possible)
Printlevel                                  ...      1
Contraction scheme used                     ... PARTIAL GENERAL contraction
Prescreening option                         ... SCHWARTZ
   Thresh                                   ... 1.000e-10
   Tcut                                     ... 1.000e-11
   Tpresel                                  ... 1.000e-11 
Coulomb Range Separation                    ... NOT USED
Exchange Range Separation                   ... NOT USED
Multipole approximations                    ... NOT USED
Finite Nucleus Model                        ... NOT USED
CABS basis                                  ... NOT available
Auxiliary Coulomb fitting basis             ... AVAILABLE
   # of basis functions in Aux-J            ...   2805
   # of shells in Aux-J                     ...    709
   Maximum angular momentum in Aux-J        ...      5
Auxiliary J/K fitting basis                 ... AVAILABLE
   # of basis functions in Aux-JK           ...   2805
   # of shells in Aux-JK                    ...    709
   Maximum angular momentum in Aux-JK       ...      5
Auxiliary Correlation fitting basis         ... AVAILABLE
   # of basis functions in Aux-C            ...   2805
   # of shells in Aux-C                     ...    709
   Maximum angular momentum in Aux-C        ...      5
Auxiliary 'external' fitting basis          ... NOT available

Checking pre-screening integrals            ... done (  0.0 sec) Dimension = 201
Save PGC pre-screening integrals            ... done (  0.0 sec) Dimension = 201
Calculate PGC overlap integrals             ... done (  0.1 sec) Dimension = 165
Calculating pre-screening integrals (ORCA)  ... done (  0.2 sec) Dimension = 165
Shell pair information
Shell pair cut-off parameter TPreSel        ...   1.0e-11
Total number of shell pairs                 ...     20301
Shell pairs after pre-screening             ...     14941
Total number of primitive shell pairs       ...     41825
Primitive shell pairs kept                  ...     25527
          la=0 lb=0:   2952 shell pairs
          la=1 lb=0:   3666 shell pairs
          la=1 lb=1:   1009 shell pairs
          la=2 lb=0:   2478 shell pairs
          la=2 lb=1:   1462 shell pairs
          la=2 lb=2:    535 shell pairs
          la=3 lb=0:   1270 shell pairs
          la=3 lb=1:    814 shell pairs
          la=3 lb=2:    592 shell pairs
          la=3 lb=3:    163 shell pairs

Checking whether 4 symmetric matrices of dimension 543 fit in memory
:Max Core in MB      =   3000.00
 MB in use           =     27.05
 MB left             =   2972.95
 MB needed           =      4.51
 Data fit in memory  = YES
Calculating RI/J V-Matrix + Cholesky decomp.... done (  1.7 sec)
Calculating RI/JK V-Matrix + Cholesky decomp.... done (  3.0 sec)
Calculating RI/C V-Matrix + Cholesky decomp.... done (  6.0 sec)
Calculating Nuclear repulsion               ... done (  0.0 sec) ENN=    890.446512275459 Eh

Diagonalization of the overlap matrix:
Smallest eigenvalue                        ... 8.339e-06
Time for diagonalization                   ...    0.077 sec
Threshold for overlap eigenvalues          ... 1.000e-07
Number of eigenvalues below threshold      ... 0
Time for construction of square roots      ...    0.043 sec
Total time needed                          ...    0.126 sec

-------------------
DFT GRID GENERATION
-------------------

General Integration Accuracy     IntAcc      ... 4.959
Radial Grid Type                 RadialGrid  ... OptM3 with GC (2021)
Angular Grid (max. ang.)         AngularGrid ... 6 (Lebedev-590)
Angular grid pruning method      GridPruning ... 4 (adaptive)
Weight generation scheme         WeightScheme... mBecke (2022)
Basis function cutoff            BFCut       ... 1.0000e-10
Integration weight cutoff        WCut        ... 1.0000e-14
Partially contracted basis set               ... off
Rotationally invariant grid construction     ... off
Angular grids for H and He will be reduced by one unit
Diffuse basis detected: some atoms will have their outermost
                        angular grid increased by 1.
Core-polarized basis detected: some atoms will have their core
                               angular grid increased.

Total number of grid points                  ...   203300
Total number of batches                      ...     3183
Average number of points per batch           ...       63
Average number of grid points per atom       ...    15638

---------------------
SHARK GRID GENERATION
---------------------

General Integration Accuracy     IntAcc      ... 4.959
Radial Grid Type                 RadialGrid  ... OptM3 with GC (2021)
Angular Grid (max. ang.)         AngularGrid ... 6 (Lebedev-590)
Angular grid pruning method      GridPruning ... 4 (adaptive)
Weight generation scheme         WeightScheme... mBecke (2022)
Basis function cutoff            BFCut       ... 1.0000e-10
Integration weight cutoff        WCut        ... 1.0000e-14
Partially contracted basis set               ... off
Rotationally invariant grid construction     ... off
Angular grids for H and He will be reduced by one unit
Diffuse basis detected: some atoms will have their outermost
                        angular grid increased by 1.
Core-polarized basis detected: some atoms will have their core
                               angular grid increased.
Steep s-basis detected: some atoms will have their radial
                        grid points doubled.

Total number of grid points                  ...   292970
Total number of batches                      ...     4584
Average number of points per batch           ...       63
Average number of grid points per atom       ...    22536

--------------------
COSX GRID GENERATION
--------------------

GRIDX 1
-------
General Integration Accuracy     IntAcc      ... 4.020
Radial Grid Type                 RadialGrid  ... OptM3 with GC (2021)
Angular Grid (max. ang.)         AngularGrid ... 2 (Lebedev-110)
Angular grid pruning method      GridPruning ... 4 (adaptive)
Weight generation scheme         WeightScheme... mBecke (2022)
Basis function cutoff            BFCut       ... 1.0000e-10
Integration weight cutoff        WCut        ... 1.0000e-14
Partially contracted basis set               ... on
Rotationally invariant grid construction     ... off
Angular grids for H and He will be reduced by one unit
Diffuse basis detected: some atoms will have their outermost
                        angular grid increased by 1.
Core-polarized basis detected: some atoms will have their core
                               angular grid increased.

Total number of grid points                  ...    29800
Total number of batches                      ...      239
Average number of points per batch           ...      124
Average number of grid points per atom       ...     2292
UseSFitting                                  ... on

GRIDX 2
-------
General Integration Accuracy     IntAcc      ... 4.338
Radial Grid Type                 RadialGrid  ... OptM3 with GC (2021)
Angular Grid (max. ang.)         AngularGrid ... 3 (Lebedev-194)
Angular grid pruning method      GridPruning ... 4 (adaptive)
Weight generation scheme         WeightScheme... mBecke (2022)
Basis function cutoff            BFCut       ... 1.0000e-10
Integration weight cutoff        WCut        ... 1.0000e-14
Partially contracted basis set               ... on
Rotationally invariant grid construction     ... off
Angular grids for H and He will be reduced by one unit
Diffuse basis detected: some atoms will have their outermost
                        angular grid increased by 1.
Core-polarized basis detected: some atoms will have their core
                               angular grid increased.

Total number of grid points                  ...    58264
Total number of batches                      ...      461
Average number of points per batch           ...      126
Average number of grid points per atom       ...     4482
UseSFitting                                  ... on

GRIDX 3
-------
General Integration Accuracy     IntAcc      ... 4.871
Radial Grid Type                 RadialGrid  ... OptM3 with GC (2021)
Angular Grid (max. ang.)         AngularGrid ... 4 (Lebedev-302)
Angular grid pruning method      GridPruning ... 4 (adaptive)
Weight generation scheme         WeightScheme... mBecke (2022)
Basis function cutoff            BFCut       ... 1.0000e-10
Integration weight cutoff        WCut        ... 1.0000e-14
Partially contracted basis set               ... on
Rotationally invariant grid construction     ... off
Angular grids for H and He will be reduced by one unit
Diffuse basis detected: some atoms will have their outermost
                        angular grid increased by 1.
Core-polarized basis detected: some atoms will have their core
                               angular grid increased.

Total number of grid points                  ...   102896
Total number of batches                      ...      810
Average number of points per batch           ...      127
Average number of grid points per atom       ...     7915
UseSFitting                                  ... on
Grids setup in  38.4 sec
Initializing property integral containers    ... done (  0.0 sec)

SHARK setup successfully completed in  50.4 seconds

Maximum memory used throughout the entire STARTUP-calculation: 93.8 MB


           ************************************************************
           *        Program running with 4 parallel MPI-processes     *
           *              working on a common directory               *
           ************************************************************
-------------------------------------------------------------------------------
                                 ORCA GUESS
                   Start orbitals & Density for SCF / CASSCF
-------------------------------------------------------------------------------

------------
SCF SETTINGS
------------
Hamiltonian:
 Density Functional     Method          .... DFT(GTOs)
 Exchange Functional    Exchange        .... PBE
   PBE kappa parameter   XKappa         ....  0.804000
   PBE mue parameter    XMuePBE         ....  0.219520
 Correlation Functional Correlation     .... PBE
   PBE beta parameter  CBetaPBE         ....  0.066725
 LDA part of GGA corr.  LDAOpt          .... PW91-LDA
 Gradients option       PostSCFGGA      .... off
 Hybrid DFT is turned on
   Fraction HF Exchange ScalHFX         ....  0.250000
   Scaling of DF-GGA-X  ScalDFX         ....  0.750000
   Scaling of DF-GGA-C  ScalDFC         ....  1.000000
   Scaling of DF-LDA-C  ScalLDAC        ....  1.000000
   Perturbative correction              ....  0.000000
   NL short-range parameter             ....  6.900000
 RI-approximation to the Coulomb term is turned on
   Number of AuxJ basis functions       .... 2805
   RIJ-COSX (HFX calculated with COS-X)).... on


General Settings:
 Integral files         IntName         .... nkxas
 Hartree-Fock type      HFTyp           .... RHF
 Total Charge           Charge          ....   -4
 Multiplicity           Mult            ....    1
 Number of Electrons    NEL             ....  108
 Basis Dimension        Dim             ....  507
 Nuclear Repulsion      ENuc            ....    890.4465122755 Eh

Convergence Acceleration:
 AO-DIIS                CNVDIIS         .... on
   Start iteration      DIISMaxIt       ....    12
   Startup error        DIISStart       ....  0.200000
   # of expansion vecs  DIISMaxEq       ....     5
   Bias factor          DIISBfac        ....   1.050
   Max. coefficient     DIISMaxC        ....  10.000
 MO-DIIS                CNVKDIIS        .... off
 Trust-Rad. Augm. Hess. CNVTRAH         .... auto
   Auto Start mean grad. ratio tolernc. ....  1.125000
   Auto Start start iteration           ....    50
   Auto Start num. interpolation iter.  ....    10
   Max. Number of Micro iterations      ....    24
   Max. Number of Macro iterations      .... Maxiter - #DIIS iter
   Number of Davidson start vectors     ....     2
   Converg. threshold    (grad. norm)   ....   5.000e-05
   Grad. Scal. Fac. for Micro threshold ....   0.100
   Minimum threshold for Micro iter.    ....   1.000e-02
   NR start threshold (gradient norm)   ....   1.000e-04
   Initial trust radius                 ....   0.400
   Minimum AH scaling param. (alpha)    ....   1.000
   Maximum AH scaling param. (alpha)    .... 1000.000
   Quad. conv. algorithm                .... NR
   White noise on init. David. guess    .... on
   Maximum white noise                  ....   0.010
   Pseudo random numbers                .... off
   Inactive MOs                         .... canonical
   Orbital update algorithm             .... Taylor
   Preconditioner                       .... Diag
   Full preconditioner red. dimension   ....   250
 SOSCF                 CNVSOSCF           .... on
   Start iteration     SOSCFMaxIt         ....   150
   Startup grad/error  SOSCFStart         ....  0.003300
   Hessian update      SOSCFHessUp        .... L-BFGS
   Autom. constraints  SOSCFAutoConstrain .... off
 Level Shifting         CNVShift        .... on
   Level shift para.    LevelShift      ....    0.2500
   Turn off err/grad.   ShiftErr        ....    0.0010
 Zerner damping         CNVZerner       .... off
 Static damping         CNVDamp         .... on
   Fraction old density DampFac         ....    0.7000
   Max. Damping (<1)    DampMax         ....    0.9800
   Min. Damping (>=0)   DampMin         ....    0.0000
   Turn off err/grad.   DampErr         ....    0.1000

SCF Procedure:
 Maximum # iterations   MaxIter         ....   125
 SCF integral mode      SCFMode         .... Direct
   Integral package                     .... SHARK and LIBINT hybrid scheme
 Reset frequency        DirectResetFreq ....    20
 Integral Threshold     Thresh          ....  1.000e-10 Eh
 Primitive CutOff       TCut            ....  1.000e-11 Eh

Convergence Tolerance:
 Convergence Check Mode ConvCheckMode   .... Total+1el-Energy
 Convergence forced     ConvForced      .... 1
 Energy Change          TolE            ....  1.000e-06 Eh
 1-El. energy change                    ....  1.000e-03 Eh
 Orbital Gradient       TolG            ....  5.000e-05
 Orbital Rotation angle TolX            ....  5.000e-05
 DIIS Error             TolErr          ....  1.000e-06

------------------------------
INITIAL GUESS: MODEL POTENTIAL
------------------------------
Loading Hartree-Fock densities                     ... done
Calculating cut-offs                               ... done
Initializing the effective Hamiltonian             ... done
Setting up the integral package (SHARK)            ... done
Starting the Coulomb interaction                   ... done (   0.5 sec)
Making the grid                                    ... done (   0.3 sec)
Mapping shells                                     ... done
Starting the XC term evaluation                    ... done (   0.6 sec)
  promolecular density results
     # of electrons  =    104.003826316
     EX              =   -123.477576777
     EC              =     -3.668747558
     EX+EC           =   -127.146324335
Transforming the Hamiltonian                       ... done (   0.3 sec)
Diagonalizing the Hamiltonian                      ... done (   0.4 sec)
Back transforming the eigenvectors                 ... done (   0.2 sec)
Now organizing SCF variables                       ... done
                      ------------------
                      INITIAL GUESS DONE (   2.6 sec)
                      ------------------
             **** ENERGY FILE WAS UPDATED (nkxas.en.tmp) ****
Finished Guess after   3.7 sec
Maximum memory used throughout the entire GUESS-calculation: 41.9 MB


           ************************************************************
           *        Program running with 4 parallel MPI-processes     *
           *              working on a common directory               *
           ************************************************************

-------------------------------------------------------------------------------------------
                                      ORCA LEAN-SCF
                              memory conserving SCF solver
-------------------------------------------------------------------------------------------

----------------------------------------D-I-I-S--------------------------------------------
Iteration    Energy (Eh)           Delta-E    RMSDP     MaxDP     DIISErr   Damp  Time(sec)
-------------------------------------------------------------------------------------------
               ***  Starting incremental Fock matrix formation  ***
    1    -1819.1412896523074778     0.00e+00  3.82e-03  5.75e-02  2.40e-01  0.700  45.3
Warning: op=0 Small HOMO/LUMO gap (  -0.055) - skipping pre-diagonalization
         Will do a full diagonalization
    2    -1819.3991213468611932    -2.58e-01  4.57e-03  1.33e-01  1.17e-01  0.700  31.7
                               ***Turning on AO-DIIS***
    3    -1819.5258754925903304    -1.27e-01  3.24e-03  1.01e-01  6.42e-02  0.700  30.2
    4    -1819.5986515324120774    -7.28e-02  4.97e-03  1.41e-01  4.52e-02  0.000  30.1
    5    -1819.7583987157199772    -1.60e-01  2.61e-03  8.63e-02  3.71e-02  0.000  28.7
    6    -1819.7616795720105074    -3.28e-03  1.49e-03  4.78e-02  6.32e-03  0.000  30.3
    7    -1819.7621623233712853    -4.83e-04  9.77e-04  3.15e-02  4.10e-03  0.000  25.7
                              *** Initializing SOSCF ***
---------------------------------------S-O-S-C-F--------------------------------------
Iteration    Energy (Eh)           Delta-E    RMSDP     MaxDP     MaxGrad    Time(sec)
--------------------------------------------------------------------------------------
    8    -1819.7623592807217392    -1.97e-04  4.83e-04  1.49e-02  2.29e-03    24.7
               *** Restarting incremental Fock matrix formation ***
    9    -1819.7624116984839020    -5.24e-05  6.08e-04  2.09e-02  5.09e-04    49.4
   10    -1819.7624258877826833    -1.42e-05  9.33e-04  3.16e-02  9.41e-04    36.4
   11    -1819.7623610301620829     6.49e-05  7.52e-04  2.54e-02  2.94e-03    41.5
   12    -1819.7624324642897591    -7.14e-05  2.37e-04  8.38e-03  9.44e-05    36.0
   13    -1819.7624329589953049    -4.95e-07  2.09e-04  7.66e-03  7.35e-05    32.3
                 **** Energy Check signals convergence ****

               *****************************************************
               *                     SUCCESS                       *
               *           SCF CONVERGED AFTER  13 CYCLES          *
               *****************************************************

Recomputing exchange energy using gridx3       ... done (   53.636 sec)
Old exchange energy                            :    -31.268023269 Eh
New exchange energy                            :    -31.268197529 Eh
Exchange energy change after final integration :     -0.000174260 Eh
Total energy after final integration           :  -1819.762607492 Eh
             **** ENERGY FILE WAS UPDATED (nkxas.en.tmp) ****

----------------
TOTAL SCF ENERGY
----------------

Total Energy       :      -1819.76260749173184 Eh          -49518.25801 eV

Components:
Nuclear Repulsion  :        890.44651227545910 Eh           24230.28144 eV
Electronic Energy  :      -2710.20894550734556 Eh          -73748.53471 eV
One Electron Energy:      -4335.44250287253544 Eh         -117973.38815 eV
Two Electron Energy:       1625.23355736518965 Eh           44224.85344 eV

Virial components:
Potential Energy   :      -3634.97879616145565 Eh          -98912.80167 eV
Kinetic Energy     :       1815.21618866972381 Eh           49394.54366 eV
Virial Ratio       :          2.00250461562121

DFT components:
N(Alpha)           :       54.000411523036 electrons
N(Beta)            :       54.000411523036 electrons
N(Total)           :      108.000823046072 electrons
E(X)               :      -93.944646224718 Eh       
E(C)               :       -3.833090530541 Eh       
E(XC)              :      -97.777736755258 Eh       

---------------
SCF CONVERGENCE
---------------

  Last Energy change         ...    4.9471e-07  Tolerance :   1.0000e-06
  Last MAX-Density change    ...    7.6637e-03  Tolerance :   1.0000e-05
  Last RMS-Density change    ...    2.0948e-04  Tolerance :   1.0000e-06
  Last DIIS Error            ...    2.2942e-03  Tolerance :   1.0000e-06
  Last Orbital Gradient      ...    7.3521e-05  Tolerance :   5.0000e-05
  Last Orbital Rotation      ...    1.7311e-04  Tolerance :   5.0000e-05


----------------
ORBITAL ENERGIES
----------------

  NO   OCC          E(Eh)            E(eV) 
   0   2.0000    -255.808807     -6960.9115 
   1   2.0000     -29.585411      -805.0600 
   2   2.0000     -25.410433      -691.4530 
   3   2.0000     -25.410433      -691.4530 
   4   2.0000     -25.410433      -691.4530 
   5   2.0000     -13.819043      -376.0353 
   6   2.0000     -13.819043      -376.0353 
   7   2.0000     -13.819042      -376.0352 
   8   2.0000     -13.819041      -376.0352 
   9   2.0000     -13.819041      -376.0352 
  10   2.0000     -13.819040      -376.0352 
  11   2.0000      -9.693254      -263.7669 
  12   2.0000      -9.693250      -263.7667 
  13   2.0000      -9.693250      -263.7667 
  14   2.0000      -9.693235      -263.7663 
  15   2.0000      -9.693235      -263.7663 
  16   2.0000      -9.693235      -263.7663 
  17   2.0000      -2.918750       -79.4232 
  18   2.0000      -1.673018       -45.5251 
  19   2.0000      -1.673018       -45.5251 
  20   2.0000      -1.673018       -45.5251 
  21   2.0000      -0.364571        -9.9205 
  22   2.0000      -0.361610        -9.8399 
  23   2.0000      -0.361610        -9.8399 
  24   2.0000      -0.361610        -9.8399 
  25   2.0000      -0.360498        -9.8096 
  26   2.0000      -0.360498        -9.8096 
  27   2.0000       0.024183         0.6581 
  28   2.0000       0.095901         2.6096 
  29   2.0000       0.095901         2.6096 
  30   2.0000       0.095901         2.6096 
  31   2.0000       0.104817         2.8522 
  32   2.0000       0.104817         2.8522 
  33   2.0000       0.160750         4.3742 
  34   2.0000       0.172284         4.6881 
  35   2.0000       0.172284         4.6881 
  36   2.0000       0.172284         4.6881 
  37   2.0000       0.176713         4.8086 
  38   2.0000       0.176713         4.8086 
  39   2.0000       0.176713         4.8086 
  40   2.0000       0.196273         5.3409 
  41   2.0000       0.196273         5.3409 
  42   2.0000       0.202836         5.5195 
  43   2.0000       0.202836         5.5195 
  44   2.0000       0.202836         5.5195 
  45   2.0000       0.213342         5.8053 
  46   2.0000       0.213342         5.8053 
  47   2.0000       0.213342         5.8053 
  48   2.0000       0.231894         6.3102 
  49   2.0000       0.231894         6.3102 
  50   2.0000       0.231894         6.3102 
  51   2.0000       0.309561         8.4236 
  52   2.0000       0.309561         8.4236 
  53   2.0000       0.309561         8.4236 
  54   0.0000       0.416190        11.3251 
  55   0.0000       0.440802        11.9948 
  56   0.0000       0.440889        11.9972 
  57   0.0000       0.442013        12.0278 
  58   0.0000       0.442014        12.0278 
  59   0.0000       0.442015        12.0278 
  60   0.0000       0.492222        13.3940 
  61   0.0000       0.492223        13.3941 
  62   0.0000       0.492223        13.3941 
  63   0.0000       0.511043        13.9062 
  64   0.0000       0.511043        13.9062 
*Only the first 10 virtual orbitals were printed.

                    ********************************
                    * MULLIKEN POPULATION ANALYSIS *
                    ********************************

-----------------------
MULLIKEN ATOMIC CHARGES
-----------------------
   0 Fe:   -0.371957
   1 C :    0.315893
   2 C :    0.316231
   3 C :    0.316199
   4 C :    0.315917
   5 C :    0.317959
   6 C :    0.318171
   7 N :   -0.921354
   8 N :   -0.921389
   9 N :   -0.921386
  10 N :   -0.921354
  11 N :   -0.921484
  12 N :   -0.921445
Sum of atomic charges:   -4.0000000

--------------------------------
MULLIKEN REDUCED ORBITAL CHARGES
--------------------------------
  0 Fes       :     6.972281  s :     6.972281
      pz      :     4.249060  p :    12.747181
      px      :     4.249062
      py      :     4.249059
      dz2     :     0.578673  d :     6.651276
      dxz     :     1.831156
      dyz     :     1.831157
      dx2y2   :     0.579132
      dxy     :     1.831158
      f0      :     0.000361  f :     0.001219
      f+1     :     0.000164
      f-1     :     0.000164
      f+2     :     0.000046
      f-2     :     0.000000
      f+3     :     0.000242
      f-3     :     0.000242

  1 C s       :     3.337094  s :     3.337094
      pz      :     0.699072  p :     2.266388
      px      :     0.868247
      py      :     0.699069
      dz2     :     0.003544  d :     0.070808
      dxz     :     0.030151
      dyz     :     0.000763
      dx2y2   :     0.006199
      dxy     :     0.030151
      f0      :     0.001469  f :     0.009818
      f+1     :     0.000748
      f-1     :     0.000252
      f+2     :     0.002443
      f-2     :     0.000053
      f+3     :     0.001193
      f-3     :     0.003659

  2 C s       :     3.336767  s :     3.336767
      pz      :     0.699072  p :     2.266376
      px      :     0.868238
      py      :     0.699067
      dz2     :     0.003544  d :     0.070809
      dxz     :     0.030151
      dyz     :     0.000763
      dx2y2   :     0.006200
      dxy     :     0.030150
      f0      :     0.001469  f :     0.009818
      f+1     :     0.000748
      f-1     :     0.000252
      f+2     :     0.002443
      f-2     :     0.000053
      f+3     :     0.001193
      f-3     :     0.003659

  3 C s       :     3.337013  s :     3.337013
      pz      :     0.699071  p :     2.266162
      px      :     0.699071
      py      :     0.868019
      dz2     :     0.003544  d :     0.070809
      dxz     :     0.000763
      dyz     :     0.030151
      dx2y2   :     0.006200
      dxy     :     0.030151
      f0      :     0.001469  f :     0.009818
      f+1     :     0.000252
      f-1     :     0.000748
      f+2     :     0.002443
      f-2     :     0.000053
      f+3     :     0.003659
      f-3     :     0.001193

  4 C s       :     3.337187  s :     3.337187
      pz      :     0.699069  p :     2.266270
      px      :     0.699070
      py      :     0.868131
      dz2     :     0.003544  d :     0.070808
      dxz     :     0.000763
      dyz     :     0.030150
      dx2y2   :     0.006200
      dxy     :     0.030150
      f0      :     0.001469  f :     0.009818
      f+1     :     0.000252
      f-1     :     0.000748
      f+2     :     0.002443
      f-2     :     0.000053
      f+3     :     0.003659
      f-3     :     0.001193

  5 C s       :     3.335856  s :     3.335856
      pz      :     0.867415  p :     2.265559
      px      :     0.699072
      py      :     0.699072
      dz2     :     0.007528  d :     0.070808
      dxz     :     0.030151
      dyz     :     0.030151
      dx2y2   :     0.002215
      dxy     :     0.000763
      f0      :     0.001859  f :     0.009818
      f+1     :     0.003903
      f-1     :     0.003903
      f+2     :     0.000082
      f-2     :     0.000053
      f+3     :     0.000009
      f-3     :     0.000009

  6 C s       :     3.335519  s :     3.335519
      pz      :     0.867554  p :     2.265687
      px      :     0.699066
      py      :     0.699067
      dz2     :     0.007527  d :     0.070806
      dxz     :     0.030150
      dyz     :     0.030150
      dx2y2   :     0.002215
      dxy     :     0.000763
      f0      :     0.001859  f :     0.009818
      f+1     :     0.003903
      f-1     :     0.003903
      f+2     :     0.000082
      f-2     :     0.000053
      f+3     :     0.000009
      f-3     :     0.000009

  7 N s       :     3.895893  s :     3.895893
      pz      :     1.306535  p :     3.962957
      px      :     1.349887
      py      :     1.306536
      dz2     :     0.006121  d :     0.057966
      dxz     :     0.016794
      dyz     :     0.000011
      dx2y2   :     0.018247
      dxy     :     0.016794
      f0      :     0.000691  f :     0.004537
      f+1     :     0.000331
      f-1     :     0.000111
      f+2     :     0.001128
      f-2     :    -0.000006
      f+3     :     0.000574
      f-3     :     0.001708

  8 N s       :     3.895904  s :     3.895904
      pz      :     1.306535  p :     3.962974
      px      :     1.349900
      py      :     1.306539
      dz2     :     0.006123  d :     0.057974
      dxz     :     0.016794
      dyz     :     0.000010
      dx2y2   :     0.018252
      dxy     :     0.016794
      f0      :     0.000691  f :     0.004537
      f+1     :     0.000331
      f-1     :     0.000111
      f+2     :     0.001128
      f-2     :    -0.000006
      f+3     :     0.000574
      f-3     :     0.001708

  9 N s       :     3.895894  s :     3.895894
      pz      :     1.306534  p :     3.962983
      px      :     1.306536
      py      :     1.349913
      dz2     :     0.006123  d :     0.057972
      dxz     :     0.000010
      dyz     :     0.016794
      dx2y2   :     0.018251
      dxy     :     0.016794
      f0      :     0.000691  f :     0.004537
      f+1     :     0.000111
      f-1     :     0.000331
      f+2     :     0.001128
      f-2     :    -0.000006
      f+3     :     0.001708
      f-3     :     0.000574

 10 N s       :     3.895880  s :     3.895880
      pz      :     1.306537  p :     3.962972
      px      :     1.306537
      py      :     1.349898
      dz2     :     0.006121  d :     0.057965
      dxz     :     0.000011
      dyz     :     0.016794
      dx2y2   :     0.018246
      dxy     :     0.016794
      f0      :     0.000691  f :     0.004537
      f+1     :     0.000111
      f-1     :     0.000331
      f+2     :     0.001128
      f-2     :    -0.000006
      f+3     :     0.001708
      f-3     :     0.000574

 11 N s       :     3.895924  s :     3.895924
      pz      :     1.349976  p :     3.963043
      px      :     1.306534
      py      :     1.306533
      dz2     :     0.024323  d :     0.057979
      dxz     :     0.016794
      dyz     :     0.016794
      dx2y2   :     0.000058
      dxy     :     0.000010
      f0      :     0.000939  f :     0.004537
      f+1     :     0.001817
      f-1     :     0.001817
      f+2     :    -0.000034
      f-2     :    -0.000006
      f+3     :     0.000002
      f-3     :     0.000002

 12 N s       :     3.895907  s :     3.895907
      pz      :     1.349939  p :     3.963018
      px      :     1.306539
      py      :     1.306539
      dz2     :     0.024325  d :     0.057983
      dxz     :     0.016794
      dyz     :     0.016794
      dx2y2   :     0.000058
      dxy     :     0.000011
      f0      :     0.000939  f :     0.004538
      f+1     :     0.001818
      f-1     :     0.001818
      f+2     :    -0.000034
      f-2     :    -0.000006
      f+3     :     0.000002
      f-3     :     0.000002



                     *******************************
                     * LOEWDIN POPULATION ANALYSIS *
                     *******************************

----------------------
LOEWDIN ATOMIC CHARGES
----------------------
   0 Fe:   -0.497792
   1 C :   -0.003657
   2 C :   -0.003655
   3 C :   -0.003655
   4 C :   -0.003656
   5 C :   -0.003652
   6 C :   -0.003652
   7 N :   -0.580046
   8 N :   -0.580047
   9 N :   -0.580046
  10 N :   -0.580047
  11 N :   -0.580048
  12 N :   -0.580048

-------------------------------
LOEWDIN REDUCED ORBITAL CHARGES
-------------------------------
  0 Fes       :     6.196144  s :     6.196144
      pz      :     4.278657  p :    12.835971
      px      :     4.278657
      py      :     4.278657
      dz2     :     1.016603  d :     7.463050
      dxz     :     1.809947
      dyz     :     1.809947
      dx2y2   :     1.016604
      dxy     :     1.809948
      f0      :     0.000798  f :     0.002627
      f+1     :     0.000348
      f-1     :     0.000348
      f+2     :     0.000078
      f-2     :     0.000000
      f+3     :     0.000528
      f-3     :     0.000528

  1 C s       :     2.939658  s :     2.939658
      pz      :     0.703386  p :     2.635590
      px      :     1.228818
      py      :     0.703386
      dz2     :     0.036094  d :     0.370205
      dxz     :     0.115117
      dyz     :     0.001488
      dx2y2   :     0.102390
      dxy     :     0.115117
      f0      :     0.007061  f :     0.058204
      f+1     :     0.007798
      f-1     :     0.001156
      f+2     :     0.011589
      f-2     :     0.000246
      f+3     :     0.012862
      f-3     :     0.017493

  2 C s       :     2.939657  s :     2.939657
      pz      :     0.703385  p :     2.635589
      px      :     1.228818
      py      :     0.703385
      dz2     :     0.036094  d :     0.370205
      dxz     :     0.115117
      dyz     :     0.001488
      dx2y2   :     0.102390
      dxy     :     0.115117
      f0      :     0.007061  f :     0.058204
      f+1     :     0.007798
      f-1     :     0.001156
      f+2     :     0.011589
      f-2     :     0.000246
      f+3     :     0.012862
      f-3     :     0.017493

  3 C s       :     2.939659  s :     2.939659
      pz      :     0.703386  p :     2.635589
      px      :     0.703386
      py      :     1.228818
      dz2     :     0.036094  d :     0.370204
      dxz     :     0.001488
      dyz     :     0.115116
      dx2y2   :     0.102390
      dxy     :     0.115116
      f0      :     0.007061  f :     0.058204
      f+1     :     0.001156
      f-1     :     0.007798
      f+2     :     0.011589
      f-2     :     0.000246
      f+3     :     0.017493
      f-3     :     0.012862

  4 C s       :     2.939659  s :     2.939659
      pz      :     0.703385  p :     2.635588
      px      :     0.703385
      py      :     1.228818
      dz2     :     0.036094  d :     0.370205
      dxz     :     0.001488
      dyz     :     0.115117
      dx2y2   :     0.102390
      dxy     :     0.115117
      f0      :     0.007061  f :     0.058204
      f+1     :     0.001156
      f-1     :     0.007798
      f+2     :     0.011589
      f-2     :     0.000246
      f+3     :     0.017493
      f-3     :     0.012862

  5 C s       :     2.939657  s :     2.939657
      pz      :     1.228816  p :     2.635587
      px      :     0.703386
      py      :     0.703386
      dz2     :     0.135538  d :     0.370205
      dxz     :     0.115117
      dyz     :     0.115117
      dx2y2   :     0.002946
      dxy     :     0.001488
      f0      :     0.020457  f :     0.058204
      f+1     :     0.018625
      f-1     :     0.018625
      f+2     :     0.000203
      f-2     :     0.000246
      f+3     :     0.000024
      f-3     :     0.000024

  6 C s       :     2.939656  s :     2.939656
      pz      :     1.228816  p :     2.635587
      px      :     0.703385
      py      :     0.703386
      dz2     :     0.135538  d :     0.370204
      dxz     :     0.115117
      dyz     :     0.115117
      dx2y2   :     0.002946
      dxy     :     0.001488
      f0      :     0.020457  f :     0.058204
      f+1     :     0.018625
      f-1     :     0.018625
      f+2     :     0.000203
      f-2     :     0.000246
      f+3     :     0.000024
      f-3     :     0.000024

  7 N s       :     3.361127  s :     3.361127
      pz      :     1.184692  p :     3.936625
      px      :     1.567240
      py      :     1.184692
      dz2     :     0.032262  d :     0.201716
      dxz     :     0.036829
      dyz     :     0.000051
      dx2y2   :     0.095744
      dxy     :     0.036829
      f0      :     0.007678  f :     0.080578
      f+1     :     0.014927
      f-1     :     0.001262
      f+2     :     0.012712
      f-2     :     0.000005
      f+3     :     0.024864
      f-3     :     0.019128

  8 N s       :     3.361127  s :     3.361127
      pz      :     1.184692  p :     3.936625
      px      :     1.567241
      py      :     1.184692
      dz2     :     0.032262  d :     0.201716
      dxz     :     0.036829
      dyz     :     0.000051
      dx2y2   :     0.095745
      dxy     :     0.036829
      f0      :     0.007678  f :     0.080578
      f+1     :     0.014927
      f-1     :     0.001262
      f+2     :     0.012712
      f-2     :     0.000005
      f+3     :     0.024864
      f-3     :     0.019128

  9 N s       :     3.361127  s :     3.361127
      pz      :     1.184692  p :     3.936625
      px      :     1.184692
      py      :     1.567241
      dz2     :     0.032262  d :     0.201716
      dxz     :     0.000051
      dyz     :     0.036829
      dx2y2   :     0.095745
      dxy     :     0.036829
      f0      :     0.007678  f :     0.080578
      f+1     :     0.001262
      f-1     :     0.014927
      f+2     :     0.012712
      f-2     :     0.000005
      f+3     :     0.019128
      f-3     :     0.024864

 10 N s       :     3.361127  s :     3.361127
      pz      :     1.184693  p :     3.936626
      px      :     1.184693
      py      :     1.567241
      dz2     :     0.032262  d :     0.201716
      dxz     :     0.000051
      dyz     :     0.036829
      dx2y2   :     0.095744
      dxy     :     0.036829
      f0      :     0.007678  f :     0.080578
      f+1     :     0.001262
      f-1     :     0.014927
      f+2     :     0.012712
      f-2     :     0.000005
      f+3     :     0.019128
      f-3     :     0.024864

 11 N s       :     3.361128  s :     3.361128
      pz      :     1.567241  p :     3.936626
      px      :     1.184692
      py      :     1.184692
      dz2     :     0.127486  d :     0.201716
      dxz     :     0.036829
      dyz     :     0.036829
      dx2y2   :     0.000520
      dxy     :     0.000051
      f0      :     0.039770  f :     0.080578
      f+1     :     0.020387
      f-1     :     0.020387
      f+2     :     0.000022
      f-2     :     0.000005
      f+3     :     0.000004
      f-3     :     0.000004

 12 N s       :     3.361128  s :     3.361128
      pz      :     1.567241  p :     3.936626
      px      :     1.184693
      py      :     1.184693
      dz2     :     0.127486  d :     0.201716
      dxz     :     0.036829
      dyz     :     0.036829
      dx2y2   :     0.000520
      dxy     :     0.000051
      f0      :     0.039770  f :     0.080578
      f+1     :     0.020387
      f-1     :     0.020387
      f+2     :     0.000022
      f-2     :     0.000005
      f+3     :     0.000004
      f-3     :     0.000004



                      *****************************
                      * MAYER POPULATION ANALYSIS *
                      *****************************

  NA   - Mulliken gross atomic population
  ZA   - Total nuclear charge
  QA   - Mulliken gross atomic charge
  VA   - Mayer's total valence
  BVA  - Mayer's bonded valence
  FA   - Mayer's free valence

  ATOM       NA         ZA         QA         VA         BVA        FA
  0 Fe    26.3720    26.0000    -0.3720     5.6004     5.6004     0.0000
  1 C      5.6841     6.0000     0.3159     3.0994     3.0994     0.0000
  2 C      5.6838     6.0000     0.3162     3.0996     3.0996    -0.0000
  3 C      5.6838     6.0000     0.3162     3.0996     3.0996    -0.0000
  4 C      5.6841     6.0000     0.3159     3.0992     3.0992     0.0000
  5 C      5.6820     6.0000     0.3180     3.0977     3.0977     0.0000
  6 C      5.6818     6.0000     0.3182     3.0978     3.0978     0.0000
  7 N      7.9214     7.0000    -0.9214     2.5654     2.5654     0.0000
  8 N      7.9214     7.0000    -0.9214     2.5656     2.5656     0.0000
  9 N      7.9214     7.0000    -0.9214     2.5654     2.5654     0.0000
 10 N      7.9214     7.0000    -0.9214     2.5653     2.5653    -0.0000
 11 N      7.9215     7.0000    -0.9215     2.5654     2.5654     0.0000
 12 N      7.9214     7.0000    -0.9214     2.5655     2.5655     0.0000

  Mayer bond orders larger than 0.100000
B(  0-Fe,  1-C ) :   0.8400 B(  0-Fe,  2-C ) :   0.8400 B(  0-Fe,  3-C ) :   0.8401 
B(  0-Fe,  4-C ) :   0.8400 B(  0-Fe,  5-C ) :   0.8389 B(  0-Fe,  6-C ) :   0.8389 
B(  1-C ,  7-N ) :   2.4911 B(  2-C ,  8-N ) :   2.4912 B(  3-C ,  9-N ) :   2.4911 
B(  4-C , 10-N ) :   2.4911 B(  5-C , 11-N ) :   2.4911 B(  6-C , 12-N ) :   2.4911 


-------
TIMINGS
-------

Total SCF time: 0 days 0 hours 8 min 50 sec 

Total time                  ....     530.483 sec
Sum of individual times     ....     499.324 sec  ( 94.1%)

SCF preparation             ....       2.214 sec  (  0.4%)
Fock matrix formation       ....     483.920 sec  ( 91.2%)
  Startup                   ....       0.126 sec  (  0.0% of F)
  Split-RI-J                ....      53.174 sec  ( 11.0% of F)
  Chain of spheres X        ....     341.055 sec  ( 70.5% of F)
  XC integration            ....     119.598 sec  ( 24.7% of F)
    XC Preparation          ....       0.000 sec  (  0.0% of XC)
    Basis function eval.    ....      20.473 sec  ( 17.1% of XC)
    Density eval.           ....      59.901 sec  ( 50.1% of XC)
    XC-Functional eval.     ....       0.990 sec  (  0.8% of XC)
    XC-Potential eval.      ....      29.550 sec  ( 24.7% of XC)
Diagonalization             ....       0.000 sec  (  0.0%)
Density matrix formation    ....       1.184 sec  (  0.2%)
Total Energy calculation    ....       0.466 sec  (  0.1%)
Population analysis         ....       0.298 sec  (  0.1%)
Orbital Transformation      ....       1.590 sec  (  0.3%)
Orbital Orthonormalization  ....       0.000 sec  (  0.0%)
DIIS solution               ....       8.567 sec  (  1.6%)
SOSCF solution              ....       1.047 sec  (  0.2%)
Finished LeanSCF after 530.6 sec

Maximum memory used throughout the entire LEANSCF-calculation: 64.0 MB


           ************************************************************
           *        Program running with 4 parallel MPI-processes     *
           *              working on a common directory               *
           ************************************************************

------------------------------------------------------------------------------
                         ORCA PROPERTY INTEGRAL CALCULATIONS
------------------------------------------------------------------------------

GBWName                                   ... nkxas.gbw
Number of atoms                           ...     13
Number of basis functions                 ...    543
Max core memory                           ...   3000 MB

Dipole integrals                          ... YES
Quadrupole integrals                      ...  NO
Linear momentum integrals                 ... YES
Angular momentum integrals                ... YES
Higher moments length integrals           ...  NO
Higher moments velocity integrals         ...  NO
Kinetic energy integrals                  ...  NO
GIAO right hand sides                     ...  NO
GIAO dipole derivative integrals          ...  NO
SOC integrals                             ...  NO
EPR diamagnetic integrals (GIAO)          ...  NO
EPR gauge integrals                       ...  NO
Field gradient integrals                  ...  NO (   0 nuclei)
Spin-dipole/Fermi contact integrals       ...  NO (   0 nuclei)
Contact density integrals                 ...  NO (   0 nuclei)
Nucleus-orbit integrals                   ...  NO (   0 nuclei)
Geometric perturbations                   ...  NO (  13 nuclei)

Choice of electric origin   ... Center of mass
Position of electric origin ... (  0.0000,  0.0000, -0.0000) 
Choice of magnetic origin   ... GIAO
Position of magnetic origin ... (  0.0000,  0.0000,  0.0000) 

Calculating integrals                     ... Electric Dipole (Length)     done (  0.4 sec)
Calculating integrals                     ... Linear Momentum              done (  0.7 sec)
Calculating integrals                     ... Angular Momentum  (ElOri)    done (  0.2 sec)

Property integrals calculated in   1.4 sec

Maximum memory used throughout the entire PROPINT-calculation: 49.2 MB


           ************************************************************
           *        Program running with 4 parallel MPI-processes     *
           *              working on a common directory               *
           ************************************************************
------------------------------------------------------------------------------
                        ORCA TD-DFT/TDA CALCULATION
------------------------------------------------------------------------------

Input orbitals are from        ... nkxas.gbw
CI-vector output               ... nkxas.cis
Solver                         ... FN-2001
Tamm-Dancoff approximation     ... operative
CIS-Integral strategy          ... AO-integrals
Integral handling              ... AO integral Direct
Max. core memory used          ... 3000 MB
Reference state                ... RHF
Generation of triplets         ... off
Follow IRoot                   ... off
Number of operators            ... 1
Orbital ranges used for CIS calculation:
 Operator 0:  Orbitals   5... 10  to  54...506
XAS localization array:
 Operator 0:  Orbitals  -1... -1

-------------------
XC-INTEGRATION GRID
-------------------

General Integration Accuracy     IntAcc      ... 3.467
Radial Grid Type                 RadialGrid  ... OptM3 with GC (2021)
Angular Grid (max. ang.)         AngularGrid ... 3 (Lebedev-194)
Angular grid pruning method      GridPruning ... 4 (adaptive)
Weight generation scheme         WeightScheme... mBecke (2022)
Basis function cutoff            BFCut       ... 1.0000e-10
Integration weight cutoff        WCut        ... 1.0000e-14
Partially contracted basis set               ... off
Rotationally invariant grid construction     ... off
Angular grids for H and He will be reduced by one unit
Diffuse basis detected: some atoms will have their outermost
                        angular grid increased by 1.
Core-polarized basis detected: some atoms will have their core
                               angular grid increased.

Total number of grid points                  ...    35524
Total number of batches                      ...      561
Average number of points per batch           ...       63
Average number of grid points per atom       ...     2733

---------------------
COSX-INTEGRATION GRID
---------------------

General Integration Accuracy     IntAcc      ... 3.067
Radial Grid Type                 RadialGrid  ... OptM3 with GC (2021)
Angular Grid (max. ang.)         AngularGrid ... 2 (Lebedev-110)
Angular grid pruning method      GridPruning ... 4 (adaptive)
Weight generation scheme         WeightScheme... mBecke (2022)
Basis function cutoff            BFCut       ... 1.0000e-10
Integration weight cutoff        WCut        ... 1.0000e-14
Partially contracted basis set               ... on
Rotationally invariant grid construction     ... off
Angular grids for H and He will be reduced by one unit
Diffuse basis detected: some atoms will have their outermost
                        angular grid increased by 1.
Core-polarized basis detected: some atoms will have their core
                               angular grid increased.

Total number of grid points                  ...    17912
Total number of batches                      ...      145
Average number of points per batch           ...      123
Average number of grid points per atom       ...     1378

---------------
TD-DFT XC SETUP
---------------

DFT calculation                         ... on
Name of the grid file                   ... nkxas.grid_cis.tmp
RI-approximation                        ... on
Aux-basis dimension                     ... 2805
Exchange functional (TD-DFT)            ... PBE
   PBE kappa parameter  XKappa (TD-DFT) ...  0.804000
   PBE mue parameter   XMuePBE (TD-DFT) ...  0.219520
Correlation functional (TD-DFT)         ... PBE
   PBE beta parameter CBetaPBE (TD-DFT) ...  0.066725
 LDA part of GGA corr.  LDAOpt (TD-DFT) ... PW91-LDA
Hybrid DFT                              ... on
   Exchange mixing (TD-DFT)             ...  0.250
   GGA exch. scaling (TD-DFT)           ...  0.750
   GGA corr. scaling (TD-DFT)           ...  1.000

Building densities             ... done
Calculating rho(r) on the grid ... done
Building xc-kernel on the grid ... done
                    *** TD-DFT CALCULATION INITIALIZED ***

------------------------
DAVIDSON-DIAGONALIZATION
------------------------

Dimension of the eigenvalue problem            ...   2718
Number of roots to be determined               ...    200
Maximum size of the expansion space            ...   2000
Maximum number of iterations                   ...    100
Convergence tolerance for the residual         ...    1.000e-06
Convergence tolerance for the energies         ...    1.000e-06
Orthogonality tolerance                        ...    1.000e-14
Level Shift                                    ...    0.000e+00
Constructing the preconditioner                ... o.k.
Building the initial guess                     ... o.k.
Number of trial vectors determined             ...    512


                       ****Iteration    0****
   Time for iteration     :  TOTAL=2881.2 TRAFO=3.5 RIJ=358.9 COSX=1363.3 XC=1150.1
   Size of expansion space: 512
   Lowest Energy          :    14.203491737440
   Maximum Energy change  :    14.409991344069 (vector 199)
   Maximum residual norm  :     0.000961316457

                       ****Iteration    1****
   Time for iteration     :  TOTAL=1132.1 TRAFO=2.4 RIJ=113.6 COSX=570.6 XC=444.4
   Size of expansion space: 712
   Lowest Energy          :    14.203308245873
   Maximum Energy change  :     0.001407097241 (vector 62)
   Maximum residual norm  :     0.000001153287

                       ****Iteration    2****
   Time for iteration     :  TOTAL=1082.5 TRAFO=1.2 RIJ=100.2 COSX=543.8 XC=433.6
   Size of expansion space: 912
   Lowest Energy          :    14.203307841896
   Maximum Energy change  :     0.000000873269 (vector 199)

         *** CONVERGENCE OF ENERGIES REACHED ***

Storing the converged CI vectors               ... nkxas.cis1

                 *** DAVIDSON DONE ***

Total time for solving the CIS problem:  5150.214sec

------------------------------------
TD-DFT/TDA EXCITED STATES (SINGLETS)
------------------------------------

the weight of the individual excitations are printed if larger than 1.0e-02

STATE  1:  E=  14.203308 au    386.492 eV  3117265.7 cm**-1 <S**2> =   0.000000 Mult 1
     5a ->  54a  :     0.024157 (c=  0.15542496)
     5a ->  58a  :     0.010035 (c=  0.10017678)
     6a ->  54a  :     0.037826 (c=  0.19448781)
     6a ->  57a  :     0.015356 (c=  0.12391847)
     6a ->  58a  :     0.018300 (c=  0.13527756)
     8a ->  54a  :     0.123496 (c=  0.35141972)
     8a ->  56a  :     0.014163 (c= -0.11900889)
     9a ->  54a  :     0.348662 (c=  0.59047576)
     9a ->  55a  :     0.026241 (c= -0.16199220)
     9a ->  56a  :     0.043952 (c= -0.20964794)
     9a ->  57a  :     0.034261 (c=  0.18509820)
     9a ->  58a  :     0.040602 (c=  0.20149914)
     9a ->  59a  :     0.018408 (c=  0.13567728)
    10a ->  54a  :     0.109276 (c=  0.33056957)
    10a ->  56a  :     0.016417 (c= -0.12812989)
    10a ->  57a  :     0.020753 (c=  0.14405775)
    10a ->  58a  :     0.024789 (c=  0.15744650)

STATE  2:  E=  14.203310 au    386.492 eV  3117266.3 cm**-1 <S**2> =   0.000000 Mult 1
     5a ->  54a  :     0.131421 (c= -0.36252005)
     5a ->  56a  :     0.016197 (c=  0.12726681)
     5a ->  58a  :     0.011495 (c=  0.10721630)
     6a ->  54a  :     0.262425 (c= -0.51227400)
     6a ->  55a  :     0.019758 (c=  0.14056405)
     6a ->  56a  :     0.027613 (c=  0.16617124)
[...]
  0-1A  -> 96-1A   389.471567 3141300.4     3.2   -0.00001  -0.00023  -0.00011  -0.00001
  0-1A  -> 97-1A   389.508257 3141596.3     3.2    0.02864   0.03922   0.18154   2.52889
  0-1A  -> 98-1A   389.508262 3141596.3     3.2   -0.05923  -0.31445  -2.50301   0.18994
  0-1A  -> 99-1A   389.508270 3141596.4     3.2    0.02912   2.52634  -0.33983  -0.02278
  0-1A  -> 100-1A   389.508334 3141596.9     3.2    0.04708  -0.21740  -0.32902   0.00615
  0-1A  -> 101-1A   389.508339 3141596.9     3.2   -0.03968  -0.06817   0.03183  -0.22349
  0-1A  -> 102-1A   389.508340 3141597.0     3.2   -0.00719  -0.02579  -0.07974  -0.22963
  0-1A  -> 103-1A   389.508501 3141598.3     3.2    0.01754   0.00307  -0.01070   0.03339
  0-1A  -> 104-1A   389.508504 3141598.3     3.2    0.00707   0.05839  -0.11175  -0.01259
  0-1A  -> 105-1A   389.508515 3141598.4     3.2   -0.06817   0.05307  -0.00388   0.02218
  0-1A  -> 106-1A   389.508523 3141598.4     3.2   -0.01271  -0.02524  -0.01888   0.08322
  0-1A  -> 107-1A   389.508525 3141598.4     3.2    0.11320   0.02329  -0.03668   0.00067
  0-1A  -> 108-1A   389.508528 3141598.5     3.2   -0.05569  -0.01411  -0.00017   0.01379
  0-1A  -> 109-1A   389.886823 3144649.6     3.2    0.12717   0.11792   0.35391  -0.62216
  0-1A  -> 110-1A   389.886826 3144649.7     3.2   -0.03017  -0.11000   0.59342   0.36584
  0-1A  -> 111-1A   389.886829 3144649.7     3.2   -0.22716  -0.64133   0.02147  -0.27209
  0-1A  -> 112-1A   389.886835 3144649.7     3.2   -0.06819   0.23477   0.15210  -0.00379
  0-1A  -> 113-1A   389.886839 3144649.8     3.2    0.22972   0.31500   0.00594  -0.22210
  0-1A  -> 114-1A   389.886841 3144649.8     3.2    0.09826   0.04392   0.29480   0.03307
  0-1A  -> 115-1A   389.886854 3144649.9     3.2   -0.22736  -0.06803   0.05841   0.01824
  0-1A  -> 116-1A   389.886860 3144649.9     3.2   -0.11093   0.17155   0.06382   0.05151
  0-1A  -> 117-1A   389.886860 3144649.9     3.2    0.19884  -0.10435   0.17608  -0.00711
  0-1A  -> 118-1A   389.886882 3144650.1     3.2    0.01958  -0.00489   0.02656  -0.03572
  0-1A  -> 119-1A   389.886893 3144650.2     3.2    0.01441   0.08684   0.07274  -0.00409
  0-1A  -> 120-1A   389.886895 3144650.2     3.2   -0.02418   0.06080  -0.13164   0.00591
  0-1A  -> 121-1A   389.931399 3145009.2     3.2   -0.00000  -0.00019  -0.00001   0.00001
  0-1A  -> 122-1A   389.931407 3145009.2     3.2    0.00000   0.00001   0.00014   0.00000
  0-1A  -> 123-1A   389.931421 3145009.3     3.2    0.00000  -0.00000  -0.00000  -0.00000
  0-1A  -> 124-1A   389.931433 3145009.4     3.2   -0.00000   0.00032   0.00001  -0.00002
  0-1A  -> 125-1A   389.931435 3145009.5     3.2   -0.00000   0.00001   0.00035  -0.00001
  0-1A  -> 126-1A   389.931441 3145009.5     3.2   -0.00000  -0.00001  -0.00001   0.00037
  0-1A  -> 127-1A   390.246114 3147547.5     3.2    0.00001  -0.00000  -0.00001   0.00001
  0-1A  -> 128-1A   390.246125 3147547.6     3.2   -0.00004   0.00000   0.00001   0.00001
  0-1A  -> 129-1A   390.246129 3147547.6     3.2    0.00000  -0.00002   0.00001  -0.00000
  0-1A  -> 130-1A   390.246136 3147547.7     3.2    0.00006   0.00001   0.00000  -0.00001
  0-1A  -> 131-1A   390.246141 3147547.7     3.2   -0.00002  -0.00001  -0.00000   0.00005
  0-1A  -> 132-1A   390.246226 3147548.4     3.2   -0.00000   0.00000  -0.00001  -0.00001
  0-1A  -> 133-1A   390.408296 3148855.6     3.2    0.00000   0.00000  -0.00000  -0.00002
  0-1A  -> 134-1A   390.408325 3148855.8     3.2    0.00000  -0.00000  -0.00000   0.00000
  0-1A  -> 135-1A   390.408329 3148855.9     3.2   -0.00000  -0.00000  -0.00000   0.00001
  0-1A  -> 136-1A   390.408344 3148856.0     3.2   -0.00000  -0.00001  -0.00003   0.00000
  0-1A  -> 137-1A   390.408351 3148856.0     3.2   -0.00000  -0.00000  -0.00000  -0.00001
  0-1A  -> 138-1A   390.408372 3148856.2     3.2    0.00000   0.00000   0.00001  -0.00000
  0-1A  -> 139-1A   390.702040 3151224.8     3.2   -0.00000   0.00000  -0.00005  -0.00000
  0-1A  -> 140-1A   390.702134 3151225.6     3.2   -0.00002   0.00014   0.00003  -0.00004
  0-1A  -> 141-1A   390.702159 3151225.8     3.2   -0.00008   0.00000  -0.00001  -0.00004
  0-1A  -> 142-1A   390.702161 3151225.8     3.2    0.00014  -0.00002  -0.00002  -0.00001
  0-1A  -> 143-1A   390.702171 3151225.9     3.2   -0.00003  -0.00000   0.00002   0.00006
  0-1A  -> 144-1A   390.702216 3151226.2     3.2   -0.00001   0.00000   0.00000   0.00005
  0-1A  -> 145-1A   390.963725 3153335.4     3.2    0.00000  -0.00000  -0.00001   0.00000
  0-1A  -> 146-1A   390.963736 3153335.5     3.2   -0.00000   0.00001   0.00000  -0.00001
  0-1A  -> 147-1A   390.963752 3153335.6     3.2    0.00000  -0.00001   0.00000  -0.00000
  0-1A  -> 148-1A   390.963759 3153335.7     3.2   -0.00000   0.00000  -0.00000   0.00000
  0-1A  -> 149-1A   390.963765 3153335.8     3.2   -0.00000   0.00000  -0.00000  -0.00000
  0-1A  -> 150-1A   390.963772 3153335.8     3.2   -0.00000   0.00000  -0.00000  -0.00000
  0-1A  -> 151-1A   391.018535 3153777.5     3.2    0.00325  -0.00334  -0.08121   0.10019
  0-1A  -> 152-1A   391.018558 3153777.7     3.2   -0.00413  -0.05362  -0.00586  -0.10725
  0-1A  -> 153-1A   391.018568 3153777.8     3.2   -0.01157   0.00208  -0.06504   0.10028
  0-1A  -> 154-1A   391.018573 3153777.8     3.2    0.03950  -0.07569   0.13050   0.02937
  0-1A  -> 155-1A   391.018580 3153777.9     3.2   -0.05042   0.08232  -0.07512   0.11227
  0-1A  -> 156-1A   391.018594 3153778.0     3.2    0.01932  -0.01421  -0.01207  -0.04494
  0-1A  -> 157-1A   391.018612 3153778.1     3.2    0.00441  -0.09299   0.03828   0.06289
  0-1A  -> 158-1A   391.018618 3153778.2     3.2    0.00067  -0.14705  -0.07703   0.02164
  0-1A  -> 159-1A   391.018626 3153778.2     3.2   -0.00796  -0.11455  -0.07679  -0.01006
  0-1A  -> 160-1A   391.018635 3153778.3     3.2    0.07168   0.02997   0.09865   0.05808
  0-1A  -> 161-1A   391.018642 3153778.4     3.2   -0.07511   0.08609  -0.05765  -0.09050
  0-1A  -> 162-1A   391.018669 3153778.6     3.2    0.01036  -0.01011  -0.08590  -0.06520
  0-1A  -> 163-1A   391.588427 3158374.0     3.2    0.00001   0.00026   0.00050  -0.00000
  0-1A  -> 164-1A   391.588455 3158374.2     3.2   -0.00001  -0.00012  -0.00026  -0.00000
  0-1A  -> 165-1A   391.588839 3158377.3     3.2    0.00002  -0.00027   0.00000   0.00065
  0-1A  -> 166-1A   391.588872 3158377.6     3.2   -0.00004  -0.00022  -0.00001   0.00035
  0-1A  -> 167-1A   391.588997 3158378.6     3.2    0.00004  -0.00001  -0.00004   0.00062
  0-1A  -> 168-1A   391.589045 3158379.0     3.2   -0.00002  -0.00001   0.00009  -0.00035
  0-1A  -> 169-1A   391.649628 3158867.6     3.2   -0.26274  -0.28030   0.87224  -1.17598
  0-1A  -> 170-1A   391.649657 3158867.8     3.2    1.94380  -0.49815  -0.30865  -0.44780
  0-1A  -> 171-1A   391.649664 3158867.9     3.2   -2.36236  -0.52833   1.08662   0.75852
  0-1A  -> 172-1A   391.649671 3158868.0     3.2   -0.10425  -1.27343  -0.44340   0.01784
  0-1A  -> 173-1A   391.649677 3158868.0     3.2    1.54062   0.26497   0.03127  -0.37530
  0-1A  -> 174-1A   391.649702 3158868.2     3.2   -0.88341   0.14856   0.14884   0.09262
  0-1A  -> 175-1A   391.649720 3158868.4     3.2   -1.20216  -0.29822  -0.25874   0.10638
  0-1A  -> 176-1A   391.649739 3158868.5     3.2    1.16930  -0.06463   0.07246   0.16829
  0-1A  -> 177-1A   391.649744 3158868.5     3.2    2.64445  -0.07819  -0.13810  -0.13605
  0-1A  -> 178-1A   391.649750 3158868.6     3.2   -2.68350   0.04859  -0.19832  -0.15890
  0-1A  -> 179-1A   391.649764 3158868.7     3.2    0.33902   0.03130   0.09035   0.07860
  0-1A  -> 180-1A   391.649780 3158868.8     3.2   -0.13878  -0.03949   0.16890   0.16042
  0-1A  -> 181-1A   391.666574 3159004.3     3.2   -0.00000  -0.00000   0.00259   0.00116
  0-1A  -> 182-1A   391.666609 3159004.6     3.2    0.00000  -0.00000  -0.00146  -0.00064
  0-1A  -> 183-1A   391.666811 3159006.2     3.2    0.00000   0.00137  -0.00000   0.00424
  0-1A  -> 184-1A   391.666840 3159006.4     3.2   -0.00000  -0.00063  -0.00000  -0.00192
  0-1A  -> 185-1A   391.667471 3159011.5     3.2    0.00000   0.00311   0.00459   0.00000
  0-1A  -> 186-1A   391.667490 3159011.7     3.2   -0.00000   0.00015   0.00013  -0.00000
  0-1A  -> 187-1A   392.047400 3162075.9     3.2   -0.00000   0.00012   0.00008  -0.00000
  0-1A  -> 188-1A   392.047443 3162076.2     3.2    0.00000   0.00000  -0.00006   0.00002
  0-1A  -> 189-1A   392.047485 3162076.5     3.2   -0.00000   0.00008  -0.00000  -0.00000
  0-1A  -> 190-1A   392.047497 3162076.6     3.2    0.00000  -0.00009   0.00001  -0.00000
  0-1A  -> 191-1A   392.047566 3162077.2     3.2   -0.00000  -0.00012   0.00000   0.00005
  0-1A  -> 192-1A   392.047608 3162077.5     3.2    0.00000  -0.00000  -0.00002  -0.00007
  0-1A  -> 193-1A   392.093139 3162444.8     3.2   -0.00000   0.00000   0.00001  -0.00001
  0-1A  -> 194-1A   392.093156 3162444.9     3.2   -0.00000   0.00000  -0.00000  -0.00001
  0-1A  -> 195-1A   392.093174 3162445.0     3.2    0.00000   0.00000  -0.00002  -0.00001
  0-1A  -> 196-1A   392.093185 3162445.1     3.2    0.00000  -0.00001   0.00000  -0.00003
  0-1A  -> 197-1A   392.093186 3162445.2     3.2    0.00000  -0.00001  -0.00001  -0.00000
  0-1A  -> 198-1A   392.093206 3162445.3     3.2   -0.00000  -0.00003  -0.00005  -0.00000
  0-1A  -> 199-1A   392.115420 3162624.5     3.2   -0.00018  -0.00095  -0.00814   0.00977
  0-1A  -> 200-1A   392.115451 3162624.7     3.2    0.00015   0.00363   0.00382  -0.00319

Total run time:     5192.463 sec

           *** ORCA-CIS/TD-DFT FINISHED WITHOUT ERROR ***
-----------------------
CIS/TD-DFT TOTAL ENERGY
-----------------------

    E(SCF)  =  -1819.762607492 Eh
    DE(CIS) =     14.203307842 Eh (Root  1)
    ----------------------------- ---------
    E(tot)  =  -1805.559299650 Eh


Maximum memory used throughout the entire CIS-calculation: 3138.6 MB
=> NOW LEAVING ORCA_CIS

-------------------------   --------------------
FINAL SINGLE POINT ENERGY     -1805.559299649836
-------------------------   --------------------



           ************************************************************
           *        Program running with 4 parallel MPI-processes     *
           *              working on a common directory               *
           ************************************************************

------------------------------------------------------------------------------
                              ORCA PROPERTY CALCULATIONS
------------------------------------------------------------------------------

GBWName                                 ... nkxas.gbw
Number of atoms                         ...     13
Number of basis functions               ...    543
Max core memory                         ...   3000 MB

Electric properties:
Dipole moment                           ... YES
Quadrupole moment                       ...  NO
Static polarizability (Dipole/Dipole)   ...  NO
Static polarizability (Dipole/Quad.)    ...  NO
Static polarizability (Quad./Quad.)     ...  NO
Static polarizability (Velocity)        ...  NO
Static hyperpolarizability              ...  NO

Atomic electric properties:
Dipole moment                           ...  NO
Quadrupole moment                       ...  NO
Static polarizability                   ...  NO

Choice of electric origin               ... Center of mass
Position of electric origin             ...     0.000000     0.000000    -0.000000

General magnetic properties:
Magnetizability                         ...  NO

EPR properties:
g-Tensor (aka g-matrix)                 ...  NO
Zero-Field splitting spin-orbit         ...  NO
Zero-field splitting spin-spin          ...  NO
Hyperfine couplings                     ...  NO (   0 nuclei)
Quadrupole couplings                    ...  NO (   0 nuclei)
Contact density                         ...  NO (   0 nuclei)

NMR properties:
Chemical shifts                         ...  NO (   0 nuclei)
Spin-rotation constants                 ...  NO (   0 nuclei)
Spin-spin couplings                     ...  NO (   0 nuclei,    0 pairs)

Choice of magnetic origin               ... GIAO
Position of magnetic origin             ...     0.000000     0.000000     0.000000

Properties with geometric perturbations:
SCF Hessian                             ...  NO
IR spectrum                             ...  NO
VCD spectrum                            ...  NO
X-ray spectroscopy properties:
SCF XES/XAS/RIXS spectra                ...  NO

SCF SOC stabilization energy            ...  NO
Diagonal Born-Oppenheimer correction    ...  NO

-------------
DIPOLE MOMENT
-------------

Method             : SCF
Type of density    : Electron Density
Multiplicity       :   1
Irrep              :   0
Energy             : -1819.7626074917318419 Eh
Basis              : AO
                                X                 Y                 Z
Electronic contribution:      0.000010188       0.000010059       0.000002757
Nuclear contribution   :     -0.000003845      -0.000002859      -0.000000116
                        -----------------------------------------
Total Dipole Moment    :      0.000006343       0.000007200       0.000002642
                        -----------------------------------------
Magnitude (a.u.)       :      0.000009953
Magnitude (Debye)      :      0.000025298



--------------------
Rotational spectrum 
--------------------
 
Rotational constants in cm-1:             0.022408             0.022408             0.022408 
Rotational constants in MHz :           671.763178           671.762443           671.760492 

Dipole components along the rotational axes: 
x,y,z [a.u.] :    -0.000001     0.000002     0.000010 
x,y,z [Debye]:    -0.000004     0.000005     0.000024 

 

Dipole moment calculation done in   0.1 sec 

Maximum memory used throughout the entire PROP-calculation: 42.4 MB

--------------------------------
SUGGESTED CITATIONS FOR THIS RUN
--------------------------------

Below you find a list of papers that are relevant to this ORCA run
We neither can nor want to force you to cite these papers, but we appreciate if you do
You receive ORCA, which is the product of decades of hard work by many enthusiastic individuals, for free
The only thing we kindly ask in return is that you cite our papers,
We deeply appreciate it, if you show your appreciation for ORCA by not just citing the generic ORCA reference.

Please note that relegating all ORCA citations to the supporting information does *not* help us.
SI sections are not indexed - citations you put there will not count into any citation statistics
But we need these citations in order to attract the funding resources that allow us to do what we are doing

Therefore, if you are a happy ORCA user, please consider citing a few of the papers listed below in the main body of your paper

In addition to the list printed below, the program has created the file nkxas.bibtex that contains the list in bibtex format
You can import this file easily into all common literature databanks and citation aid programs

It goes without saying that in many instances, there are alternative algorithms to achieve similar
results as the ones you have gotten from ORCA. It is, of course, also the case that in some instances
ORCA just re-implements algorithms worked out by others. We are fully aware of that and we are also
fully appreciative of our colleagues work. Hence this citation list should not be read as indicating
that the listed papers, which are focused on our own work, are the only ones worth citing. It simply
meant to make it easier for users to cite ORCA specific papers. It is not a substitute for doing your
own literature research and citing the relevant literature in a scientifically appropriate manner.

List of essential papers. We consider these as the minimum necessary citations

  1. Neese, F.
     Software update: the ORCA program system, version 6.0
     WIRES Comput. Molec. Sci. 2025 15(1), e70019
     doi.org/10.1002/wcms.70019

List of papers to cite with high priority. The work reported in these papers was absolutely
necessary for this run to complete.
Our perspective: the developers of density functionals and basis sets usually get cited in chemistry papers
Good! But without the algorithms to do something with them, the functionals or basis sets would not do anything.
Hence, in our opinion, the algorithm design and method developments papers are equally worthy of getting cited

  1. Neese, F.; Olbrich, G.
     Efficient use of the resolution of the identity approximation in time-dependent density functional calculations with hybrid density functionals
     Chem. Phys. Lett. 2002 362 , 170-178
     doi.org/10.1016/s0009-2614(02)01053-9
  2. Neese, F.
     An improvement of the resolution of the identity approximation for the formation of the Coulomb matrix
     J. Comp. Chem. 2003 24(14), 1740-1747
     doi.org/10.1002/jcc.10318
  3. Neese, F.; Wennmohs, F.; Hansen, A.; Becker, U.
     Efficient, approximate and parallel Hartree-Fock and hybrid DFT calculations. A 'chain-of-spheres' algorithm for the Hartree-Fock exchange
     Chem. Phys. 2009 356(1-3), 98-109
     doi.org/10.1016/j.chemphys.2008.10.036
  4. Stoychev, G.L.; Auer, A.A.; Neese, F.
     Automatic Generation of Auxiliary Basis Sets
     J. Theo. Comp. Chem. 2017 13 , 554-562
     doi.org/10.1021/acs.jctc.6b01041
  5. Helmich-Paris, B.; de Souza, B.; Neese, F.; Izsák, R.
     An improved chain of spheres for exchange algorithm
     J. Chem. Phys. 2021 155(10), 104109
     doi.org/10.1063/5.0058766
  6. Neese, F.
     The SHARK Integral Generation and Digestion System
     J. Comp. Chem. 2022 44(3), 381
     doi.org/10.1002/jcc.26942

List of suggested additional citations. These are papers that are important in the 'surrounding' of 
of this run, or papers that preceded the highly important papers. If you like your results we are grateful for a citation.

  1. Izsak, R.; Neese, F.
     An overlap fitted chain of spheres exchange method
     J. Chem. Phys. 2011 135 , 144105
     doi.org/10.1063/1.3646921
  2. Izsak, R.; Hansen, A.; Neese, F.
     The resolution of identity and chain of spheres approximations for the LPNO-CCSD singles Fock term
     Molec. Phys. 2012 110 , 2413-2417
     doi.org/10.1080/00268976.2012.687466
  3. Neese, F.
     The ORCA program system
     WIRES Comput. Molec. Sci. 2012 2(1), 73-78
     doi.org/10.1002/wcms.81
  4. Izsak, R.; Neese, F.; Klopper, W.
     Robust fitting techniques in the chain of spheres approximation to the Fock exchange: The role of the complementary space
     J. Chem. Phys. 2013 139 , 
     doi.org/10.1063/1.4819264
  5. Neese, F.
     Software update: the ORCA program system, version 4.0
     WIRES Comput. Molec. Sci. 2018 8(1), 1-6
     doi.org/10.1002/wcms.1327
  6. Neese, F.; Wennmohs, F.; Becker, U.; Riplinger, C.
     The ORCA quantum chemistry program package
     J. Chem. Phys. 2020 152(22), 224108
     doi.org/10.1063/5.0004608
  7. Neese, F.
     Software update: The ORCA program system—Version 5.0
     WIRES Comput. Molec. Sci. 2022 12(1), e1606
     doi.org/10.1002/wcms.1606

List of optional additional citations

  1. Neese, F.
     Approximate second-order SCF convergence for spin unrestricted wavefunctions
     Chem. Phys. Lett. 2000 325(1-3), 93-98
     doi.org/10.1016/s0009-2614(00)00662-x

Timings for individual modules:

Sum of individual times          ...     5785.035 sec (=  96.417 min)
Startup calculation              ...       51.830 sec (=   0.864 min)   0.9 %
SCF iterations                   ...      535.328 sec (=   8.922 min)   9.3 %
Property integrals               ...        3.506 sec (=   0.058 min)   0.1 %
Property calculations            ...        1.270 sec (=   0.021 min)   0.0 %
CIS module                       ...     5193.101 sec (=  86.552 min)  89.8 %
                             ****ORCA TERMINATED NORMALLY****
TOTAL RUN TIME: 0 days 1 hours 36 minutes 26 seconds 625 msec
