
                                 *****************
                                 * O   R   C   A *
                                 *****************

                                            #,                                       
                                            ###                                      
                                            ####                                     
                                            #####                                    
                                            ######                                   
                                           ########,                                 
                                     ,,################,,,,,                         
                               ,,#################################,,                 
                          ,,##########################################,,             
                       ,#########################################, ''#####,          
                    ,#############################################,,   '####,        
                  ,##################################################,,,,####,       
                ,###########''''           ''''###############################       
              ,#####''   ,,,,##########,,,,          '''####'''          '####       
            ,##' ,,,,###########################,,,                        '##       
           ' ,,###''''                  '''############,,,                           
         ,,##''                                '''############,,,,        ,,,,,,###''
      ,#''                                            '''#######################'''  
     '                                                          ''''####''''         
             ,#######,   #######,   ,#######,      ##                                
            ,#'     '#,  ##    ##  ,#'     '#,    #''#        ,####,    ,#,          
            ##       ##  ##   ,#'  ##            #'  '#       #'       ,# #          
            ##       ##  #######   ##           ,######,      #####,      #          
            '#,     ,#'  ##    ##  '#,     ,#' ,#      #,     #,   #      #          
             '#######'   ##     ##  '#######'  #'      '#     '####' #    #          



                #########################################################
                #                        -***-                          #
                #          Department of theory and spectroscopy        #
                #                                                       #
                #                      Frank Neese                      #
                #                                                       #
                #     Directorship, Architecture, Infrastructure        #
                #                    SHARK, DRIVERS                     #
                #        Core code/Algorithms in most modules           #
                #                                                       #
                #        Max Planck Institute fuer Kohlenforschung      #
                #                Kaiser Wilhelm Platz 1                 #
                #                 D-45470 Muelheim/Ruhr                 #
                #                      Germany                          #
                #                                                       #
                #                  All rights reserved                  #
                #                        -***-                          #
                #########################################################


                         Program Version 6.1.1  -  RELEASE   -
                                (GIT: $487d211c$)
                          ($2025-11-21 10:33:24 +0100$)


 With contributions from (in alphabetic order):
[Max-Planck-Institut fuer Kohlenforschung]                               
  Daniel Aravena         : Magnetic Suceptibility                        
  Michael Atanasov       : Ab Initio Ligand Field Theory (pilot matlab implementation)
  Alexander A. Auer      : GIAO ZORA, VPT2 properties, NMR spectrum      
  Ute Becker             : All parallelization in ORCA, NUMFREQ, NUMCALC 
  Giovanni Bistoni       : ED, misc. LED, open-shell LED, HFLD           
  Dmytro Bykov           : pre 5.0 version of the SCF Hessian            
  Marcos Casanova-Páez   : Triplet and SCS-CIS(D). UHF-(DLPNO)-IP/EA/STEOM-CCSD. UHF-CVS-IP/STEOM-CCSD   
  Vijay G. Chilkuri      : MRCI spin determinant printing, contributions to CSF-ICE 
  Pauline Colinet        : FMM embedding                                 
  Dipayan Datta          : RHF DLPNO-CCSD density                        
  Achintya Kumar Dutta   : EOM-CC, STEOM-CC                              
  Nicolas Foglia         : Exact transition moments, OPA infrastructure, MCD improvements    
  Dmitry Ganyushin       : Spin-Orbit,Spin-Spin,Magnetic field MRCI      
  Miquel Garcia-Rates    : C-PCM and meta-GGA Hessian, CCSD/C-PCM, Gaussian charge scheme 
  Tiago L. C. Gouveia    : GS-ROHF, GS-ROCIS                             
  Yang Guo               : DLPNO-NEVPT2, F12-NEVPT2, CIM, IAO-localization        
  Andreas Hansen         : Spin unrestricted coupled pair/coupled cluster methods 
  Ingolf Harden          : AUTO-CI MPn and infrastructure                
  Benjamin Helmich-Paris : MC-RPA, TRAH-(SCF,CASSCF), AVAS, COSX integrals, SCF dyn. polar., MC-PDFT, srDFT 
  Lee Huntington         : MR-EOM, pCC                                   
  Robert Izsak           : Overlap fitted RIJCOSX, COSX-SCS-MP3, EOM     
  Riya Kayal             : Wick's Theorem for AUTO-CI, AUTO-CI UHF-CCSDT 
  Emily Kempfer          : AUTO-CI RHF CISDT and CCSDT, approximate NEVPT4
  Christian Kollmar      : KDIIS, OOCD, Brueckner-CCSD(T), CCSD density, CASPT2, CASPT2-K, improved NEVPT2 
  Axel Koslowski         : Symmetry handling                             
  Simone Kossmann        : meta-GGA functionals, TD-DFT gradient, OOMP2, (MP2 Hessian; deprecated post 5.0) 
  Lucas Lang             : DCDCAS, Hyperfine gauge corrections, ICE-SOC+SSC
  Marvin Lechner         : AUTO-CI (C++ implementation), FIC-MRCC        
  Spencer Leger          : CASSCF response                               
  Dagmar Lenk            : GEPOL surface, SMD, ORCA-2-JSON               
  Dimitrios Liakos       : Extrapolation schemes; Compound Job, Property file
  Dimitrios Manganas     : Further ROCIS development; embedding schemes. LFT, Crystal Embedding 
  Dimitrios Pantazis     : SARC Basis sets                               
  Anastasios Papadopoulos: AUTO-CI, single reference methods and gradients 
  Taras Petrenko         : pre 6.0 DFT Hessian and TD-DFT gradient,  ECA, NRVS 
  Petra Pikulova         : Analytic Raman intensities                    
  Peter Pinski           : DLPNO-MP2, DLPNO-MP2 Gradient                 
  Shashank Vittal Rao    : ES-AILFT, MagRelax                            
  Christoph Reimann      : Effective Core Potentials                     
  Marius Retegan         : Local ZFS, SOC                                
  Christoph Riplinger    : Optimizer, TS searches, QM/MM, DLPNO-CCSD(T), (RO)-DLPNO pert. Triples 
  Michael Roemelt        : Original ROCIS implementation, recursive CI coupling coefficients
  Masaaki Saitow         : Open-shell DLPNO-CCSD energy and density      
  Barbara Sandhoefer     : DKH picture change effects                    
  Yorick L. A. Schmerwitz: GMF and freeze-and-release deltaSCF, NEB S-IDPP initial path                    
  Kantharuban Sivalingam : CASSCF convergence/infrastructure, NEVPT2, NEVPT3, NEVPT4(SD), FIC-MRCI and CEPA variants
  Bernardo de Souza      : ESD, SOC TD-DFT                               
  Georgi L. Stoychev     : AutoAux, RI-MP2 NMR, DLPNO-MP2 response, X2C  
  Van Anh Tran           : RI-MP2 g-tensors                              
  Willem Van den Heuvel  : Paramagnetic NMR                              
  Zikuan Wang            : NOTCH, Electric field optimization            
  Frank Wennmohs         : Technical directorship and infrastructure     
  Hang Xu                : AUTO-CI-Response properties                   
                                                                         
[FACCTs GmbH]                                                            
  Markus Bursch, Nicolas Foglia, Miquel Garcia-Rates, Ingolf Harden, Hagen Neugebauer, Anastasios Papadopoulos, 
  Christoph Riplinger, Bernardo de Souza, Georgi L. Stoychev                                                    
                                                                 
  APM, various basis sets, CI-OPT, improved COSX, DLPNO-Multilevel,           
  DOCKER, DRACO, updates on ESD, Fragmentator, GOAT, IRC, LR-CPCM, L-BFGS, MBIS, meta-GGA TD-DFT gradient, ML-optimized integration grids, 
  MM, NACMEs, nearIR, NEB, NEB-TS, NL-DFT gradient (VV10), 2- and 3-layer-ONIOM, interface openCOSMO-RS, QMMM,   
  Crystal-QMMM, RESP, rigid body optimization, SF, symmetry and pop. for TD-DFT, various functionals, SOLVATOR                                   
                                                                         
[Other institutions]                                                     
  V. Asgeirsson          : NEB                                           
  Christoph Bannwarth    : sTDA-DFT, sTD-DFT, PBEh-3c, B97-3c, D3        
  Giovanni Bistoni       : ETS/NOCV, ADLD/ADEX, COVALED                  
  Martin Brehm           : Molecular dynamics                            
  Ronald Cardenas        : ETS/NOCV                                      
  Martina Colucci        : COVALED                                       
  Sebastian Ehlert       : rSCAN, r2SCAN, r2SCAN-3c, D4, dhf basis sets  
  Marvin Friede          : D4 for Fr, Ra, Ac-Lr                          
  Lars Goerigk           : TD-DFT with DH, B97 family of functionals     
  Stefan Grimme          : VdW corrections, initial TS optimization, DFT functionals, gCP, sTDA/sTD-DF 
  Waldemar Hujo          : DFT-NL                                        
  H. Jonsson             : NEB                                           
  Holger Kruse           : gCP                                           
  Marcel Mueller         : wB97X-3c, vDZP basis set                      
  Hagen Neugebauer       : wr2SCAN, Native XTB                           
  Gianluca Regni         : ADLD/ADEX                                     
  Tobias Risthaus        : pre 6.0 range-separated hybrid DFT and stability analysis
  Lukas Wittmann         : regularized MP2, r2SCAN double-hybrids, wr2SCAN        
                                                                         
We gratefully acknowledge several colleagues who have allowed us to      
interface, adapt or use parts of their codes:                            
  Ed Valeev, F. Pavosevic, A. Kumar             : LibInt (2-el integral package), F12 methods 
  Garnet Chan, S. Sharma, J. Yang, R. Olivares  : DMRG                   
  Ulf Ekstrom                                   : XCFun DFT Library      
  Mihaly Kallay                                 : mrcc  (arbitrary order and MRCC methods)
  Frank Weinhold                                : gennbo (NPA and NBO analysis)           
  Simon Mueller                                 : openCOSMO-RS                            
  Christopher J. Cramer and Donald G. Truhlar   : smd solvation model                     
  S Lehtola, MJT Oliveira, MAL Marques          : LibXC Library                           
  Liviu Ungur et al                             : ANISO software                          


 Your calculation uses the libint2 library for the computation of 2-el integrals
 For citations please refer to: http://libint.valeyev.net

 Your ORCA version has been built with support for libXC version: 7.0.0
 For citations please refer to: https://libxc.gitlab.io

 This ORCA versions uses:
   CBLAS   interface :  Fast vector & matrix operations
   LAPACKE interface :  Fast linear algebra routines
   SCALAPACK package :  Parallel linear algebra routines
   Shared memory     :  Shared parallel matrices
   BLAS/LAPACK       :  OpenBLAS 0.3.29  USE64BITINT DYNAMIC_ARCH NO_AFFINITY Haswell SINGLE_THREADED
        Core in use  :  Haswell
   Copyright (c) 2011-2014, The OpenBLAS Project


  ***********************************
  * Starting time: Sat Jul  4 18:05:06 2026
  * Host name:     steezy
  * Process ID:    1141264
  * Working dir.:  /home/jannes/chlorophyll-ladder/006-core-ladder/bacteriochlorin/03_tddft_ch2cl2/tpss
  ***********************************

NOTE: MaxCore=3000 MB was set to SCF,MP2,MDCI,CIPSI,MRCI,RASCI and CIS
      => If you want to overwrite this, your respective input block should be placed after the MaxCore statement


***************************************
The coordinates will be read from file: /home/jannes/chlorophyll-ladder/006-core-ladder/bacteriochlorin/01_opt/bacteriochlorin_opt_b3lypd4_tzvp.xyz
***************************************


================================================================================

----- Orbital basis set information -----
Your calculation utilizes the basis: def2-TZVP
   F. Weigend and R. Ahlrichs, Phys. Chem. Chem. Phys. 7, 3297 (2005).

----- AuxJ basis set information -----
Your calculation utilizes the auxiliary basis: def2/J
   H-Rn: F. Weigend, Phys. Chem. Chem. Phys. 8, 1057 (2006).
   Fr-Lr: K. Eichkorn, F. Weigend, O. Treutler, R. Ahlrichs; Theor. Chem. Acc. 97, 119 (1997).

================================================================================
                                        WARNINGS
                       Please study these warnings very carefully!
================================================================================

WARNING: Old DensityContainer found on disk!
         Will remove this file - 
         If you want to keep old densities, please start your calculation with a different basename. 



WARNING: Found flag for RIJCOSX approximation but no HF exchange needed!
  ===> : RIJCOSX  will be disabled and Split-RI-J is turned on

WARNING: CIS/ROCIS methods need fully converged wavefunctions
  ===> : Setting SCFConvForced true
         You can overwrite this default with %scf ConvForced false 


================================================================================
                                       INPUT FILE
================================================================================
NAME = tddft.inp
|  1> %pal nprocs 4 end
|  2> %maxcore 3000
|  3> ! TPSS def2-TZVP def2/J RIJCOSX DefGrid3 TightSCF CPCM(CH2Cl2)
|  4> %tddft
|  5>   nroots 30
|  6>   tda false
|  7>   triplets false
|  8> end
|  9> * xyzfile 0 1 /home/jannes/chlorophyll-ladder/006-core-ladder/bacteriochlorin/01_opt/bacteriochlorin_opt_b3lypd4_tzvp.xyz
| 10> 
| 11>                          ****END OF INPUT****
================================================================================

                       ****************************
                       * Single Point Calculation *
                       ****************************

---------------------------------
CARTESIAN COORDINATES (ANGSTROEM)
---------------------------------
  N     -2.131412   -0.009265    0.032172
  N      2.127586   -0.005444    0.064802
  N      0.000040   -2.091714    0.051036
  N     -0.003835    2.077181    0.045782
  C     -4.387102   -0.778213    0.013758
  C      4.384652   -0.770130    0.089686
  C     -4.388540    0.755536    0.015653
  C      4.383316    0.763535    0.074833
  C     -2.902846   -1.110617    0.025018
  C      2.901084   -1.105349    0.072960
  C     -2.904906    1.090705    0.027297
  C      2.899036    1.095964    0.068653
  C     -1.127031   -2.870559    0.036698
  C      1.128578   -2.868549    0.056111
  C     -1.132389    2.853974    0.042869
  C      1.123252    2.856000    0.058324
  C     -2.444220   -2.415686    0.027064
  C      2.444908   -2.411274    0.068798
  C     -2.448734    2.396618    0.032228
  C      2.440445    2.401034    0.065913
  C     -0.684322   -4.222404    0.031297
  C      0.688446   -4.221180    0.043188
  C     -0.692255    4.206595    0.055320
  C      0.680553    4.207830    0.064664
  H     -4.874413   -1.199174   -0.868103
  H     -4.888191   -1.201433    0.886742
  H      4.866168   -1.181777    0.979204
  H      4.892941   -1.200689   -0.775400
  H     -4.876916    1.177784   -0.864978
  H     -4.890163    1.175629    0.889862
  H      4.877404    1.194980    0.947676
  H      4.877711    1.176156   -0.807129
  H     -3.197095   -3.194415    0.018208
  H      3.199257   -3.188609    0.073971
  H     -3.203105    3.173945    0.029451
  H      3.193369    3.179739    0.072597
  H     -0.000955   -1.084944    0.069219
  H     -0.002847    1.070445    0.027203
  H     -1.341762   -5.076648    0.018452
  H      1.347534   -5.074248    0.041693
  H     -1.351322    5.059677    0.058203
  H      1.337982    5.062096    0.076507

----------------------------
CARTESIAN COORDINATES (A.U.)
----------------------------
  NO LB      ZA    FRAG     MASS         X           Y           Z
   0 N     7.0000    0    14.007   -4.027786   -0.017508    0.060797
   1 N     7.0000    0    14.007    4.020555   -0.010287    0.122458
   2 N     7.0000    0    14.007    0.000076   -3.952767    0.096444
   3 N     7.0000    0    14.007   -0.007246    3.925303    0.086515
   4 C     6.0000    0    12.011   -8.290422   -1.470610    0.025999
   5 C     6.0000    0    12.011    8.285791   -1.455336    0.169482
   6 C     6.0000    0    12.011   -8.293139    1.427757    0.029579
   7 C     6.0000    0    12.011    8.283266    1.442873    0.141415
   8 C     6.0000    0    12.011   -5.485584   -2.098762    0.047278
   9 C     6.0000    0    12.011    5.482255   -2.088808    0.137874
  10 C     6.0000    0    12.011   -5.489477    2.061134    0.051585
  11 C     6.0000    0    12.011    5.478383    2.071071    0.129735
  12 C     6.0000    0    12.011   -2.129780   -5.424569    0.069348
  13 C     6.0000    0    12.011    2.132703   -5.420773    0.106034
  14 C     6.0000    0    12.011   -2.139906    5.393229    0.081011
  15 C     6.0000    0    12.011    2.122639    5.397058    0.110216
  16 C     6.0000    0    12.011   -4.618906   -4.564984    0.051143
  17 C     6.0000    0    12.011    4.620206   -4.556648    0.130009
  18 C     6.0000    0    12.011   -4.627436    4.528951    0.060901
  19 C     6.0000    0    12.011    4.611773    4.537297    0.124558
  20 C     6.0000    0    12.011   -1.293181   -7.979187    0.059142
  21 C     6.0000    0    12.011    1.300974   -7.976873    0.081614
  22 C     6.0000    0    12.011   -1.308173    7.949313    0.104540
  23 C     6.0000    0    12.011    1.286059    7.951646    0.122197
  24 H     1.0000    0     1.008   -9.211305   -2.266110   -1.640476
  25 H     1.0000    0     1.008   -9.237342   -2.270380    1.675699
  26 H     1.0000    0     1.008    9.195725   -2.233235    1.850427
  27 H     1.0000    0     1.008    9.246319   -2.268974   -1.465294
  28 H     1.0000    0     1.008   -9.216036    2.225689   -1.634572
  29 H     1.0000    0     1.008   -9.241068    2.221618    1.681595
  30 H     1.0000    0     1.008    9.216957    2.258186    1.790848
  31 H     1.0000    0     1.008    9.217539    2.222613   -1.525252
  32 H     1.0000    0     1.008   -6.041635   -6.036570    0.034408
  33 H     1.0000    0     1.008    6.045720   -6.025599    0.139786
  34 H     1.0000    0     1.008   -6.052992    5.997887    0.055654
  35 H     1.0000    0     1.008    6.034593    6.008836    0.137188
  36 H     1.0000    0     1.008   -0.001804   -2.050246    0.130805
  37 H     1.0000    0     1.008   -0.005380    2.022848    0.051406
  38 H     1.0000    0     1.008   -2.535563   -9.593475    0.034869
  39 H     1.0000    0     1.008    2.546470   -9.588939    0.078788
  40 H     1.0000    0     1.008   -2.553629    9.561403    0.109988
  41 H     1.0000    0     1.008    2.528419    9.565976    0.144577

--------------------------------
INTERNAL COORDINATES (ANGSTROEM)
--------------------------------
 N      0   0   0     0.000000000000     0.00000000     0.00000000
 N      1   0   0     4.259125255101     0.00000000     0.00000000
 N      2   1   0     2.979793073612    44.38682812     0.00000000
 N      1   2   3     2.979937588325    44.38882278   180.00431492
 C      1   2   3     2.383224331891   161.22809761   359.84573394
 C      2   1   3     2.383214003440   161.23248144   359.50233838
 C      5   1   2     1.533751430147    71.22986369   180.01419164
 C      6   2   1     1.533738243799    71.22972948   180.01356821
 C      1   2   3     1.344670180013   125.06153963   359.86560291
 C      2   1   3     1.344677722639   125.06635837   359.95346450
 C      1   2   3     1.344711972034   125.06380517   179.87564624
 C      2   1   3     1.344710848961   125.05982141   179.96244185
 C      3   2   1     1.370070404362   170.20155793     1.63404683
 C      3   2   1     1.370071299641    78.97977972   179.80758086
 C      4   1   2     1.370055693583    78.98028333   180.28705742
 C      4   1   2     1.370051411824   170.20050419   358.79325121
 C      9   1   2     1.383309867927   125.62733382     0.00000000
 C     10   2   1     1.383312771574   125.62637910     0.16888808
 C     11   1   2     1.383302371438   125.62886297     0.00000000
 C     12   2   1     1.383300910147   125.63008454     0.16389811
 C     13   3  14     1.422500103026   106.51427545   359.95175657
 C     21  13   3     1.372819871769   108.07890070     0.03216577
 C     15   4   1     1.422482985703   106.51359629   179.68364988
 C     23  15   4     1.372840900539   108.07850459     0.02922486
 H      5   1   2     1.091951320565   123.57436885   285.31314714
 H      5   1   2     1.091927252438   123.58847392    74.71153694
 H      6   2   1     1.092040481764   123.16475135   285.31648811
 H      6   2   1     1.091839600997   123.99708756    74.71334140
 H      7   5   1     1.091931643407   112.71330269   119.42108336
 H      7   5   1     1.091945227046   112.71447592   240.60097410
 H      8   6   2     1.091843399771   112.76786613   119.85885046
 H      8   6   2     1.092034883831   112.65954529   241.03998255
 H     17   9   1     1.083198875997   116.60285971   180.13059775
 H     18  10   2     1.083198729248   116.60342035   179.84122245
 H     19  11   1     1.083200322095   116.60279398   180.13536402
 H     20  12   2     1.083199329200   116.60191752   179.83097021
 H      3   2   1     1.006935583970    45.62088712   358.45420150
 H      4   1   2     1.006907456919    45.61881323     1.58342957
 H     21  13   3     1.078019246471   124.28481501   180.11702728
 H     22  21  13     1.078019347289   127.63631014   180.09222208
 H     23  15   4     1.078018952298   124.28677920   180.11924900
 H     24  23  15     1.078018487835   127.63449325   180.09388479

---------------------------
INTERNAL COORDINATES (A.U.)
---------------------------
 N      0   0   0     0.000000000000     0.00000000     0.00000000
 N      1   0   0     8.048580302209     0.00000000     0.00000000
 N      2   1   0     5.630992844881    44.38682812     0.00000000
 N      1   2   3     5.631265938112    44.38882278   180.00431492
 C      1   2   3     4.503641302972   161.22809761   359.84573394
 C      2   1   3     4.503621785027   161.23248144   359.50233838
 C      5   1   2     2.898370160487    71.22986369   180.01419164
 C      6   2   1     2.898345241901    71.22972948   180.01356821
 C      1   2   3     2.541058380676   125.06153963   359.86560291
 C      2   1   3     2.541072634173   125.06635837   359.95346450
 C      1   2   3     2.541137356150   125.06380517   179.87564624
 C      2   1   3     2.541135233849   125.05982141   179.96244185
 C      3   2   1     2.589057848435   170.20155793     1.63404683
 C      3   2   1     2.589059540267    78.97977972   179.80758086
 C      4   1   2     2.589030049091    78.98028333   180.28705742
 C      4   1   2     2.589021957739   170.20050419   358.79325121
 C      9   1   2     2.614076808732   125.62733382     0.00000000
 C     10   2   1     2.614082295830   125.62637910     0.16888808
 C     11   1   2     2.614062642421   125.62886297     0.00000000
 C     12   2   1     2.614059880982   125.63008454     0.16389811
 C     13   3  14     2.688135620194   106.51427545   359.95175657
 C     21  13   3     2.594253588848   108.07890070     0.03216577
 C     15   4   1     2.688103273141   106.51359629   179.68364988
 C     23  15   4     2.594293327464   108.07850459     0.02922486
 H      5   1   2     2.063488947441   123.57436885   285.31314714
 H      5   1   2     2.063443465274   123.58847392    74.71153694
 H      6   2   1     2.063657437689   123.16475135   285.31648811
 H      6   2   1     2.063277828053   123.99708756    74.71334140
 H      7   5   1     2.063451763002   112.71330269   119.42108336
 H      7   5   1     2.063477432359   112.71447592   240.60097410
 H      8   6   2     2.063285006698   112.76786613   119.85885046
 H      8   6   2     2.063646859130   112.65954529   241.03998255
 H     17   9   1     2.046949224206   116.60285971   180.13059775
 H     18  10   2     2.046948946890   116.60342035   179.84122245
 H     19  11   1     2.046951956936   116.60279398   180.13536402
 H     20  12   2     2.046950080635   116.60191752   179.83097021
 H      3   2   1     1.902832488203    45.62088712   358.45420150
 H      4   1   2     1.902779335779    45.61881323     1.58342957
 H     21  13   3     2.037161142927   124.28481501   180.11702728
 H     22  21  13     2.037161333444   127.63631014   180.09222208
 H     23  15   4     2.037160587019   124.28677920   180.11924900
 H     24  23  15     2.037159709312   127.63449325   180.09388479

---------------------
BASIS SET INFORMATION
---------------------
There are 3 groups of distinct atoms

 Group   1 Type N   : 11s6p2d1f contracted to 5s3p2d1f pattern {62111/411/11/1}
 Group   2 Type C   : 11s6p2d1f contracted to 5s3p2d1f pattern {62111/411/11/1}
 Group   3 Type H   : 5s1p contracted to 3s1p pattern {311/1}

Atom   0N    basis set group =>   1
Atom   1N    basis set group =>   1
Atom   2N    basis set group =>   1
Atom   3N    basis set group =>   1
Atom   4C    basis set group =>   2
Atom   5C    basis set group =>   2
Atom   6C    basis set group =>   2
Atom   7C    basis set group =>   2
Atom   8C    basis set group =>   2
Atom   9C    basis set group =>   2
Atom  10C    basis set group =>   2
Atom  11C    basis set group =>   2
Atom  12C    basis set group =>   2
Atom  13C    basis set group =>   2
Atom  14C    basis set group =>   2
Atom  15C    basis set group =>   2
Atom  16C    basis set group =>   2
Atom  17C    basis set group =>   2
Atom  18C    basis set group =>   2
Atom  19C    basis set group =>   2
Atom  20C    basis set group =>   2
Atom  21C    basis set group =>   2
Atom  22C    basis set group =>   2
Atom  23C    basis set group =>   2
Atom  24H    basis set group =>   3
Atom  25H    basis set group =>   3
Atom  26H    basis set group =>   3
Atom  27H    basis set group =>   3
Atom  28H    basis set group =>   3
Atom  29H    basis set group =>   3
Atom  30H    basis set group =>   3
Atom  31H    basis set group =>   3
Atom  32H    basis set group =>   3
Atom  33H    basis set group =>   3
Atom  34H    basis set group =>   3
Atom  35H    basis set group =>   3
Atom  36H    basis set group =>   3
Atom  37H    basis set group =>   3
Atom  38H    basis set group =>   3
Atom  39H    basis set group =>   3
Atom  40H    basis set group =>   3
Atom  41H    basis set group =>   3
---------------------------------
AUXILIARY/J BASIS SET INFORMATION
---------------------------------
There are 3 groups of distinct atoms

 Group   1 Type N   : 12s5p4d2f1g contracted to 6s4p3d1f1g pattern {711111/2111/211/2/1}
 Group   2 Type C   : 12s5p4d2f1g contracted to 6s4p3d1f1g pattern {711111/2111/211/2/1}
 Group   3 Type H   : 5s2p1d contracted to 3s1p1d pattern {311/2/1}

Atom   0N    basis set group =>   1
Atom   1N    basis set group =>   1
Atom   2N    basis set group =>   1
Atom   3N    basis set group =>   1
Atom   4C    basis set group =>   2
Atom   5C    basis set group =>   2
Atom   6C    basis set group =>   2
Atom   7C    basis set group =>   2
Atom   8C    basis set group =>   2
Atom   9C    basis set group =>   2
Atom  10C    basis set group =>   2
Atom  11C    basis set group =>   2
Atom  12C    basis set group =>   2
Atom  13C    basis set group =>   2
Atom  14C    basis set group =>   2
Atom  15C    basis set group =>   2
Atom  16C    basis set group =>   2
Atom  17C    basis set group =>   2
Atom  18C    basis set group =>   2
Atom  19C    basis set group =>   2
Atom  20C    basis set group =>   2
Atom  21C    basis set group =>   2
Atom  22C    basis set group =>   2
Atom  23C    basis set group =>   2
Atom  24H    basis set group =>   3
Atom  25H    basis set group =>   3
Atom  26H    basis set group =>   3
Atom  27H    basis set group =>   3
Atom  28H    basis set group =>   3
Atom  29H    basis set group =>   3
Atom  30H    basis set group =>   3
Atom  31H    basis set group =>   3
Atom  32H    basis set group =>   3
Atom  33H    basis set group =>   3
Atom  34H    basis set group =>   3
Atom  35H    basis set group =>   3
Atom  36H    basis set group =>   3
Atom  37H    basis set group =>   3
Atom  38H    basis set group =>   3
Atom  39H    basis set group =>   3
Atom  40H    basis set group =>   3
Atom  41H    basis set group =>   3

Checking for AutoStart:
The File: tddft.gbw exists
Trying to determine its content:
     ... Fine, the file contains calculation information
     ... Fine, the calculation information was read
     ... Fine, the file contains a basis set
     ... Fine, the basis set was read
     ... Fine, the file contains a geometry
     ... Fine, the geometry was read
     ... Fine, the file contains a set of orbitals
     ... Fine, the orbitals can be read
     => possible old guess file was deleted
     => GBW file was renamed to GES file
     => GES file is set as startup file
     => Guess is set to MORead
     ... now leaving AutoStart



           ************************************************************
           *        Program running with 4 parallel MPI-processes     *
           *              working on a common directory               *
           ************************************************************
------------------------------------------------------------------------------
                             ORCA STARTUP CALCULATIONS
                           -- RI-GTO INTEGRALS CHOSEN --
------------------------------------------------------------------------------
------------------------------------------------------------------------------
                   ___                                                        
                  /   \      - P O W E R E D   B Y -                         
                 /     \                                                     
                 |  |  |   _    _      __       _____    __    __             
                 |  |  |  | |  | |    /  \     |  _  \  |  |  /  |          
                  \  \/   | |  | |   /    \    | | | |  |  | /  /          
                 / \  \   | |__| |  /  /\  \   | |_| |  |  |/  /          
                |  |  |   |  __  | /  /__\  \  |    /   |      \           
                |  |  |   | |  | | |   __   |  |    \   |  |\   \          
                \     /   | |  | | |  |  |  |  | |\  \  |  | \   \       
                 \___/    |_|  |_| |__|  |__|  |_| \__\ |__|  \__/        
                                                                              
                      - O R C A' S   B I G   F R I E N D -                    
                                      &                                       
                       - I N T E G R A L  F E E D E R -                       
                                                                              
 v1 FN, 2020, v2 2021, v3 2022-2024                                           
------------------------------------------------------------------------------


----------------------
SHARK INTEGRAL PACKAGE
----------------------

Number of atoms                             ...     42
Number of basis functions                   ...    852
Number of shells                            ...    336
Maximum angular momentum                    ...      3
Integral batch strategy                     ... SHARK/LIBINT Hybrid
RI-J (if used) integral strategy            ... SPLIT-RIJ (Revised 2003 algorithm where possible)
Printlevel                                  ...      1
Contraction scheme used                     ... SEGMENTED contraction
Prescreening option                         ... SCHWARTZ
   Thresh                                   ... 2.500e-11
   Tcut                                     ... 2.500e-12
   Tpresel                                  ... 2.500e-12 
Coulomb Range Separation                    ... NOT USED
Exchange Range Separation                   ... NOT USED
Multipole approximations                    ... NOT USED
Finite Nucleus Model                        ... NOT USED
CABS basis                                  ... NOT available
Auxiliary Coulomb fitting basis             ... AVAILABLE
   # of basis functions in Aux-J            ...   1374
   # of shells in Aux-J                     ...    450
   Maximum angular momentum in Aux-J        ...      4
Auxiliary J/K fitting basis                 ... NOT available
Auxiliary Correlation fitting basis         ... NOT available
Auxiliary 'external' fitting basis          ... NOT available

Checking pre-screening integrals            ... done (  0.0 sec) Dimension = 336
   => SHARK Basis and OBASIS are compatible. Storing Pre-screening
Shell pair information
Shell pair cut-off parameter TPreSel        ...   2.5e-12
Total number of shell pairs                 ...     56616
Shell pairs after pre-screening             ...     39301
Total number of primitive shell pairs       ...    173748
Primitive shell pairs kept                  ...     79347
          la=0 lb=0:  10148 shell pairs
          la=1 lb=0:  11400 shell pairs
          la=1 lb=1:   3217 shell pairs
          la=2 lb=0:   5542 shell pairs
          la=2 lb=1:   3204 shell pairs
          la=2 lb=2:    832 shell pairs
          la=3 lb=0:   2576 shell pairs
          la=3 lb=1:   1500 shell pairs
          la=3 lb=2:    712 shell pairs
          la=3 lb=3:    170 shell pairs

Checking whether 4 symmetric matrices of dimension 852 fit in memory
:Max Core in MB      =   3000.00
 MB in use           =     50.78
 MB left             =   2949.22
 MB needed           =     11.09
 Data fit in memory  = YES
Calculating RI/J V-Matrix + Cholesky decomp.... done (  0.4 sec)
Calculating Nuclear repulsion               ... done (  0.0 sec) ENN=   1923.382611487662 Eh

Diagonalization of the overlap matrix:
Smallest eigenvalue                        ... 9.782e-06
Time for diagonalization                   ...    0.334 sec
Threshold for overlap eigenvalues          ... 1.000e-07
Number of eigenvalues below threshold      ... 0
Time for construction of square roots      ...    0.177 sec
Total time needed                          ...    0.522 sec

-------------------
DFT GRID GENERATION
-------------------

General Integration Accuracy     IntAcc      ... 4.959
Radial Grid Type                 RadialGrid  ... OptM3 with GC (2021)
Angular Grid (max. ang.)         AngularGrid ... 6 (Lebedev-590)
Angular grid pruning method      GridPruning ... 4 (adaptive)
Weight generation scheme         WeightScheme... mBecke (2022)
Basis function cutoff            BFCut       ... 1.0000e-11
Integration weight cutoff        WCut        ... 1.0000e-14
Partially contracted basis set               ... off
Rotationally invariant grid construction     ... off
Angular grids for H and He will be reduced by one unit

Total number of grid points                  ...   492495
Total number of batches                      ...     7717
Average number of points per batch           ...       63
Average number of grid points per atom       ...    11726
Grids setup in  12.7 sec
Initializing property integral containers    ... done (  0.0 sec)

SHARK setup successfully completed in  15.1 seconds

Maximum memory used throughout the entire STARTUP-calculation: 156.2 MB


           ************************************************************
           *        Program running with 4 parallel MPI-processes     *
           *              working on a common directory               *
           ************************************************************
-------------------------------------------------------------------------------
                                 ORCA GUESS
                   Start orbitals & Density for SCF / CASSCF
-------------------------------------------------------------------------------

------------
SCF SETTINGS
------------
Hamiltonian:
 Density Functional     Method          .... DFT(GTOs)
 Exchange Functional    Exchange        .... TPSS
 Correlation Functional Correlation     .... TPSS
 LDA part of GGA corr.  LDAOpt          .... PW91-LDA
 Gradients option       PostSCFGGA      .... off
   NL short-range parameter             ....  5.000000
 RI-approximation to the Coulomb term is turned on
   Number of AuxJ basis functions       .... 1374


General Settings:
 Integral files         IntName         .... tddft
 Hartree-Fock type      HFTyp           .... RHF
 Total Charge           Charge          ....    0
 Multiplicity           Mult            ....    1
 Number of Electrons    NEL             ....  166
 Basis Dimension        Dim             ....  852
 Nuclear Repulsion      ENuc            ....   1923.3826114877 Eh

Convergence Acceleration:
 AO-DIIS                CNVDIIS         .... on
   Start iteration      DIISMaxIt       ....    12
   Startup error        DIISStart       ....  0.200000
   # of expansion vecs  DIISMaxEq       ....     5
   Bias factor          DIISBfac        ....   1.050
   Max. coefficient     DIISMaxC        ....  10.000
 MO-DIIS                CNVKDIIS        .... off
 Trust-Rad. Augm. Hess. CNVTRAH         .... auto
   Auto Start mean grad. ratio tolernc. ....  1.125000
   Auto Start start iteration           ....     1
   Auto Start num. interpolation iter.  ....    10
   Max. Number of Micro iterations      ....    24
   Max. Number of Macro iterations      .... Maxiter - #DIIS iter
   Number of Davidson start vectors     ....     2
   Converg. threshold    (grad. norm)   ....   1.000e-05
   Grad. Scal. Fac. for Micro threshold ....   0.100
   Minimum threshold for Micro iter.    ....   1.000e-02
   NR start threshold (gradient norm)   ....   1.000e-04
   Initial trust radius                 ....   0.400
   Minimum AH scaling param. (alpha)    ....   1.000
   Maximum AH scaling param. (alpha)    .... 1000.000
   Quad. conv. algorithm                .... NR
   White noise on init. David. guess    .... on
   Maximum white noise                  ....   0.010
   Pseudo random numbers                .... off
   Inactive MOs                         .... canonical
   Orbital update algorithm             .... Taylor
   Preconditioner                       .... Diag
   Full preconditioner red. dimension   ....   250
 SOSCF                 CNVSOSCF           .... on
   Start iteration     SOSCFMaxIt         ....   150
   Startup grad/error  SOSCFStart         ....  0.003300
   Hessian update      SOSCFHessUp        .... L-BFGS
   Autom. constraints  SOSCFAutoConstrain .... off
 Level Shifting         CNVShift        .... on
   Level shift para.    LevelShift      ....    0.2500
   Turn off err/grad.   ShiftErr        ....    0.0010
 Zerner damping         CNVZerner       .... off
 Static damping         CNVDamp         .... on
   Fraction old density DampFac         ....    0.7000
   Max. Damping (<1)    DampMax         ....    0.9800
   Min. Damping (>=0)   DampMin         ....    0.0000
   Turn off err/grad.   DampErr         ....    0.1000

SCF Procedure:
 Maximum # iterations   MaxIter         ....   125
 SCF integral mode      SCFMode         .... Direct
   Integral package                     .... SHARK and LIBINT hybrid scheme
 Reset frequency        DirectResetFreq ....    20
 Integral Threshold     Thresh          ....  2.500e-11 Eh
 Primitive CutOff       TCut            ....  2.500e-12 Eh

Convergence Tolerance:
 Convergence Check Mode ConvCheckMode   .... Total+1el-Energy
 Convergence forced     ConvForced      .... 1
 Energy Change          TolE            ....  1.000e-08 Eh
 1-El. energy change                    ....  1.000e-05 Eh
 Orbital Gradient       TolG            ....  1.000e-05
 Orbital Rotation angle TolX            ....  1.000e-05
 DIIS Error             TolErr          ....  5.000e-07

---------------------
INITIAL GUESS: MOREAD
---------------------
Guess MOs are being read from file: tddft.ges
Input Geometry matches current geometry (good)
Input basis set matches current basis set (good)
Occupation numbers will be reassigned to an Aufbau configuration
MOs were renormalized
MOs were reorthogonalized (Cholesky)
                      ------------------
                      INITIAL GUESS DONE (   1.0 sec)
                      ------------------
             **** ENERGY FILE WAS UPDATED (tddft.en.tmp) ****
Finished Guess after   1.8 sec
Maximum memory used throughout the entire GUESS-calculation: 95.5 MB


           ************************************************************
           *        Program running with 4 parallel MPI-processes     *
           *              working on a common directory               *
           ************************************************************

-------------------------------------------------------------------------------------------
                                      ORCA LEAN-SCF
                              memory conserving SCF solver
-------------------------------------------------------------------------------------------

--------------------
CPCM SOLVATION MODEL
--------------------
CPCM parameters:
  Epsilon                                         ...       8.9990
  Refrac                                          ...       1.4242
  Rsolv                                           ...       1.3000
  Surface type                                    ... GAUSSIAN VDW
  Discretization scheme                           ... Constant charge density
    Threshold for H atoms                         ...       5.0000 (charges/Ang^2)
    Threshold for non-H atoms                     ...       5.0000 (charges/Ang^2)
  Epsilon function type                           ...         CPCM
Solvent:                                          ... DICHLOROMETHANE
Radii:
  Scheme                                          ... Element-dependent radii
  Radius for N  used is    3.5149 Bohr (=   1.8600 Ang.)
  Radius for C  used is    3.8550 Bohr (=   2.0400 Ang.)
  Radius for H  used is    2.4944 Bohr (=   1.3200 Ang.)
Calculating surface                               ...        done! (  0.0s)
Cavity surface points                             ...         3690
Cavity Volume                                     ...    2501.5510
Cavity Surface-area                               ...    1223.0827
Calculating surface distance matrix               ...        done! (  0.4s)
Performing Cholesky decomposition & store         ...        done! (  0.8s)
Overall time for CPCM initialization              ...                 1.3s

----------------------------------------D-I-I-S--------------------------------------------
Iteration    Energy (Eh)           Delta-E    RMSDP     MaxDP     DIISErr   Damp  Time(sec)
-------------------------------------------------------------------------------------------
               ***  Starting incremental Fock matrix formation  ***
                              *** Initializing SOSCF ***
---------------------------------------S-O-S-C-F--------------------------------------
Iteration    Energy (Eh)           Delta-E    RMSDP     MaxDP     MaxGrad    Time(sec)
--------------------------------------------------------------------------------------
    1    -992.5257065780688208     0.00e+00  7.55e-06  2.91e-04  8.93e-07    33.1
               *** Restarting incremental Fock matrix formation ***
    2    -992.5257065785731356    -5.04e-10  1.44e-06  5.42e-05  2.44e-06    31.1
                  *** Gradient check signals convergence ***

               *****************************************************
               *                     SUCCESS                       *
               *           SCF CONVERGED AFTER   2 CYCLES          *
               *****************************************************

             **** ENERGY FILE WAS UPDATED (tddft.en.tmp) ****

----------------
TOTAL SCF ENERGY
----------------

Total Energy       :       -992.52570657285014 Eh          -27007.99754 eV

Components:
Nuclear Repulsion  :       1923.38261148766151 Eh           52337.90167 eV
Electronic Energy  :      -2915.89573142202244 Eh          -79345.55670 eV
One Electron Energy:      -5166.36478709975290 Eh         -140583.93301 eV
Two Electron Energy:       2250.46905567773047 Eh           61238.37630 eV
CPCM Dielectric    :         -0.01258663848939 Eh              -0.34250 eV

Virial components:
Potential Energy   :      -1981.02922750357288 Eh          -53906.54584 eV
Kinetic Energy     :        988.50352093072274 Eh           26898.54830 eV
Virial Ratio       :          2.00406896440626

DFT components:
N(Alpha)           :       83.000035713785 electrons
N(Beta)            :       83.000035713785 electrons
N(Total)           :      166.000071427570 electrons
E(X)               :     -137.945822126870 Eh       
E(C)               :       -5.609824587152 Eh       
E(XC)              :     -143.555646714022 Eh       

CPCM Solvation Model Properties:
Surface-charge          :         -0.03718168773031
Corrected charge        :         -0.00000000000000
Outlying charge corr.   :          0.00006525400811 Eh               0.00178 eV
Free-energy (cav+disp)  :  This term is not implemented in the current solvation scheme

---------------
SCF CONVERGENCE
---------------

  Last Energy change         ...    5.0431e-10  Tolerance :   1.0000e-08
  Last MAX-Density change    ...    5.4166e-05  Tolerance :   1.0000e-07
  Last RMS-Density change    ...    1.4434e-06  Tolerance :   5.0000e-09
  Last DIIS Error            ...    7.0265e-06  Tolerance :   5.0000e-07
  Last Orbital Gradient      ...    2.4429e-06  Tolerance :   1.0000e-05
  Last Orbital Rotation      ...    8.4761e-06  Tolerance :   1.0000e-05


----------------
ORBITAL ENERGIES
----------------

  NO   OCC          E(Eh)            E(eV) 
   0   2.0000     -14.134059      -384.6073 
   1   2.0000     -14.134055      -384.6072 
   2   2.0000     -14.092385      -383.4733 
   3   2.0000     -14.092384      -383.4733 
   4   2.0000     -10.025011      -272.7944 
   5   2.0000     -10.025007      -272.7943 
   6   2.0000     -10.024999      -272.7941 
   7   2.0000     -10.024995      -272.7940 
   8   2.0000     -10.016181      -272.5541 
   9   2.0000     -10.016181      -272.5541 
  10   2.0000     -10.016168      -272.5538 
  11   2.0000     -10.016168      -272.5538 
  12   2.0000      -9.985067      -271.7075 
  13   2.0000      -9.985064      -271.7074 
  14   2.0000      -9.984674      -271.6968 
  15   2.0000      -9.984674      -271.6968 
  16   2.0000      -9.984594      -271.6946 
  17   2.0000      -9.984591      -271.6945 
  18   2.0000      -9.984564      -271.6938 
  19   2.0000      -9.984563      -271.6938 
  20   2.0000      -9.984323      -271.6872 
  21   2.0000      -9.984320      -271.6872 
  22   2.0000      -9.984320      -271.6872 
  23   2.0000      -9.984317      -271.6871 
  24   2.0000      -0.921316       -25.0703 
  25   2.0000      -0.919672       -25.0256 
  26   2.0000      -0.882806       -24.0224 
  27   2.0000      -0.880309       -23.9544 
  28   2.0000      -0.756859       -20.5952 
  29   2.0000      -0.733276       -19.9535 
  30   2.0000      -0.731018       -19.8920 
  31   2.0000      -0.730391       -19.8749 
  32   2.0000      -0.728958       -19.8359 
  33   2.0000      -0.706209       -19.2169 
  34   2.0000      -0.705677       -19.2024 
  35   2.0000      -0.681015       -18.5314 
  36   2.0000      -0.667992       -18.1770 
  37   2.0000      -0.608544       -16.5593 
  38   2.0000      -0.605889       -16.4871 
  39   2.0000      -0.565117       -15.3776 
  40   2.0000      -0.550852       -14.9894 
  41   2.0000      -0.550234       -14.9726 
  42   2.0000      -0.532183       -14.4814 
  43   2.0000      -0.531701       -14.4683 
  44   2.0000      -0.530463       -14.4346 
  45   2.0000      -0.518432       -14.1072 
  46   2.0000      -0.516612       -14.0577 
  47   2.0000      -0.461563       -12.5598 
  48   2.0000      -0.456292       -12.4163 
  49   2.0000      -0.446977       -12.1629 
  50   2.0000      -0.440934       -11.9984 
  51   2.0000      -0.428535       -11.6610 
  52   2.0000      -0.427693       -11.6381 
  53   2.0000      -0.409381       -11.1398 
  54   2.0000      -0.405463       -11.0332 
  55   2.0000      -0.397294       -10.8109 
  56   2.0000      -0.389589       -10.6012 
  57   2.0000      -0.388532       -10.5725 
  58   2.0000      -0.388248       -10.5648 
  59   2.0000      -0.377743       -10.2789 
  60   2.0000      -0.371098       -10.0981 
  61   2.0000      -0.366831        -9.9820 
  62   2.0000      -0.360414        -9.8074 
  63   2.0000      -0.347779        -9.4635 
  64   2.0000      -0.338910        -9.2222 
  65   2.0000      -0.337895        -9.1946 
  66   2.0000      -0.333598        -9.0777 
  67   2.0000      -0.331452        -9.0193 
  68   2.0000      -0.329622        -8.9695 
  69   2.0000      -0.319226        -8.6866 
  70   2.0000      -0.316341        -8.6081 
  71   2.0000      -0.314127        -8.5478 
  72   2.0000      -0.312516        -8.5040 
  73   2.0000      -0.312472        -8.5028 
  74   2.0000      -0.278280        -7.5724 
  75   2.0000      -0.251031        -6.8309 
  76   2.0000      -0.236135        -6.4256 
  77   2.0000      -0.235628        -6.4118 
  78   2.0000      -0.234912        -6.3923 
  79   2.0000      -0.234362        -6.3773 
  80   2.0000      -0.226530        -6.1642 
  81   2.0000      -0.179236        -4.8773 
  82   2.0000      -0.160224        -4.3599 
  83   0.0000      -0.106909        -2.9091 
  84   0.0000      -0.064396        -1.7523 
  85   0.0000      -0.012859        -0.3499 
  86   0.0000      -0.005007        -0.1363 
  87   0.0000       0.013602         0.3701 
  88   0.0000       0.028625         0.7789 
  89   0.0000       0.034520         0.9393 
  90   0.0000       0.052057         1.4165 
  91   0.0000       0.053307         1.4506 
  92   0.0000       0.056304         1.5321 
  93   0.0000       0.059949         1.6313 
*Only the first 10 virtual orbitals were printed.

                    ********************************
                    * MULLIKEN POPULATION ANALYSIS *
                    ********************************

-----------------------
MULLIKEN ATOMIC CHARGES
-----------------------
   0 N :   -0.360326
   1 N :   -0.360318
   2 N :   -0.146668
   3 N :   -0.146656
   4 C :   -0.112034
   5 C :   -0.112163
   6 C :   -0.112038
   7 C :   -0.112130
   8 C :    0.172075
   9 C :    0.172216
  10 C :    0.172097
  11 C :    0.172152
  12 C :    0.282583
  13 C :    0.282559
  14 C :    0.282582
  15 C :    0.282545
  16 C :   -0.450808
  17 C :   -0.450817
  18 C :   -0.450799
  19 C :   -0.450831
  20 C :   -0.237250
  21 C :   -0.237235
  22 C :   -0.237280
  23 C :   -0.237227
  24 H :    0.106639
  25 H :    0.106853
  26 H :    0.106313
  27 H :    0.107203
  28 H :    0.106861
  29 H :    0.106633
  30 H :    0.107204
  31 H :    0.106307
  32 H :    0.135516
  33 H :    0.135518
  34 H :    0.135514
  35 H :    0.135513
  36 H :    0.230514
  37 H :    0.230508
  38 H :    0.134669
  39 H :    0.134670
  40 H :    0.134668
  41 H :    0.134668
Sum of atomic charges:   -0.0000000

--------------------------------
MULLIKEN REDUCED ORBITAL CHARGES
--------------------------------
  0 N s       :     3.629344  s :     3.629344
      pz      :     1.177925  p :     3.665432
      px      :     1.472398
      py      :     1.015110
      dz2     :     0.004736  d :     0.061799
      dxz     :     0.008418
      dyz     :     0.014387
      dx2y2   :     0.015439
      dxy     :     0.018818
      f0      :     0.000618  f :     0.003751
      f+1     :     0.000214
      f-1     :     0.000335
      f+2     :     0.000127
      f-2     :     0.000597
      f+3     :     0.000765
      f-3     :     0.001095

  1 N s       :     3.629331  s :     3.629331
      pz      :     1.177930  p :     3.665437
      px      :     1.472398
      py      :     1.015109
      dz2     :     0.004736  d :     0.061799
      dxz     :     0.008418
      dyz     :     0.014387
      dx2y2   :     0.015439
      dxy     :     0.018819
      f0      :     0.000618  f :     0.003751
      f+1     :     0.000214
      f-1     :     0.000335
      f+2     :     0.000127
      f-2     :     0.000597
      f+3     :     0.000765
      f-3     :     0.001095

  2 N s       :     3.429343  s :     3.429343
      pz      :     1.506452  p :     3.644901
      px      :     1.078280
      py      :     1.060169
      dz2     :     0.004637  d :     0.067754
      dxz     :     0.016482
      dyz     :     0.004783
      dx2y2   :     0.025024
      dxy     :     0.016827
      f0      :     0.000790  f :     0.004670
      f+1     :     0.000537
      f-1     :     0.000707
      f+2     :     0.000072
      f-2     :     0.000635
      f+3     :     0.001069
      f-3     :     0.000860

  3 N s       :     3.429336  s :     3.429336
      pz      :     1.506438  p :     3.644891
      px      :     1.078269
      py      :     1.060184
      dz2     :     0.004637  d :     0.067759
      dxz     :     0.016486
      dyz     :     0.004783
      dx2y2   :     0.025026
      dxy     :     0.016827
      f0      :     0.000790  f :     0.004670
      f+1     :     0.000537
      f-1     :     0.000707
      f+2     :     0.000072
      f-2     :     0.000635
      f+3     :     0.001069
      f-3     :     0.000860

  4 C s       :     3.052995  s :     3.052995
      pz      :     1.037367  p :     2.963589
      px      :     0.953638
      py      :     0.972584
      dz2     :     0.004361  d :     0.088561
      dxz     :     0.019233
      dyz     :     0.021386
      dx2y2   :     0.017568
      dxy     :     0.026014
      f0      :     0.000637  f :     0.006890
      f+1     :     0.000954
      f-1     :     0.000816
      f+2     :     0.000943
      f-2     :     0.000646
      f+3     :     0.001652
      f-3     :     0.001242

  5 C s       :     3.053189  s :     3.053189
      pz      :     1.037360  p :     2.963519
      px      :     0.953817
      py      :     0.972342
      dz2     :     0.004383  d :     0.088565
      dxz     :     0.019231
      dyz     :     0.021363
      dx2y2   :     0.017568
      dxy     :     0.026019
      f0      :     0.000639  f :     0.006890
      f+1     :     0.000955
      f-1     :     0.000813
      f+2     :     0.000943
      f-2     :     0.000646
      f+3     :     0.001654
      f-3     :     0.001240

  6 C s       :     3.053000  s :     3.053000
      pz      :     1.037356  p :     2.963586
      px      :     0.953851
      py      :     0.972379
      dz2     :     0.004361  d :     0.088561
      dxz     :     0.019245
      dyz     :     0.021375
      dx2y2   :     0.017568
      dxy     :     0.026012
      f0      :     0.000637  f :     0.006890
      f+1     :     0.000956
      f-1     :     0.000814
      f+2     :     0.000943
      f-2     :     0.000646
      f+3     :     0.001654
      f-3     :     0.001240

  7 C s       :     3.053158  s :     3.053158
      pz      :     1.037345  p :     2.963517
      px      :     0.953628
      py      :     0.972543
      dz2     :     0.004368  d :     0.088565
      dxz     :     0.019236
      dyz     :     0.021378
      dx2y2   :     0.017568
      dxy     :     0.026014
      f0      :     0.000637  f :     0.006890
      f+1     :     0.000954
      f-1     :     0.000816
      f+2     :     0.000943
      f-2     :     0.000646
      f+3     :     0.001653
      f-3     :     0.001242

  8 C s       :     3.146947  s :     3.146947
      pz      :     0.907547  p :     2.510437
      px      :     0.875477
      py      :     0.727413
      dz2     :     0.003697  d :     0.156459
      dxz     :     0.021644
      dyz     :     0.037887
      dx2y2   :     0.049463
      dxy     :     0.043768
      f0      :     0.001859  f :     0.014081
      f+1     :     0.000868
      f-1     :     0.000888
      f+2     :     0.001285
      f-2     :     0.001433
      f+3     :     0.002727
      f-3     :     0.005022

  9 C s       :     3.146888  s :     3.146888
      pz      :     0.907555  p :     2.510357
      px      :     0.875242
      py      :     0.727560
      dz2     :     0.003704  d :     0.156457
      dxz     :     0.021645
      dyz     :     0.037885
      dx2y2   :     0.049481
      dxy     :     0.043743
      f0      :     0.001859  f :     0.014081
      f+1     :     0.000869
      f-1     :     0.000887
      f+2     :     0.001282
      f-2     :     0.001435
      f+3     :     0.002739
      f-3     :     0.005010

 10 C s       :     3.146956  s :     3.146956
      pz      :     0.907577  p :     2.510415
      px      :     0.875331
      py      :     0.727506
      dz2     :     0.003697  d :     0.156451
      dxz     :     0.021647
      dyz     :     0.037881
      dx2y2   :     0.049482
      dxy     :     0.043744
      f0      :     0.001859  f :     0.014080
      f+1     :     0.000869
      f-1     :     0.000887
      f+2     :     0.001282
      f-2     :     0.001435
      f+3     :     0.002738
      f-3     :     0.005010

 11 C s       :     3.146910  s :     3.146910
      pz      :     0.907569  p :     2.510403
      px      :     0.875410
      py      :     0.727424
      dz2     :     0.003694  d :     0.156455
      dxz     :     0.021644
      dyz     :     0.037889
      dx2y2   :     0.049460
      dxy     :     0.043768
      f0      :     0.001859  f :     0.014081
      f+1     :     0.000868
      f-1     :     0.000888
      f+2     :     0.001285
      f-2     :     0.001433
      f+3     :     0.002727
      f-3     :     0.005021

 12 C s       :     3.098559  s :     3.098559
      pz      :     0.944036  p :     2.448617
      px      :     0.688906
      py      :     0.815675
      dz2     :     0.005660  d :     0.156081
      dxz     :     0.039081
      dyz     :     0.029262
      dx2y2   :     0.041791
      dxy     :     0.040287
      f0      :     0.002152  f :     0.014160
      f+1     :     0.001104
      f-1     :     0.000840
      f+2     :     0.000898
      f-2     :     0.002327
      f+3     :     0.003862
      f-3     :     0.002976

 13 C s       :     3.098582  s :     3.098582
      pz      :     0.944051  p :     2.448614
      px      :     0.688738
      py      :     0.815825
      dz2     :     0.005659  d :     0.156085
      dxz     :     0.039106
      dyz     :     0.029278
      dx2y2   :     0.041814
      dxy     :     0.040228
      f0      :     0.002153  f :     0.014160
      f+1     :     0.001104
      f-1     :     0.000840
      f+2     :     0.000902
      f-2     :     0.002323
      f+3     :     0.003875
      f-3     :     0.002964

 14 C s       :     3.098566  s :     3.098566
      pz      :     0.944084  p :     2.448607
      px      :     0.688685
      py      :     0.815838
      dz2     :     0.005657  d :     0.156086
      dxz     :     0.039104
      dyz     :     0.029278
      dx2y2   :     0.041817
      dxy     :     0.040229
      f0      :     0.002153  f :     0.014160
      f+1     :     0.001104
      f-1     :     0.000840
      f+2     :     0.000902
      f-2     :     0.002323
      f+3     :     0.003875
      f-3     :     0.002964

 15 C s       :     3.098569  s :     3.098569
      pz      :     0.944061  p :     2.448643
      px      :     0.688900
      py      :     0.815682
      dz2     :     0.005657  d :     0.156083
      dxz     :     0.039085
      dyz     :     0.029265
      dx2y2   :     0.041790
      dxy     :     0.040286
      f0      :     0.002153  f :     0.014160
      f+1     :     0.001104
      f-1     :     0.000840
      f+2     :     0.000897
      f-2     :     0.002327
      f+3     :     0.003863
      f-3     :     0.002976

 16 C s       :     3.410654  s :     3.410654
      pz      :     1.062650  p :     2.952151
      px      :     0.912835
      py      :     0.976667
      dz2     :     0.002358  d :     0.080222
      dxz     :     0.014734
      dyz     :     0.015643
      dx2y2   :     0.008406
      dxy     :     0.039082
      f0      :     0.001391  f :     0.007780
      f+1     :     0.000723
      f-1     :     0.000723
      f+2     :     0.000863
      f-2     :     0.000530
      f+3     :     0.001736
      f-3     :     0.001813

 17 C s       :     3.410639  s :     3.410639
      pz      :     1.062674  p :     2.952175
      px      :     0.912909
      py      :     0.976592
      dz2     :     0.002360  d :     0.080223
      dxz     :     0.014689
      dyz     :     0.015687
      dx2y2   :     0.008407
      dxy     :     0.039080
      f0      :     0.001391  f :     0.007780
      f+1     :     0.000724
      f-1     :     0.000723
      f+2     :     0.000863
      f-2     :     0.000530
      f+3     :     0.001741
      f-3     :     0.001808

 18 C s       :     3.410662  s :     3.410662
      pz      :     1.062673  p :     2.952135
      px      :     0.912866
      py      :     0.976595
      dz2     :     0.002359  d :     0.080222
      dxz     :     0.014690
      dyz     :     0.015687
      dx2y2   :     0.008406
      dxy     :     0.039079
      f0      :     0.001391  f :     0.007780
      f+1     :     0.000724
      f-1     :     0.000723
      f+2     :     0.000863
      f-2     :     0.000530
      f+3     :     0.001741
      f-3     :     0.001808

 19 C s       :     3.410647  s :     3.410647
      pz      :     1.062680  p :     2.952182
      px      :     0.912846
      py      :     0.976655
      dz2     :     0.002358  d :     0.080223
      dxz     :     0.014734
      dyz     :     0.015643
      dx2y2   :     0.008406
      dxy     :     0.039082
      f0      :     0.001391  f :     0.007780
      f+1     :     0.000723
      f-1     :     0.000723
      f+2     :     0.000863
      f-2     :     0.000530
      f+3     :     0.001736
      f-3     :     0.001813

 20 C s       :     3.303570  s :     3.303570
      pz      :     1.019370  p :     2.836405
      px      :     0.923374
      py      :     0.893661
      dz2     :     0.005179  d :     0.089093
      dxz     :     0.019421
      dyz     :     0.011300
      dx2y2   :     0.016962
      dxy     :     0.036231
      f0      :     0.001429  f :     0.008182
      f+1     :     0.000619
      f-1     :     0.000857
      f+2     :     0.001271
      f-2     :     0.000286
      f+3     :     0.001376
      f-3     :     0.002343

 21 C s       :     3.303552  s :     3.303552
      pz      :     1.019393  p :     2.836409
      px      :     0.923352
      py      :     0.893664
      dz2     :     0.005185  d :     0.089092
      dxz     :     0.019392
      dyz     :     0.011319
      dx2y2   :     0.016936
      dxy     :     0.036260
      f0      :     0.001429  f :     0.008182
      f+1     :     0.000620
      f-1     :     0.000857
      f+2     :     0.001274
      f-2     :     0.000282
      f+3     :     0.001378
      f-3     :     0.002341

 22 C s       :     3.303573  s :     3.303573
      pz      :     1.019414  p :     2.836435
      px      :     0.923356
      py      :     0.893664
      dz2     :     0.005183  d :     0.089091
      dxz     :     0.019393
      dyz     :     0.011320
      dx2y2   :     0.016936
      dxy     :     0.036259
      f0      :     0.001429  f :     0.008182
      f+1     :     0.000620
      f-1     :     0.000857
      f+2     :     0.001274
      f-2     :     0.000282
      f+3     :     0.001378
      f-3     :     0.002341

 23 C s       :     3.303535  s :     3.303535
      pz      :     1.019385  p :     2.836418
      px      :     0.923375
      py      :     0.893659
      dz2     :     0.005178  d :     0.089092
      dxz     :     0.019422
      dyz     :     0.011299
      dx2y2   :     0.016962
      dxy     :     0.036231
      f0      :     0.001429  f :     0.008182
      f+1     :     0.000619
      f-1     :     0.000858
      f+2     :     0.001271
      f-2     :     0.000286
      f+3     :     0.001376
      f-3     :     0.002343

 24 H s       :     0.873060  s :     0.873060
      pz      :     0.008481  p :     0.020301
      px      :     0.006232
      py      :     0.005587

 25 H s       :     0.872845  s :     0.872845
      pz      :     0.008390  p :     0.020301
      px      :     0.006312
      py      :     0.005600

 26 H s       :     0.873377  s :     0.873377
      pz      :     0.008566  p :     0.020311
      px      :     0.006202
      py      :     0.005543

 27 H s       :     0.872506  s :     0.872506
      pz      :     0.008305  p :     0.020291
      px      :     0.006352
      py      :     0.005633

 28 H s       :     0.872838  s :     0.872838
      pz      :     0.008469  p :     0.020301
      px      :     0.006238
      py      :     0.005594

 29 H s       :     0.873066  s :     0.873066
      pz      :     0.008402  p :     0.020301
      px      :     0.006317
      py      :     0.005582

 30 H s       :     0.872505  s :     0.872505
      pz      :     0.008385  p :     0.020291
      px      :     0.006267
      py      :     0.005639

 31 H s       :     0.873382  s :     0.873382
      pz      :     0.008486  p :     0.020311
      px      :     0.006277
      py      :     0.005549

 32 H s       :     0.844069  s :     0.844069
      pz      :     0.005408  p :     0.020415
      px      :     0.007390
      py      :     0.007617

 33 H s       :     0.844067  s :     0.844067
      pz      :     0.005407  p :     0.020415
      px      :     0.007405
      py      :     0.007603

 34 H s       :     0.844071  s :     0.844071
      pz      :     0.005407  p :     0.020415
      px      :     0.007405
      py      :     0.007603

 35 H s       :     0.844072  s :     0.844072
      pz      :     0.005408  p :     0.020415
      px      :     0.007391
      py      :     0.007617

 36 H s       :     0.730389  s :     0.730389
      pz      :     0.010372  p :     0.039097
      px      :     0.006498
      py      :     0.022226

 37 H s       :     0.730395  s :     0.730395
      pz      :     0.010373  p :     0.039097
      px      :     0.006498
      py      :     0.022226

 38 H s       :     0.845350  s :     0.845350
      pz      :     0.004934  p :     0.019981
      px      :     0.006476
      py      :     0.008572

 39 H s       :     0.845349  s :     0.845349
      pz      :     0.004933  p :     0.019981
      px      :     0.006490
      py      :     0.008558

 40 H s       :     0.845351  s :     0.845351
      pz      :     0.004933  p :     0.019981
      px      :     0.006490
      py      :     0.008558

 41 H s       :     0.845351  s :     0.845351
      pz      :     0.004934  p :     0.019981
      px      :     0.006476
      py      :     0.008572



                     *******************************
                     * LOEWDIN POPULATION ANALYSIS *
                     *******************************

----------------------
LOEWDIN ATOMIC CHARGES
----------------------
   0 N :    0.133924
   1 N :    0.133921
   2 N :    0.255044
   3 N :    0.255062
   4 C :   -0.195783
   5 C :   -0.195788
   6 C :   -0.195786
   7 C :   -0.195788
   8 C :   -0.232690
   9 C :   -0.232685
  10 C :   -0.232670
  11 C :   -0.232675
  12 C :   -0.201403
  13 C :   -0.201404
  14 C :   -0.201415
  15 C :   -0.201418
  16 C :   -0.130693
  17 C :   -0.130693
  18 C :   -0.130694
  19 C :   -0.130698
  20 C :   -0.123709
  21 C :   -0.123710
  22 C :   -0.123720
  23 C :   -0.123719
  24 H :    0.144428
  25 H :    0.144420
  26 H :    0.144549
  27 H :    0.144299
  28 H :    0.144420
  29 H :    0.144426
  30 H :    0.144299
  31 H :    0.144548
  32 H :    0.164028
  33 H :    0.164026
  34 H :    0.164027
  35 H :    0.164027
  36 H :    0.182255
  37 H :    0.182247
  38 H :    0.145799
  39 H :    0.145800
  40 H :    0.145797
  41 H :    0.145797

-------------------------------
LOEWDIN REDUCED ORBITAL CHARGES
-------------------------------
  0 N s       :     3.040012  s :     3.040012
      pz      :     1.066966  p :     3.592940
      px      :     1.408184
      py      :     1.117790
      dz2     :     0.016762  d :     0.213495
      dxz     :     0.010703
      dyz     :     0.046807
      dx2y2   :     0.062202
      dxy     :     0.077021
      f0      :     0.001159  f :     0.019628
      f+1     :     0.000762
      f-1     :     0.001841
      f+2     :     0.000281
      f-2     :     0.003621
      f+3     :     0.004314
      f-3     :     0.007650

  1 N s       :     3.040015  s :     3.040015
      pz      :     1.066971  p :     3.592943
      px      :     1.408183
      py      :     1.117789
      dz2     :     0.016762  d :     0.213493
      dxz     :     0.010703
      dyz     :     0.046806
      dx2y2   :     0.062202
      dxy     :     0.077021
      f0      :     0.001159  f :     0.019628
      f+1     :     0.000762
      f-1     :     0.001841
      f+2     :     0.000281
      f-2     :     0.003621
      f+3     :     0.004314
      f-3     :     0.007650

  2 N s       :     2.893804  s :     2.893804
      pz      :     1.331627  p :     3.594298
      px      :     1.135249
      py      :     1.127422
      dz2     :     0.014266  d :     0.238909
      dxz     :     0.049329
      dyz     :     0.012171
      dx2y2   :     0.092691
      dxy     :     0.070452
      f0      :     0.001211  f :     0.017946
      f+1     :     0.001705
      f-1     :     0.001742
      f+2     :     0.000289
      f-2     :     0.003889
      f+3     :     0.006559
      f-3     :     0.002551

  3 N s       :     2.893783  s :     2.893783
      pz      :     1.331613  p :     3.594281
      px      :     1.135251
      py      :     1.127418
      dz2     :     0.014264  d :     0.238927
      dxz     :     0.049338
      dyz     :     0.012170
      dx2y2   :     0.092700
      dxy     :     0.070455
      f0      :     0.001211  f :     0.017947
      f+1     :     0.001705
      f-1     :     0.001742
      f+2     :     0.000289
      f-2     :     0.003889
      f+3     :     0.006560
      f-3     :     0.002551

  4 C s       :     2.771274  s :     2.771274
      pz      :     1.030582  p :     3.016408
      px      :     0.990578
      py      :     0.995248
      dz2     :     0.038593  d :     0.366961
      dxz     :     0.075244
      dyz     :     0.075169
      dx2y2   :     0.089506
      dxy     :     0.088450
      f0      :     0.003805  f :     0.041139
      f+1     :     0.004219
      f-1     :     0.003976
      f+2     :     0.005352
      f-2     :     0.004485
      f+3     :     0.011599
      f-3     :     0.007703

  5 C s       :     2.771271  s :     2.771271
      pz      :     1.030572  p :     3.016404
      px      :     0.990606
      py      :     0.995226
      dz2     :     0.038672  d :     0.366973
      dxz     :     0.075295
      dyz     :     0.075032
      dx2y2   :     0.089451
      dxy     :     0.088523
      f0      :     0.003811  f :     0.041140
      f+1     :     0.004217
      f-1     :     0.003969
      f+2     :     0.005355
      f-2     :     0.004488
      f+3     :     0.011609
      f-3     :     0.007691

  6 C s       :     2.771274  s :     2.771274
      pz      :     1.030583  p :     3.016410
      px      :     0.990603
      py      :     0.995223
      dz2     :     0.038587  d :     0.366963
      dxz     :     0.075352
      dyz     :     0.075070
      dx2y2   :     0.089460
      dxy     :     0.088495
      f0      :     0.003805  f :     0.041139
      f+1     :     0.004223
      f-1     :     0.003973
      f+2     :     0.005352
      f-2     :     0.004484
      f+3     :     0.011611
      f-3     :     0.007692

  7 C s       :     2.771271  s :     2.771271
      pz      :     1.030578  p :     3.016402
      px      :     0.990574
      py      :     0.995250
      dz2     :     0.038598  d :     0.366975
      dxz     :     0.075262
      dyz     :     0.075157
      dx2y2   :     0.089506
      dxy     :     0.088452
      f0      :     0.003805  f :     0.041140
      f+1     :     0.004221
      f-1     :     0.003977
      f+2     :     0.005351
      f-2     :     0.004484
      f+3     :     0.011601
      f-3     :     0.007703

  8 C s       :     2.727216  s :     2.727216
      pz      :     0.832384  p :     2.792305
      px      :     0.967229
      py      :     0.992692
      dz2     :     0.042659  d :     0.635729
      dxz     :     0.068076
      dyz     :     0.116077
      dx2y2   :     0.214059
      dxy     :     0.194858
      f0      :     0.005013  f :     0.077440
      f+1     :     0.004414
      f-1     :     0.006047
      f+2     :     0.006888
      f-2     :     0.009979
      f+3     :     0.015278
      f-3     :     0.029820

  9 C s       :     2.727216  s :     2.727216
      pz      :     0.832393  p :     2.792303
      px      :     0.967125
      py      :     0.992784
      dz2     :     0.042671  d :     0.635727
      dxz     :     0.068095
      dyz     :     0.116057
      dx2y2   :     0.214096
      dxy     :     0.194809
      f0      :     0.005013  f :     0.077440
      f+1     :     0.004419
      f-1     :     0.006044
      f+2     :     0.006878
      f-2     :     0.009990
      f+3     :     0.015345
      f-3     :     0.029751

 10 C s       :     2.727223  s :     2.727223
      pz      :     0.832405  p :     2.792310
      px      :     0.967128
      py      :     0.992777
      dz2     :     0.042657  d :     0.635703
      dxz     :     0.068095
      dyz     :     0.116052
      dx2y2   :     0.214092
      dxy     :     0.194807
      f0      :     0.005013  f :     0.077435
      f+1     :     0.004418
      f-1     :     0.006043
      f+2     :     0.006879
      f-2     :     0.009988
      f+3     :     0.015344
      f-3     :     0.029750

 11 C s       :     2.727221  s :     2.727221
      pz      :     0.832397  p :     2.792311
      px      :     0.967227
      py      :     0.992687
      dz2     :     0.042651  d :     0.635707
      dxz     :     0.068073
      dyz     :     0.116075
      dx2y2   :     0.214051
      dxy     :     0.194857
      f0      :     0.005013  f :     0.077435
      f+1     :     0.004414
      f-1     :     0.006047
      f+2     :     0.006888
      f-2     :     0.009978
      f+3     :     0.015278
      f-3     :     0.029817

 12 C s       :     2.701514  s :     2.701514
      pz      :     0.865045  p :     2.791277
      px      :     0.956611
      py      :     0.969621
      dz2     :     0.040993  d :     0.628316
      dxz     :     0.120015
      dyz     :     0.094478
      dx2y2   :     0.177298
      dxy     :     0.195531
      f0      :     0.005259  f :     0.080297
      f+1     :     0.006387
      f-1     :     0.004701
      f+2     :     0.006691
      f-2     :     0.014897
      f+3     :     0.023673
      f-3     :     0.018688

 13 C s       :     2.701513  s :     2.701513
      pz      :     0.865053  p :     2.791276
      px      :     0.956375
      py      :     0.969848
      dz2     :     0.040978  d :     0.628317
      dxz     :     0.120056
      dyz     :     0.094445
      dx2y2   :     0.177406
      dxy     :     0.195433
      f0      :     0.005260  f :     0.080298
      f+1     :     0.006387
      f-1     :     0.004699
      f+2     :     0.006717
      f-2     :     0.014871
      f+3     :     0.023750
      f-3     :     0.018614

 14 C s       :     2.701513  s :     2.701513
      pz      :     0.865063  p :     2.791287
      px      :     0.956365
      py      :     0.969859
      dz2     :     0.040974  d :     0.628315
      dxz     :     0.120054
      dyz     :     0.094445
      dx2y2   :     0.177407
      dxy     :     0.195436
      f0      :     0.005260  f :     0.080299
      f+1     :     0.006388
      f-1     :     0.004698
      f+2     :     0.006717
      f-2     :     0.014872
      f+3     :     0.023752
      f-3     :     0.018613

 15 C s       :     2.701513  s :     2.701513
      pz      :     0.865055  p :     2.791288
      px      :     0.956601
      py      :     0.969632
      dz2     :     0.040987  d :     0.628318
      dxz     :     0.120013
      dyz     :     0.094482
      dx2y2   :     0.177303
      dxy     :     0.195533
      f0      :     0.005259  f :     0.080300
      f+1     :     0.006387
      f-1     :     0.004700
      f+2     :     0.006690
      f-2     :     0.014899
      f+3     :     0.023676
      f-3     :     0.018688

 16 C s       :     2.756110  s :     2.756110
      pz      :     0.941422  p :     2.958632
      px      :     1.000689
      py      :     1.016520
      dz2     :     0.024726  d :     0.375183
      dxz     :     0.047232
      dyz     :     0.048368
      dx2y2   :     0.096370
      dxy     :     0.158488
      f0      :     0.003253  f :     0.040768
      f+1     :     0.003946
      f-1     :     0.003922
      f+2     :     0.006250
      f-2     :     0.002150
      f+3     :     0.010641
      f-3     :     0.010606

 17 C s       :     2.756111  s :     2.756111
      pz      :     0.941424  p :     2.958633
      px      :     1.000614
      py      :     1.016595
      dz2     :     0.024730  d :     0.375180
      dxz     :     0.047094
      dyz     :     0.048501
      dx2y2   :     0.096331
      dxy     :     0.158524
      f0      :     0.003253  f :     0.040768
      f+1     :     0.003944
      f-1     :     0.003925
      f+2     :     0.006249
      f-2     :     0.002151
      f+3     :     0.010662
      f-3     :     0.010585

 18 C s       :     2.756114  s :     2.756114
      pz      :     0.941425  p :     2.958633
      px      :     1.000605
      py      :     1.016602
      dz2     :     0.024729  d :     0.375180
      dxz     :     0.047094
      dyz     :     0.048500
      dx2y2   :     0.096330
      dxy     :     0.158526
      f0      :     0.003253  f :     0.040767
      f+1     :     0.003944
      f-1     :     0.003925
      f+2     :     0.006248
      f-2     :     0.002151
      f+3     :     0.010662
      f-3     :     0.010585

 19 C s       :     2.756113  s :     2.756113
      pz      :     0.941427  p :     2.958635
      px      :     1.000681
      py      :     1.016528
      dz2     :     0.024725  d :     0.375182
      dxz     :     0.047230
      dyz     :     0.048368
      dx2y2   :     0.096368
      dxy     :     0.158491
      f0      :     0.003253  f :     0.040767
[...]
  0-1A  -> 26-1A    5.603481   45195.1   221.3   0.000002226   0.00002  -0.00403  -0.00010  -0.00003
  0-1A  -> 27-1A    5.605560   45211.9   221.2   0.000000699   0.00001   0.00225   0.00008   0.00001
  0-1A  -> 28-1A    5.645521   45534.2   219.6   0.004410376   0.03189  -0.00136   0.00530   0.17849
  0-1A  -> 29-1A    5.648181   45555.7   219.5   0.001423575   0.01029   0.00075   0.00098  -0.10142
  0-1A  -> 30-1A    5.704707   46011.6   217.3   0.000000013   0.00000   0.00002   0.00030  -0.00002

----------------------------------------------------------------------------------------------------
                     ABSORPTION SPECTRUM VIA TRANSITION VELOCITY DIPOLE MOMENTS    
----------------------------------------------------------------------------------------------------
     Transition      Energy     Energy  Wavelength fosc(P2)      P2        PX        PY        PZ   
                      (eV)      (cm-1)    (nm)                 (au**2)    (au)      (au)      (au)  
----------------------------------------------------------------------------------------------------
  0-1A  ->  1-1A    2.010371   16214.7   616.7   0.317557009   0.03519  -0.00017   0.18759   0.00021
  0-1A  ->  2-1A    2.419096   19511.3   512.5   0.072765621   0.00970   0.09850   0.00009   0.00076
  0-1A  ->  3-1A    3.431911   27680.2   361.3   1.175866625   0.22245  -0.47163  -0.00043  -0.00363
  0-1A  ->  4-1A    3.447983   27809.9   359.6   0.000008515   0.00000   0.00125  -0.00006   0.00024
  0-1A  ->  5-1A    3.517975   28374.4   352.4   0.000003903   0.00000  -0.00035   0.00079   0.00006
  0-1A  ->  6-1A    3.552087   28649.5   349.0   0.000561991   0.00011  -0.00024  -0.00091   0.01045
  0-1A  ->  7-1A    3.618525   29185.4   342.6   0.095632226   0.01908   0.13811   0.00015   0.00107
  0-1A  ->  8-1A    3.692677   29783.5   335.8   0.000000188   0.00000   0.00016  -0.00008   0.00008
  0-1A  ->  9-1A    3.706022   29891.1   334.5   1.150265284   0.23499  -0.00047   0.48476   0.00051
  0-1A  -> 10-1A    4.099699   33066.3   302.4   0.000000030   0.00000   0.00001  -0.00008  -0.00000
  0-1A  -> 11-1A    4.321006   34851.3   286.9   0.000000001   0.00000   0.00000  -0.00001   0.00001
  0-1A  -> 12-1A    4.417875   35632.6   280.6   0.000000341   0.00000   0.00004  -0.00001  -0.00029
  0-1A  -> 13-1A    4.625574   37307.8   268.0   0.000001410   0.00000  -0.00060   0.00007  -0.00000
  0-1A  -> 14-1A    4.647866   37487.6   266.8   0.000000013   0.00000   0.00001  -0.00006   0.00000
  0-1A  -> 15-1A    4.659813   37583.9   266.1   0.000015904   0.00000   0.00202   0.00004   0.00002
  0-1A  -> 16-1A    4.740617   38235.7   261.5   0.000000314   0.00000  -0.00002  -0.00001  -0.00029
  0-1A  -> 17-1A    4.759861   38390.9   260.5   0.002394385   0.00063   0.00002  -0.02506   0.00006
  0-1A  -> 18-1A    4.826597   38929.1   256.9   0.001760074   0.00047  -0.00001   0.02164   0.00015
  0-1A  -> 19-1A    4.850554   39122.4   255.6   0.000000001   0.00000  -0.00001  -0.00000  -0.00001
  0-1A  -> 20-1A    5.045449   40694.3   245.7   0.268619913   0.07471   0.00026  -0.27333  -0.00117
  0-1A  -> 21-1A    5.123002   41319.8   242.0   0.000000121   0.00000  -0.00018   0.00003  -0.00000
  0-1A  -> 22-1A    5.284136   42619.4   234.6   0.000000719   0.00000  -0.00046   0.00001  -0.00000
  0-1A  -> 23-1A    5.333847   43020.4   232.4   0.039086853   0.01149  -0.10720  -0.00010  -0.00082
  0-1A  -> 24-1A    5.443527   43905.0   227.8   0.000000001   0.00000  -0.00001  -0.00000  -0.00002
  0-1A  -> 25-1A    5.480519   44203.4   226.2   0.000001803   0.00000   0.00002  -0.00002  -0.00074
  0-1A  -> 26-1A    5.603481   45195.1   221.3   0.000002293   0.00000   0.00084   0.00002   0.00001
  0-1A  -> 27-1A    5.605560   45211.9   221.2   0.000000587   0.00000  -0.00043  -0.00002  -0.00000
  0-1A  -> 28-1A    5.645521   45534.2   219.6   0.002333819   0.00073   0.00020  -0.00098  -0.02693
  0-1A  -> 29-1A    5.648181   45555.7   219.5   0.000750682   0.00023  -0.00011  -0.00021   0.01529
  0-1A  -> 30-1A    5.704707   46011.6   217.3   0.000000024   0.00000  -0.00000  -0.00009   0.00000

------------------------------------------------------------------------------------------
                     CD SPECTRUM VIA TRANSITION ELECTRIC DIPOLE MOMENTS    
------------------------------------------------------------------------------------------
     Transition      Energy     Energy  Wavelength    R        MX        MY        MZ   
                      (eV)      (cm-1)    (nm)   (1e40*cgs)   (au)      (au)      (au)  
------------------------------------------------------------------------------------------
  0-1A  ->  1-1A    2.010371   16214.7   616.7   -0.50921   0.00001  -0.00042  -0.00001
  0-1A  ->  2-1A    2.419096   19511.3   512.5   -0.15987  -0.00030  -0.00001   0.00026
  0-1A  ->  3-1A    3.431911   27680.2   361.3   -2.38669   0.00132   0.00020   0.00035
  0-1A  ->  4-1A    3.447983   27809.9   359.6    0.09155  -0.00092   0.03745   0.11544
  0-1A  ->  5-1A    3.517975   28374.4   352.4   -0.82788   0.00004  -0.28026   0.02943
  0-1A  ->  6-1A    3.552087   28649.5   349.0    0.03755  -0.00002   0.00089   0.00099
  0-1A  ->  7-1A    3.618525   29185.4   342.6   -0.35894  -0.00072  -0.00024  -0.00057
  0-1A  ->  8-1A    3.692677   29783.5   335.8    0.16999  -0.00523   0.00294   0.67651
  0-1A  ->  9-1A    3.706022   29891.1   334.5    1.43329   0.00001   0.00084   0.00007
  0-1A  -> 10-1A    4.099699   33066.3   302.4   -0.00001  -0.00047   0.00001   0.00002
  0-1A  -> 11-1A    4.321006   34851.3   286.9    0.00001   0.00075   0.00000  -0.00003
  0-1A  -> 12-1A    4.417875   35632.6   280.6    0.80940   0.00769   0.00052  -0.99803
  0-1A  -> 13-1A    4.625574   37307.8   268.0   -0.02931   0.01758   0.00002   0.00004
  0-1A  -> 14-1A    4.647866   37487.6   266.8   -0.00014  -0.00618  -0.00000   0.00001
  0-1A  -> 15-1A    4.659813   37583.9   266.1   -0.00218  -0.00038  -0.00000  -0.00003
  0-1A  -> 16-1A    4.740617   38235.7   261.5    0.05582   0.00053   0.00139  -0.06603
  0-1A  -> 17-1A    4.759861   38390.9   260.5   -0.00477  -0.00001   0.00006   0.00000
  0-1A  -> 18-1A    4.826597   38929.1   256.9   -0.01137   0.00002  -0.00018   0.00001
  0-1A  -> 19-1A    4.850554   39122.4   255.6    0.00008  -0.00219  -0.00002  -0.00001
  0-1A  -> 20-1A    5.045449   40694.3   245.7    0.35913  -0.00003  -0.00050   0.00000
  0-1A  -> 21-1A    5.123002   41319.8   242.0    0.00000  -0.00001   0.00000   0.00005
  0-1A  -> 22-1A    5.284136   42619.4   234.6   -0.00010   0.00010  -0.00000   0.00002
  0-1A  -> 23-1A    5.333847   43020.4   232.4    0.03888  -0.00015   0.00002  -0.00000
  0-1A  -> 24-1A    5.443527   43905.0   227.8    0.00001  -0.00085   0.00010   0.00005
  0-1A  -> 25-1A    5.480519   44203.4   226.2    0.48798   0.00204   0.00197  -0.26109
  0-1A  -> 26-1A    5.603481   45195.1   221.3   -0.00056  -0.00029  -0.00001  -0.00006
  0-1A  -> 27-1A    5.605560   45211.9   221.2    0.01430  -0.01345  -0.00001  -0.00009
  0-1A  -> 28-1A    5.645521   45534.2   219.6   -0.00700   0.00000  -0.00002   0.00008
  0-1A  -> 29-1A    5.648181   45555.7   219.5    0.00390  -0.00001   0.00001   0.00008
  0-1A  -> 30-1A    5.704707   46011.6   217.3    0.00311  -0.00000  -0.02170   0.00224

------------------------------------------------------------------------------------------
                     CD SPECTRUM VIA TRANSITION VELOCITY DIPOLE MOMENTS    
------------------------------------------------------------------------------------------
     Transition      Energy     Energy  Wavelength    R        MX        MY        MZ   
                      (eV)      (cm-1)    (nm)   (1e40*cgs)   (au)      (au)      (au)  
------------------------------------------------------------------------------------------
  0-1A  ->  1-1A    2.010371   16214.7   616.7   -0.50096   0.00001  -0.00042  -0.00001
  0-1A  ->  2-1A    2.419096   19511.3   512.5   -0.15586  -0.00030  -0.00001   0.00026
  0-1A  ->  3-1A    3.431911   27680.2   361.3   -2.33349   0.00132   0.00020   0.00035
  0-1A  ->  4-1A    3.447983   27809.9   359.6    0.08773  -0.00092   0.03745   0.11544
  0-1A  ->  5-1A    3.517975   28374.4   352.4   -0.80385   0.00004  -0.28026   0.02943
  0-1A  ->  6-1A    3.552087   28649.5   349.0    0.03425  -0.00002   0.00089   0.00099
  0-1A  ->  7-1A    3.618525   29185.4   342.6   -0.35454  -0.00072  -0.00024  -0.00057
  0-1A  ->  8-1A    3.692677   29783.5   335.8    0.18701  -0.00523   0.00294   0.67651
  0-1A  ->  9-1A    3.706022   29891.1   334.5    1.40983   0.00001   0.00084   0.00007
  0-1A  -> 10-1A    4.099699   33066.3   302.4   -0.00001  -0.00047   0.00001   0.00002
  0-1A  -> 11-1A    4.321006   34851.3   286.9    0.00001   0.00075   0.00000  -0.00003
  0-1A  -> 12-1A    4.417875   35632.6   280.6    0.82750   0.00769   0.00052  -0.99803
  0-1A  -> 13-1A    4.625574   37307.8   268.0   -0.02904   0.01758   0.00002   0.00004
  0-1A  -> 14-1A    4.647866   37487.6   266.8   -0.00022  -0.00618  -0.00000   0.00001
  0-1A  -> 15-1A    4.659813   37583.9   266.1   -0.00212  -0.00038  -0.00000  -0.00003
  0-1A  -> 16-1A    4.740617   38235.7   261.5    0.05093   0.00053   0.00139  -0.06603
  0-1A  -> 17-1A    4.759861   38390.9   260.5   -0.00435  -0.00001   0.00006   0.00000
  0-1A  -> 18-1A    4.826597   38929.1   256.9   -0.01043   0.00002  -0.00018   0.00001
  0-1A  -> 19-1A    4.850554   39122.4   255.6    0.00007  -0.00219  -0.00002  -0.00001
  0-1A  -> 20-1A    5.045449   40694.3   245.7    0.34875  -0.00003  -0.00050   0.00000
  0-1A  -> 21-1A    5.123002   41319.8   242.0    0.00000  -0.00001   0.00000   0.00005
  0-1A  -> 22-1A    5.284136   42619.4   234.6   -0.00011   0.00010  -0.00000   0.00002
  0-1A  -> 23-1A    5.333847   43020.4   232.4    0.03836  -0.00015   0.00002  -0.00000
  0-1A  -> 24-1A    5.443527   43905.0   227.8    0.00001  -0.00085   0.00010   0.00005
  0-1A  -> 25-1A    5.480519   44203.4   226.2    0.45072   0.00204   0.00197  -0.26109
  0-1A  -> 26-1A    5.603481   45195.1   221.3   -0.00056  -0.00029  -0.00001  -0.00006
  0-1A  -> 27-1A    5.605560   45211.9   221.2    0.01310  -0.01345  -0.00001  -0.00009
  0-1A  -> 28-1A    5.645521   45534.2   219.6   -0.00508   0.00000  -0.00002   0.00008
  0-1A  -> 29-1A    5.648181   45555.7   219.5    0.00283  -0.00001   0.00001   0.00008
  0-1A  -> 30-1A    5.704707   46011.6   217.3    0.00423  -0.00000  -0.02170   0.00224

Total run time:     8175.321 sec

           *** ORCA-CIS/TD-DFT FINISHED WITHOUT ERROR ***
-----------------------
CIS/TD-DFT TOTAL ENERGY
-----------------------

    E(SCF)  =   -992.525706573 Eh
    DE(CIS) =      0.073879794 Eh (Root  1)
    ----------------------------- ---------
    E(tot)  =   -992.451826779 Eh


Maximum memory used throughout the entire CIS-calculation: 1618.9 MB
=> NOW LEAVING ORCA_CIS

-------------------------   --------------------
FINAL SINGLE POINT ENERGY      -992.451826778518
-------------------------   --------------------



           ************************************************************
           *        Program running with 4 parallel MPI-processes     *
           *              working on a common directory               *
           ************************************************************

------------------------------------------------------------------------------
                              ORCA PROPERTY CALCULATIONS
------------------------------------------------------------------------------

GBWName                                 ... tddft.gbw
Number of atoms                         ...     42
Number of basis functions               ...    852
Max core memory                         ...   3000 MB

Electric properties:
Dipole moment                           ... YES
Quadrupole moment                       ...  NO
Static polarizability (Dipole/Dipole)   ...  NO
Static polarizability (Dipole/Quad.)    ...  NO
Static polarizability (Quad./Quad.)     ...  NO
Static polarizability (Velocity)        ...  NO
Static hyperpolarizability              ...  NO

Atomic electric properties:
Dipole moment                           ...  NO
Quadrupole moment                       ...  NO
Static polarizability                   ...  NO

Choice of electric origin               ... Center of mass
Position of electric origin             ...    -0.003599    -0.013811     0.091660

General magnetic properties:
Magnetizability                         ...  NO

EPR properties:
g-Tensor (aka g-matrix)                 ...  NO
Zero-Field splitting spin-orbit         ...  NO
Zero-field splitting spin-spin          ...  NO
Hyperfine couplings                     ...  NO (   0 nuclei)
Quadrupole couplings                    ...  NO (   0 nuclei)
Contact density                         ...  NO (   0 nuclei)

NMR properties:
Chemical shifts                         ...  NO (   0 nuclei)
Spin-rotation constants                 ...  NO (   0 nuclei)
Spin-spin couplings                     ...  NO (   0 nuclei,    0 pairs)

Choice of magnetic origin               ... GIAO
Position of magnetic origin             ...     0.000000     0.000000     0.000000

Properties with geometric perturbations:
SCF Hessian                             ...  NO
IR spectrum                             ...  NO
VCD spectrum                            ...  NO
X-ray spectroscopy properties:
SCF XES/XAS/RIXS spectra                ...  NO

SCF SOC stabilization energy            ...  NO
Diagonal Born-Oppenheimer correction    ...  NO

-------------
DIPOLE MOMENT
-------------

Method             : SCF
Type of density    : Electron Density
Multiplicity       :   1
Irrep              :   0
Energy             :  -992.5257065728501402 Eh
Basis              : AO
                                X                 Y                 Z
Electronic contribution:      0.000003234      -0.000384139      -0.000367860
Nuclear contribution   :     -0.000113296       0.000066341       0.000274503
                        -----------------------------------------
Total Dipole Moment    :     -0.000110062      -0.000317799      -0.000093357
                        -----------------------------------------
Magnitude (a.u.)       :      0.000349035
Magnitude (Debye)      :      0.000887176



--------------------
Rotational spectrum 
--------------------
 
Rotational constants in cm-1:             0.008883             0.008130             0.004258 
Rotational constants in MHz :           266.312298           243.718156           127.657012 

Dipole components along the rotational axes: 
x,y,z [a.u.] :    -0.000111     0.000318    -0.000092 
x,y,z [Debye]:    -0.000282     0.000808    -0.000234 

 

Dipole moment calculation done in   0.1 sec 

Maximum memory used throughout the entire PROP-calculation: 86.7 MB

--------------------------------
SUGGESTED CITATIONS FOR THIS RUN
--------------------------------

Below you find a list of papers that are relevant to this ORCA run
We neither can nor want to force you to cite these papers, but we appreciate if you do
You receive ORCA, which is the product of decades of hard work by many enthusiastic individuals, for free
The only thing we kindly ask in return is that you cite our papers,
We deeply appreciate it, if you show your appreciation for ORCA by not just citing the generic ORCA reference.

Please note that relegating all ORCA citations to the supporting information does *not* help us.
SI sections are not indexed - citations you put there will not count into any citation statistics
But we need these citations in order to attract the funding resources that allow us to do what we are doing

Therefore, if you are a happy ORCA user, please consider citing a few of the papers listed below in the main body of your paper

In addition to the list printed below, the program has created the file tddft.bibtex that contains the list in bibtex format
You can import this file easily into all common literature databanks and citation aid programs

It goes without saying that in many instances, there are alternative algorithms to achieve similar
results as the ones you have gotten from ORCA. It is, of course, also the case that in some instances
ORCA just re-implements algorithms worked out by others. We are fully aware of that and we are also
fully appreciative of our colleagues work. Hence this citation list should not be read as indicating
that the listed papers, which are focused on our own work, are the only ones worth citing. It simply
meant to make it easier for users to cite ORCA specific papers. It is not a substitute for doing your
own literature research and citing the relevant literature in a scientifically appropriate manner.

List of essential papers. We consider these as the minimum necessary citations

  1. Neese, F.
     Software update: the ORCA program system, version 6.0
     WIRES Comput. Molec. Sci. 2025 15(1), e70019
     doi.org/10.1002/wcms.70019

List of papers to cite with high priority. The work reported in these papers was absolutely
necessary for this run to complete.
Our perspective: the developers of density functionals and basis sets usually get cited in chemistry papers
Good! But without the algorithms to do something with them, the functionals or basis sets would not do anything.
Hence, in our opinion, the algorithm design and method developments papers are equally worthy of getting cited

  1. Neese, F.; Olbrich, G.
     Efficient use of the resolution of the identity approximation in time-dependent density functional calculations with hybrid density functionals
     Chem. Phys. Lett. 2002 362 , 170-178
     doi.org/10.1016/s0009-2614(02)01053-9
  2. Neese, F.
     An improvement of the resolution of the identity approximation for the formation of the Coulomb matrix
     J. Comp. Chem. 2003 24(14), 1740-1747
     doi.org/10.1002/jcc.10318
  3. Garcia-Rates, M.; Neese, F.
     Effect of the Solute Cavity on the Solvation Energy and its Derivatives within the Framework of the Gaussian Charge Scheme
     J. Comput. Chem. 2020 41 , 922-939
     doi.org/10.1002/jcc.26139
  4. Neese, F.
     The SHARK Integral Generation and Digestion System
     J. Comp. Chem. 2022 44(3), 381
     doi.org/10.1002/jcc.26942

List of suggested additional citations. These are papers that are important in the 'surrounding' of 
of this run, or papers that preceded the highly important papers. If you like your results we are grateful for a citation.

  1. Neese, F.
     The ORCA program system
     WIRES Comput. Molec. Sci. 2012 2(1), 73-78
     doi.org/10.1002/wcms.81
  2. Neese, F.
     Software update: the ORCA program system, version 4.0
     WIRES Comput. Molec. Sci. 2018 8(1), 1-6
     doi.org/10.1002/wcms.1327
  3. Neese, F.; Wennmohs, F.; Becker, U.; Riplinger, C.
     The ORCA quantum chemistry program package
     J. Chem. Phys. 2020 152(22), 224108
     doi.org/10.1063/5.0004608
  4. Neese, F.
     Software update: The ORCA program system—Version 5.0
     WIRES Comput. Molec. Sci. 2022 12(1), e1606
     doi.org/10.1002/wcms.1606

List of optional additional citations

  1. Neese, F.
     Approximate second-order SCF convergence for spin unrestricted wavefunctions
     Chem. Phys. Lett. 2000 325(1-3), 93-98
     doi.org/10.1016/s0009-2614(00)00662-x

Timings for individual modules:

Sum of individual times          ...     8280.528 sec (= 138.009 min)
Startup calculation              ...       15.444 sec (=   0.257 min)   0.2 %
SCF iterations                   ...       85.923 sec (=   1.432 min)   1.0 %
Property integrals               ...        1.272 sec (=   0.021 min)   0.0 %
Property calculations            ...        1.286 sec (=   0.021 min)   0.0 %
CIS module                       ...     8176.603 sec (= 136.277 min)  98.7 %
                             ****ORCA TERMINATED NORMALLY****
TOTAL RUN TIME: 0 days 2 hours 18 minutes 1 seconds 219 msec
