
                                 *****************
                                 * O   R   C   A *
                                 *****************

                                            #,                                       
                                            ###                                      
                                            ####                                     
                                            #####                                    
                                            ######                                   
                                           ########,                                 
                                     ,,################,,,,,                         
                               ,,#################################,,                 
                          ,,##########################################,,             
                       ,#########################################, ''#####,          
                    ,#############################################,,   '####,        
                  ,##################################################,,,,####,       
                ,###########''''           ''''###############################       
              ,#####''   ,,,,##########,,,,          '''####'''          '####       
            ,##' ,,,,###########################,,,                        '##       
           ' ,,###''''                  '''############,,,                           
         ,,##''                                '''############,,,,        ,,,,,,###''
      ,#''                                            '''#######################'''  
     '                                                          ''''####''''         
             ,#######,   #######,   ,#######,      ##                                
            ,#'     '#,  ##    ##  ,#'     '#,    #''#        ,####,    ,#,          
            ##       ##  ##   ,#'  ##            #'  '#       #'       ,# #          
            ##       ##  #######   ##           ,######,      #####,      #          
            '#,     ,#'  ##    ##  '#,     ,#' ,#      #,     #,   #      #          
             '#######'   ##     ##  '#######'  #'      '#     '####' #    #          



                #########################################################
                #                        -***-                          #
                #          Department of theory and spectroscopy        #
                #                                                       #
                #                      Frank Neese                      #
                #                                                       #
                #     Directorship, Architecture, Infrastructure        #
                #                    SHARK, DRIVERS                     #
                #        Core code/Algorithms in most modules           #
                #                                                       #
                #        Max Planck Institute fuer Kohlenforschung      #
                #                Kaiser Wilhelm Platz 1                 #
                #                 D-45470 Muelheim/Ruhr                 #
                #                      Germany                          #
                #                                                       #
                #                  All rights reserved                  #
                #                        -***-                          #
                #########################################################


                         Program Version 6.1.1  -  RELEASE   -
                                (GIT: $487d211c$)
                          ($2025-11-21 10:33:24 +0100$)


 With contributions from (in alphabetic order):
[Max-Planck-Institut fuer Kohlenforschung]                               
  Daniel Aravena         : Magnetic Suceptibility                        
  Michael Atanasov       : Ab Initio Ligand Field Theory (pilot matlab implementation)
  Alexander A. Auer      : GIAO ZORA, VPT2 properties, NMR spectrum      
  Ute Becker             : All parallelization in ORCA, NUMFREQ, NUMCALC 
  Giovanni Bistoni       : ED, misc. LED, open-shell LED, HFLD           
  Dmytro Bykov           : pre 5.0 version of the SCF Hessian            
  Marcos Casanova-Páez   : Triplet and SCS-CIS(D). UHF-(DLPNO)-IP/EA/STEOM-CCSD. UHF-CVS-IP/STEOM-CCSD   
  Vijay G. Chilkuri      : MRCI spin determinant printing, contributions to CSF-ICE 
  Pauline Colinet        : FMM embedding                                 
  Dipayan Datta          : RHF DLPNO-CCSD density                        
  Achintya Kumar Dutta   : EOM-CC, STEOM-CC                              
  Nicolas Foglia         : Exact transition moments, OPA infrastructure, MCD improvements    
  Dmitry Ganyushin       : Spin-Orbit,Spin-Spin,Magnetic field MRCI      
  Miquel Garcia-Rates    : C-PCM and meta-GGA Hessian, CCSD/C-PCM, Gaussian charge scheme 
  Tiago L. C. Gouveia    : GS-ROHF, GS-ROCIS                             
  Yang Guo               : DLPNO-NEVPT2, F12-NEVPT2, CIM, IAO-localization        
  Andreas Hansen         : Spin unrestricted coupled pair/coupled cluster methods 
  Ingolf Harden          : AUTO-CI MPn and infrastructure                
  Benjamin Helmich-Paris : MC-RPA, TRAH-(SCF,CASSCF), AVAS, COSX integrals, SCF dyn. polar., MC-PDFT, srDFT 
  Lee Huntington         : MR-EOM, pCC                                   
  Robert Izsak           : Overlap fitted RIJCOSX, COSX-SCS-MP3, EOM     
  Riya Kayal             : Wick's Theorem for AUTO-CI, AUTO-CI UHF-CCSDT 
  Emily Kempfer          : AUTO-CI RHF CISDT and CCSDT, approximate NEVPT4
  Christian Kollmar      : KDIIS, OOCD, Brueckner-CCSD(T), CCSD density, CASPT2, CASPT2-K, improved NEVPT2 
  Axel Koslowski         : Symmetry handling                             
  Simone Kossmann        : meta-GGA functionals, TD-DFT gradient, OOMP2, (MP2 Hessian; deprecated post 5.0) 
  Lucas Lang             : DCDCAS, Hyperfine gauge corrections, ICE-SOC+SSC
  Marvin Lechner         : AUTO-CI (C++ implementation), FIC-MRCC        
  Spencer Leger          : CASSCF response                               
  Dagmar Lenk            : GEPOL surface, SMD, ORCA-2-JSON               
  Dimitrios Liakos       : Extrapolation schemes; Compound Job, Property file
  Dimitrios Manganas     : Further ROCIS development; embedding schemes. LFT, Crystal Embedding 
  Dimitrios Pantazis     : SARC Basis sets                               
  Anastasios Papadopoulos: AUTO-CI, single reference methods and gradients 
  Taras Petrenko         : pre 6.0 DFT Hessian and TD-DFT gradient,  ECA, NRVS 
  Petra Pikulova         : Analytic Raman intensities                    
  Peter Pinski           : DLPNO-MP2, DLPNO-MP2 Gradient                 
  Shashank Vittal Rao    : ES-AILFT, MagRelax                            
  Christoph Reimann      : Effective Core Potentials                     
  Marius Retegan         : Local ZFS, SOC                                
  Christoph Riplinger    : Optimizer, TS searches, QM/MM, DLPNO-CCSD(T), (RO)-DLPNO pert. Triples 
  Michael Roemelt        : Original ROCIS implementation, recursive CI coupling coefficients
  Masaaki Saitow         : Open-shell DLPNO-CCSD energy and density      
  Barbara Sandhoefer     : DKH picture change effects                    
  Yorick L. A. Schmerwitz: GMF and freeze-and-release deltaSCF, NEB S-IDPP initial path                    
  Kantharuban Sivalingam : CASSCF convergence/infrastructure, NEVPT2, NEVPT3, NEVPT4(SD), FIC-MRCI and CEPA variants
  Bernardo de Souza      : ESD, SOC TD-DFT                               
  Georgi L. Stoychev     : AutoAux, RI-MP2 NMR, DLPNO-MP2 response, X2C  
  Van Anh Tran           : RI-MP2 g-tensors                              
  Willem Van den Heuvel  : Paramagnetic NMR                              
  Zikuan Wang            : NOTCH, Electric field optimization            
  Frank Wennmohs         : Technical directorship and infrastructure     
  Hang Xu                : AUTO-CI-Response properties                   
                                                                         
[FACCTs GmbH]                                                            
  Markus Bursch, Nicolas Foglia, Miquel Garcia-Rates, Ingolf Harden, Hagen Neugebauer, Anastasios Papadopoulos, 
  Christoph Riplinger, Bernardo de Souza, Georgi L. Stoychev                                                    
                                                                 
  APM, various basis sets, CI-OPT, improved COSX, DLPNO-Multilevel,           
  DOCKER, DRACO, updates on ESD, Fragmentator, GOAT, IRC, LR-CPCM, L-BFGS, MBIS, meta-GGA TD-DFT gradient, ML-optimized integration grids, 
  MM, NACMEs, nearIR, NEB, NEB-TS, NL-DFT gradient (VV10), 2- and 3-layer-ONIOM, interface openCOSMO-RS, QMMM,   
  Crystal-QMMM, RESP, rigid body optimization, SF, symmetry and pop. for TD-DFT, various functionals, SOLVATOR                                   
                                                                         
[Other institutions]                                                     
  V. Asgeirsson          : NEB                                           
  Christoph Bannwarth    : sTDA-DFT, sTD-DFT, PBEh-3c, B97-3c, D3        
  Giovanni Bistoni       : ETS/NOCV, ADLD/ADEX, COVALED                  
  Martin Brehm           : Molecular dynamics                            
  Ronald Cardenas        : ETS/NOCV                                      
  Martina Colucci        : COVALED                                       
  Sebastian Ehlert       : rSCAN, r2SCAN, r2SCAN-3c, D4, dhf basis sets  
  Marvin Friede          : D4 for Fr, Ra, Ac-Lr                          
  Lars Goerigk           : TD-DFT with DH, B97 family of functionals     
  Stefan Grimme          : VdW corrections, initial TS optimization, DFT functionals, gCP, sTDA/sTD-DF 
  Waldemar Hujo          : DFT-NL                                        
  H. Jonsson             : NEB                                           
  Holger Kruse           : gCP                                           
  Marcel Mueller         : wB97X-3c, vDZP basis set                      
  Hagen Neugebauer       : wr2SCAN, Native XTB                           
  Gianluca Regni         : ADLD/ADEX                                     
  Tobias Risthaus        : pre 6.0 range-separated hybrid DFT and stability analysis
  Lukas Wittmann         : regularized MP2, r2SCAN double-hybrids, wr2SCAN        
                                                                         
We gratefully acknowledge several colleagues who have allowed us to      
interface, adapt or use parts of their codes:                            
  Ed Valeev, F. Pavosevic, A. Kumar             : LibInt (2-el integral package), F12 methods 
  Garnet Chan, S. Sharma, J. Yang, R. Olivares  : DMRG                   
  Ulf Ekstrom                                   : XCFun DFT Library      
  Mihaly Kallay                                 : mrcc  (arbitrary order and MRCC methods)
  Frank Weinhold                                : gennbo (NPA and NBO analysis)           
  Simon Mueller                                 : openCOSMO-RS                            
  Christopher J. Cramer and Donald G. Truhlar   : smd solvation model                     
  S Lehtola, MJT Oliveira, MAL Marques          : LibXC Library                           
  Liviu Ungur et al                             : ANISO software                          


 Your calculation uses the libint2 library for the computation of 2-el integrals
 For citations please refer to: http://libint.valeyev.net

 Your ORCA version has been built with support for libXC version: 7.0.0
 For citations please refer to: https://libxc.gitlab.io

 This ORCA versions uses:
   CBLAS   interface :  Fast vector & matrix operations
   LAPACKE interface :  Fast linear algebra routines
   SCALAPACK package :  Parallel linear algebra routines
   Shared memory     :  Shared parallel matrices
   BLAS/LAPACK       :  OpenBLAS 0.3.29  USE64BITINT DYNAMIC_ARCH NO_AFFINITY Haswell SINGLE_THREADED
        Core in use  :  Haswell
   Copyright (c) 2011-2014, The OpenBLAS Project


  ***********************************
  * Starting time: Sat Jul  4 18:05:06 2026
  * Host name:     steezy
  * Process ID:    1141250
  * Working dir.:  /home/jannes/chlorophyll-ladder/006-core-ladder/bacteriochlorin/03_tddft_ch2cl2/pbe0
  ***********************************

NOTE: MaxCore=3000 MB was set to SCF,MP2,MDCI,CIPSI,MRCI,RASCI and CIS
      => If you want to overwrite this, your respective input block should be placed after the MaxCore statement


***************************************
The coordinates will be read from file: /home/jannes/chlorophyll-ladder/006-core-ladder/bacteriochlorin/01_opt/bacteriochlorin_opt_b3lypd4_tzvp.xyz
***************************************


================================================================================

----- Orbital basis set information -----
Your calculation utilizes the basis: def2-TZVP
   F. Weigend and R. Ahlrichs, Phys. Chem. Chem. Phys. 7, 3297 (2005).

----- AuxJ basis set information -----
Your calculation utilizes the auxiliary basis: def2/J
   H-Rn: F. Weigend, Phys. Chem. Chem. Phys. 8, 1057 (2006).
   Fr-Lr: K. Eichkorn, F. Weigend, O. Treutler, R. Ahlrichs; Theor. Chem. Acc. 97, 119 (1997).

================================================================================
                                        WARNINGS
                       Please study these warnings very carefully!
================================================================================

WARNING: Old DensityContainer found on disk!
         Will remove this file - 
         If you want to keep old densities, please start your calculation with a different basename. 


WARNING: CIS/ROCIS methods need fully converged wavefunctions
  ===> : Setting SCFConvForced true
         You can overwrite this default with %scf ConvForced false 


================================================================================
                                       INPUT FILE
================================================================================
NAME = tddft.inp
|  1> %pal nprocs 4 end
|  2> %maxcore 3000
|  3> ! PBE0 def2-TZVP def2/J RIJCOSX DefGrid3 TightSCF CPCM(CH2Cl2)
|  4> %tddft
|  5>   nroots 30
|  6>   tda false
|  7>   triplets false
|  8> end
|  9> * xyzfile 0 1 /home/jannes/chlorophyll-ladder/006-core-ladder/bacteriochlorin/01_opt/bacteriochlorin_opt_b3lypd4_tzvp.xyz
| 10> 
| 11>                          ****END OF INPUT****
================================================================================

                       ****************************
                       * Single Point Calculation *
                       ****************************

---------------------------------
CARTESIAN COORDINATES (ANGSTROEM)
---------------------------------
  N     -2.131412   -0.009265    0.032172
  N      2.127586   -0.005444    0.064802
  N      0.000040   -2.091714    0.051036
  N     -0.003835    2.077181    0.045782
  C     -4.387102   -0.778213    0.013758
  C      4.384652   -0.770130    0.089686
  C     -4.388540    0.755536    0.015653
  C      4.383316    0.763535    0.074833
  C     -2.902846   -1.110617    0.025018
  C      2.901084   -1.105349    0.072960
  C     -2.904906    1.090705    0.027297
  C      2.899036    1.095964    0.068653
  C     -1.127031   -2.870559    0.036698
  C      1.128578   -2.868549    0.056111
  C     -1.132389    2.853974    0.042869
  C      1.123252    2.856000    0.058324
  C     -2.444220   -2.415686    0.027064
  C      2.444908   -2.411274    0.068798
  C     -2.448734    2.396618    0.032228
  C      2.440445    2.401034    0.065913
  C     -0.684322   -4.222404    0.031297
  C      0.688446   -4.221180    0.043188
  C     -0.692255    4.206595    0.055320
  C      0.680553    4.207830    0.064664
  H     -4.874413   -1.199174   -0.868103
  H     -4.888191   -1.201433    0.886742
  H      4.866168   -1.181777    0.979204
  H      4.892941   -1.200689   -0.775400
  H     -4.876916    1.177784   -0.864978
  H     -4.890163    1.175629    0.889862
  H      4.877404    1.194980    0.947676
  H      4.877711    1.176156   -0.807129
  H     -3.197095   -3.194415    0.018208
  H      3.199257   -3.188609    0.073971
  H     -3.203105    3.173945    0.029451
  H      3.193369    3.179739    0.072597
  H     -0.000955   -1.084944    0.069219
  H     -0.002847    1.070445    0.027203
  H     -1.341762   -5.076648    0.018452
  H      1.347534   -5.074248    0.041693
  H     -1.351322    5.059677    0.058203
  H      1.337982    5.062096    0.076507

----------------------------
CARTESIAN COORDINATES (A.U.)
----------------------------
  NO LB      ZA    FRAG     MASS         X           Y           Z
   0 N     7.0000    0    14.007   -4.027786   -0.017508    0.060797
   1 N     7.0000    0    14.007    4.020555   -0.010287    0.122458
   2 N     7.0000    0    14.007    0.000076   -3.952767    0.096444
   3 N     7.0000    0    14.007   -0.007246    3.925303    0.086515
   4 C     6.0000    0    12.011   -8.290422   -1.470610    0.025999
   5 C     6.0000    0    12.011    8.285791   -1.455336    0.169482
   6 C     6.0000    0    12.011   -8.293139    1.427757    0.029579
   7 C     6.0000    0    12.011    8.283266    1.442873    0.141415
   8 C     6.0000    0    12.011   -5.485584   -2.098762    0.047278
   9 C     6.0000    0    12.011    5.482255   -2.088808    0.137874
  10 C     6.0000    0    12.011   -5.489477    2.061134    0.051585
  11 C     6.0000    0    12.011    5.478383    2.071071    0.129735
  12 C     6.0000    0    12.011   -2.129780   -5.424569    0.069348
  13 C     6.0000    0    12.011    2.132703   -5.420773    0.106034
  14 C     6.0000    0    12.011   -2.139906    5.393229    0.081011
  15 C     6.0000    0    12.011    2.122639    5.397058    0.110216
  16 C     6.0000    0    12.011   -4.618906   -4.564984    0.051143
  17 C     6.0000    0    12.011    4.620206   -4.556648    0.130009
  18 C     6.0000    0    12.011   -4.627436    4.528951    0.060901
  19 C     6.0000    0    12.011    4.611773    4.537297    0.124558
  20 C     6.0000    0    12.011   -1.293181   -7.979187    0.059142
  21 C     6.0000    0    12.011    1.300974   -7.976873    0.081614
  22 C     6.0000    0    12.011   -1.308173    7.949313    0.104540
  23 C     6.0000    0    12.011    1.286059    7.951646    0.122197
  24 H     1.0000    0     1.008   -9.211305   -2.266110   -1.640476
  25 H     1.0000    0     1.008   -9.237342   -2.270380    1.675699
  26 H     1.0000    0     1.008    9.195725   -2.233235    1.850427
  27 H     1.0000    0     1.008    9.246319   -2.268974   -1.465294
  28 H     1.0000    0     1.008   -9.216036    2.225689   -1.634572
  29 H     1.0000    0     1.008   -9.241068    2.221618    1.681595
  30 H     1.0000    0     1.008    9.216957    2.258186    1.790848
  31 H     1.0000    0     1.008    9.217539    2.222613   -1.525252
  32 H     1.0000    0     1.008   -6.041635   -6.036570    0.034408
  33 H     1.0000    0     1.008    6.045720   -6.025599    0.139786
  34 H     1.0000    0     1.008   -6.052992    5.997887    0.055654
  35 H     1.0000    0     1.008    6.034593    6.008836    0.137188
  36 H     1.0000    0     1.008   -0.001804   -2.050246    0.130805
  37 H     1.0000    0     1.008   -0.005380    2.022848    0.051406
  38 H     1.0000    0     1.008   -2.535563   -9.593475    0.034869
  39 H     1.0000    0     1.008    2.546470   -9.588939    0.078788
  40 H     1.0000    0     1.008   -2.553629    9.561403    0.109988
  41 H     1.0000    0     1.008    2.528419    9.565976    0.144577

--------------------------------
INTERNAL COORDINATES (ANGSTROEM)
--------------------------------
 N      0   0   0     0.000000000000     0.00000000     0.00000000
 N      1   0   0     4.259125255101     0.00000000     0.00000000
 N      2   1   0     2.979793073612    44.38682812     0.00000000
 N      1   2   3     2.979937588325    44.38882278   180.00431492
 C      1   2   3     2.383224331891   161.22809761   359.84573394
 C      2   1   3     2.383214003440   161.23248144   359.50233838
 C      5   1   2     1.533751430147    71.22986369   180.01419164
 C      6   2   1     1.533738243799    71.22972948   180.01356821
 C      1   2   3     1.344670180013   125.06153963   359.86560291
 C      2   1   3     1.344677722639   125.06635837   359.95346450
 C      1   2   3     1.344711972034   125.06380517   179.87564624
 C      2   1   3     1.344710848961   125.05982141   179.96244185
 C      3   2   1     1.370070404362   170.20155793     1.63404683
 C      3   2   1     1.370071299641    78.97977972   179.80758086
 C      4   1   2     1.370055693583    78.98028333   180.28705742
 C      4   1   2     1.370051411824   170.20050419   358.79325121
 C      9   1   2     1.383309867927   125.62733382     0.00000000
 C     10   2   1     1.383312771574   125.62637910     0.16888808
 C     11   1   2     1.383302371438   125.62886297     0.00000000
 C     12   2   1     1.383300910147   125.63008454     0.16389811
 C     13   3  14     1.422500103026   106.51427545   359.95175657
 C     21  13   3     1.372819871769   108.07890070     0.03216577
 C     15   4   1     1.422482985703   106.51359629   179.68364988
 C     23  15   4     1.372840900539   108.07850459     0.02922486
 H      5   1   2     1.091951320565   123.57436885   285.31314714
 H      5   1   2     1.091927252438   123.58847392    74.71153694
 H      6   2   1     1.092040481764   123.16475135   285.31648811
 H      6   2   1     1.091839600997   123.99708756    74.71334140
 H      7   5   1     1.091931643407   112.71330269   119.42108336
 H      7   5   1     1.091945227046   112.71447592   240.60097410
 H      8   6   2     1.091843399771   112.76786613   119.85885046
 H      8   6   2     1.092034883831   112.65954529   241.03998255
 H     17   9   1     1.083198875997   116.60285971   180.13059775
 H     18  10   2     1.083198729248   116.60342035   179.84122245
 H     19  11   1     1.083200322095   116.60279398   180.13536402
 H     20  12   2     1.083199329200   116.60191752   179.83097021
 H      3   2   1     1.006935583970    45.62088712   358.45420150
 H      4   1   2     1.006907456919    45.61881323     1.58342957
 H     21  13   3     1.078019246471   124.28481501   180.11702728
 H     22  21  13     1.078019347289   127.63631014   180.09222208
 H     23  15   4     1.078018952298   124.28677920   180.11924900
 H     24  23  15     1.078018487835   127.63449325   180.09388479

---------------------------
INTERNAL COORDINATES (A.U.)
---------------------------
 N      0   0   0     0.000000000000     0.00000000     0.00000000
 N      1   0   0     8.048580302209     0.00000000     0.00000000
 N      2   1   0     5.630992844881    44.38682812     0.00000000
 N      1   2   3     5.631265938112    44.38882278   180.00431492
 C      1   2   3     4.503641302972   161.22809761   359.84573394
 C      2   1   3     4.503621785027   161.23248144   359.50233838
 C      5   1   2     2.898370160487    71.22986369   180.01419164
 C      6   2   1     2.898345241901    71.22972948   180.01356821
 C      1   2   3     2.541058380676   125.06153963   359.86560291
 C      2   1   3     2.541072634173   125.06635837   359.95346450
 C      1   2   3     2.541137356150   125.06380517   179.87564624
 C      2   1   3     2.541135233849   125.05982141   179.96244185
 C      3   2   1     2.589057848435   170.20155793     1.63404683
 C      3   2   1     2.589059540267    78.97977972   179.80758086
 C      4   1   2     2.589030049091    78.98028333   180.28705742
 C      4   1   2     2.589021957739   170.20050419   358.79325121
 C      9   1   2     2.614076808732   125.62733382     0.00000000
 C     10   2   1     2.614082295830   125.62637910     0.16888808
 C     11   1   2     2.614062642421   125.62886297     0.00000000
 C     12   2   1     2.614059880982   125.63008454     0.16389811
 C     13   3  14     2.688135620194   106.51427545   359.95175657
 C     21  13   3     2.594253588848   108.07890070     0.03216577
 C     15   4   1     2.688103273141   106.51359629   179.68364988
 C     23  15   4     2.594293327464   108.07850459     0.02922486
 H      5   1   2     2.063488947441   123.57436885   285.31314714
 H      5   1   2     2.063443465274   123.58847392    74.71153694
 H      6   2   1     2.063657437689   123.16475135   285.31648811
 H      6   2   1     2.063277828053   123.99708756    74.71334140
 H      7   5   1     2.063451763002   112.71330269   119.42108336
 H      7   5   1     2.063477432359   112.71447592   240.60097410
 H      8   6   2     2.063285006698   112.76786613   119.85885046
 H      8   6   2     2.063646859130   112.65954529   241.03998255
 H     17   9   1     2.046949224206   116.60285971   180.13059775
 H     18  10   2     2.046948946890   116.60342035   179.84122245
 H     19  11   1     2.046951956936   116.60279398   180.13536402
 H     20  12   2     2.046950080635   116.60191752   179.83097021
 H      3   2   1     1.902832488203    45.62088712   358.45420150
 H      4   1   2     1.902779335779    45.61881323     1.58342957
 H     21  13   3     2.037161142927   124.28481501   180.11702728
 H     22  21  13     2.037161333444   127.63631014   180.09222208
 H     23  15   4     2.037160587019   124.28677920   180.11924900
 H     24  23  15     2.037159709312   127.63449325   180.09388479

---------------------
BASIS SET INFORMATION
---------------------
There are 3 groups of distinct atoms

 Group   1 Type N   : 11s6p2d1f contracted to 5s3p2d1f pattern {62111/411/11/1}
 Group   2 Type C   : 11s6p2d1f contracted to 5s3p2d1f pattern {62111/411/11/1}
 Group   3 Type H   : 5s1p contracted to 3s1p pattern {311/1}

Atom   0N    basis set group =>   1
Atom   1N    basis set group =>   1
Atom   2N    basis set group =>   1
Atom   3N    basis set group =>   1
Atom   4C    basis set group =>   2
Atom   5C    basis set group =>   2
Atom   6C    basis set group =>   2
Atom   7C    basis set group =>   2
Atom   8C    basis set group =>   2
Atom   9C    basis set group =>   2
Atom  10C    basis set group =>   2
Atom  11C    basis set group =>   2
Atom  12C    basis set group =>   2
Atom  13C    basis set group =>   2
Atom  14C    basis set group =>   2
Atom  15C    basis set group =>   2
Atom  16C    basis set group =>   2
Atom  17C    basis set group =>   2
Atom  18C    basis set group =>   2
Atom  19C    basis set group =>   2
Atom  20C    basis set group =>   2
Atom  21C    basis set group =>   2
Atom  22C    basis set group =>   2
Atom  23C    basis set group =>   2
Atom  24H    basis set group =>   3
Atom  25H    basis set group =>   3
Atom  26H    basis set group =>   3
Atom  27H    basis set group =>   3
Atom  28H    basis set group =>   3
Atom  29H    basis set group =>   3
Atom  30H    basis set group =>   3
Atom  31H    basis set group =>   3
Atom  32H    basis set group =>   3
Atom  33H    basis set group =>   3
Atom  34H    basis set group =>   3
Atom  35H    basis set group =>   3
Atom  36H    basis set group =>   3
Atom  37H    basis set group =>   3
Atom  38H    basis set group =>   3
Atom  39H    basis set group =>   3
Atom  40H    basis set group =>   3
Atom  41H    basis set group =>   3
---------------------------------
AUXILIARY/J BASIS SET INFORMATION
---------------------------------
There are 3 groups of distinct atoms

 Group   1 Type N   : 12s5p4d2f1g contracted to 6s4p3d1f1g pattern {711111/2111/211/2/1}
 Group   2 Type C   : 12s5p4d2f1g contracted to 6s4p3d1f1g pattern {711111/2111/211/2/1}
 Group   3 Type H   : 5s2p1d contracted to 3s1p1d pattern {311/2/1}

Atom   0N    basis set group =>   1
Atom   1N    basis set group =>   1
Atom   2N    basis set group =>   1
Atom   3N    basis set group =>   1
Atom   4C    basis set group =>   2
Atom   5C    basis set group =>   2
Atom   6C    basis set group =>   2
Atom   7C    basis set group =>   2
Atom   8C    basis set group =>   2
Atom   9C    basis set group =>   2
Atom  10C    basis set group =>   2
Atom  11C    basis set group =>   2
Atom  12C    basis set group =>   2
Atom  13C    basis set group =>   2
Atom  14C    basis set group =>   2
Atom  15C    basis set group =>   2
Atom  16C    basis set group =>   2
Atom  17C    basis set group =>   2
Atom  18C    basis set group =>   2
Atom  19C    basis set group =>   2
Atom  20C    basis set group =>   2
Atom  21C    basis set group =>   2
Atom  22C    basis set group =>   2
Atom  23C    basis set group =>   2
Atom  24H    basis set group =>   3
Atom  25H    basis set group =>   3
Atom  26H    basis set group =>   3
Atom  27H    basis set group =>   3
Atom  28H    basis set group =>   3
Atom  29H    basis set group =>   3
Atom  30H    basis set group =>   3
Atom  31H    basis set group =>   3
Atom  32H    basis set group =>   3
Atom  33H    basis set group =>   3
Atom  34H    basis set group =>   3
Atom  35H    basis set group =>   3
Atom  36H    basis set group =>   3
Atom  37H    basis set group =>   3
Atom  38H    basis set group =>   3
Atom  39H    basis set group =>   3
Atom  40H    basis set group =>   3
Atom  41H    basis set group =>   3

Checking for AutoStart:
The File: tddft.gbw exists
Trying to determine its content:
     ... Fine, the file contains calculation information
     ... Fine, the calculation information was read
     ... Fine, the file contains a basis set
     ... Fine, the basis set was read
     ... Fine, the file contains a geometry
     ... Fine, the geometry was read
     ... Fine, the file contains a set of orbitals
     ... Fine, the orbitals can be read
     => possible old guess file was deleted
     => GBW file was renamed to GES file
     => GES file is set as startup file
     => Guess is set to MORead
     ... now leaving AutoStart



           ************************************************************
           *        Program running with 4 parallel MPI-processes     *
           *              working on a common directory               *
           ************************************************************
------------------------------------------------------------------------------
                             ORCA STARTUP CALCULATIONS
                           -- RI-GTO INTEGRALS CHOSEN --
------------------------------------------------------------------------------
------------------------------------------------------------------------------
                   ___                                                        
                  /   \      - P O W E R E D   B Y -                         
                 /     \                                                     
                 |  |  |   _    _      __       _____    __    __             
                 |  |  |  | |  | |    /  \     |  _  \  |  |  /  |          
                  \  \/   | |  | |   /    \    | | | |  |  | /  /          
                 / \  \   | |__| |  /  /\  \   | |_| |  |  |/  /          
                |  |  |   |  __  | /  /__\  \  |    /   |      \           
                |  |  |   | |  | | |   __   |  |    \   |  |\   \          
                \     /   | |  | | |  |  |  |  | |\  \  |  | \   \       
                 \___/    |_|  |_| |__|  |__|  |_| \__\ |__|  \__/        
                                                                              
                      - O R C A' S   B I G   F R I E N D -                    
                                      &                                       
                       - I N T E G R A L  F E E D E R -                       
                                                                              
 v1 FN, 2020, v2 2021, v3 2022-2024                                           
------------------------------------------------------------------------------


----------------------
SHARK INTEGRAL PACKAGE
----------------------

Number of atoms                             ...     42
Number of basis functions                   ...    852
Number of shells                            ...    336
Maximum angular momentum                    ...      3
Integral batch strategy                     ... SHARK/LIBINT Hybrid
RI-J (if used) integral strategy            ... SPLIT-RIJ (Revised 2003 algorithm where possible)
Printlevel                                  ...      1
Contraction scheme used                     ... SEGMENTED contraction
Prescreening option                         ... SCHWARTZ
   Thresh                                   ... 2.500e-11
   Tcut                                     ... 2.500e-12
   Tpresel                                  ... 2.500e-12 
Coulomb Range Separation                    ... NOT USED
Exchange Range Separation                   ... NOT USED
Multipole approximations                    ... NOT USED
Finite Nucleus Model                        ... NOT USED
CABS basis                                  ... NOT available
Auxiliary Coulomb fitting basis             ... AVAILABLE
   # of basis functions in Aux-J            ...   1374
   # of shells in Aux-J                     ...    450
   Maximum angular momentum in Aux-J        ...      4
Auxiliary J/K fitting basis                 ... NOT available
Auxiliary Correlation fitting basis         ... NOT available
Auxiliary 'external' fitting basis          ... NOT available

Checking pre-screening integrals            ... done (  0.0 sec) Dimension = 336
   => SHARK Basis and OBASIS are compatible. Storing Pre-screening
Shell pair information
Shell pair cut-off parameter TPreSel        ...   2.5e-12
Total number of shell pairs                 ...     56616
Shell pairs after pre-screening             ...     39301
Total number of primitive shell pairs       ...    173748
Primitive shell pairs kept                  ...     79347
          la=0 lb=0:  10148 shell pairs
          la=1 lb=0:  11400 shell pairs
          la=1 lb=1:   3217 shell pairs
          la=2 lb=0:   5542 shell pairs
          la=2 lb=1:   3204 shell pairs
          la=2 lb=2:    832 shell pairs
          la=3 lb=0:   2576 shell pairs
          la=3 lb=1:   1500 shell pairs
          la=3 lb=2:    712 shell pairs
          la=3 lb=3:    170 shell pairs

Checking whether 4 symmetric matrices of dimension 852 fit in memory
:Max Core in MB      =   3000.00
 MB in use           =     50.78
 MB left             =   2949.22
 MB needed           =     11.09
 Data fit in memory  = YES
Calculating RI/J V-Matrix + Cholesky decomp.... done (  0.2 sec)
Calculating Nuclear repulsion               ... done (  0.0 sec) ENN=   1923.382611487662 Eh

Diagonalization of the overlap matrix:
Smallest eigenvalue                        ... 9.782e-06
Time for diagonalization                   ...    0.259 sec
Threshold for overlap eigenvalues          ... 1.000e-07
Number of eigenvalues below threshold      ... 0
Time for construction of square roots      ...    0.153 sec
Total time needed                          ...    0.422 sec

-------------------
DFT GRID GENERATION
-------------------

General Integration Accuracy     IntAcc      ... 4.959
Radial Grid Type                 RadialGrid  ... OptM3 with GC (2021)
Angular Grid (max. ang.)         AngularGrid ... 6 (Lebedev-590)
Angular grid pruning method      GridPruning ... 4 (adaptive)
Weight generation scheme         WeightScheme... mBecke (2022)
Basis function cutoff            BFCut       ... 1.0000e-11
Integration weight cutoff        WCut        ... 1.0000e-14
Partially contracted basis set               ... off
Rotationally invariant grid construction     ... off
Angular grids for H and He will be reduced by one unit

Total number of grid points                  ...   492495
Total number of batches                      ...     7717
Average number of points per batch           ...       63
Average number of grid points per atom       ...    11726

--------------------
COSX GRID GENERATION
--------------------

GRIDX 1
-------
General Integration Accuracy     IntAcc      ... 4.020
Radial Grid Type                 RadialGrid  ... OptM3 with GC (2021)
Angular Grid (max. ang.)         AngularGrid ... 2 (Lebedev-110)
Angular grid pruning method      GridPruning ... 4 (adaptive)
Weight generation scheme         WeightScheme... mBecke (2022)
Basis function cutoff            BFCut       ... 1.0000e-11
Integration weight cutoff        WCut        ... 1.0000e-14
Partially contracted basis set               ... on
Rotationally invariant grid construction     ... off
Angular grids for H and He will be reduced by one unit

Total number of grid points                  ...    55174
Total number of batches                      ...      456
Average number of points per batch           ...      120
Average number of grid points per atom       ...     1314
UseSFitting                                  ... on

GRIDX 2
-------
General Integration Accuracy     IntAcc      ... 4.338
Radial Grid Type                 RadialGrid  ... OptM3 with GC (2021)
Angular Grid (max. ang.)         AngularGrid ... 3 (Lebedev-194)
Angular grid pruning method      GridPruning ... 4 (adaptive)
Weight generation scheme         WeightScheme... mBecke (2022)
Basis function cutoff            BFCut       ... 1.0000e-11
Integration weight cutoff        WCut        ... 1.0000e-14
Partially contracted basis set               ... on
Rotationally invariant grid construction     ... off
Angular grids for H and He will be reduced by one unit

Total number of grid points                  ...   120801
Total number of batches                      ...      966
Average number of points per batch           ...      125
Average number of grid points per atom       ...     2876
UseSFitting                                  ... on

GRIDX 3
-------
General Integration Accuracy     IntAcc      ... 4.871
Radial Grid Type                 RadialGrid  ... OptM3 with GC (2021)
Angular Grid (max. ang.)         AngularGrid ... 4 (Lebedev-302)
Angular grid pruning method      GridPruning ... 4 (adaptive)
Weight generation scheme         WeightScheme... mBecke (2022)
Basis function cutoff            BFCut       ... 1.0000e-11
Integration weight cutoff        WCut        ... 1.0000e-14
Partially contracted basis set               ... on
Rotationally invariant grid construction     ... off
Angular grids for H and He will be reduced by one unit

Total number of grid points                  ...   225532
Total number of batches                      ...     1785
Average number of points per batch           ...      126
Average number of grid points per atom       ...     5370
UseSFitting                                  ... on
Grids setup in  19.4 sec
Initializing property integral containers    ... done (  0.0 sec)

SHARK setup successfully completed in  21.0 seconds

Maximum memory used throughout the entire STARTUP-calculation: 156.2 MB


           ************************************************************
           *        Program running with 4 parallel MPI-processes     *
           *              working on a common directory               *
           ************************************************************
-------------------------------------------------------------------------------
                                 ORCA GUESS
                   Start orbitals & Density for SCF / CASSCF
-------------------------------------------------------------------------------

------------
SCF SETTINGS
------------
Hamiltonian:
 Density Functional     Method          .... DFT(GTOs)
 Exchange Functional    Exchange        .... PBE
   PBE kappa parameter   XKappa         ....  0.804000
   PBE mue parameter    XMuePBE         ....  0.219520
 Correlation Functional Correlation     .... PBE
   PBE beta parameter  CBetaPBE         ....  0.066725
 LDA part of GGA corr.  LDAOpt          .... PW91-LDA
 Gradients option       PostSCFGGA      .... off
 Hybrid DFT is turned on
   Fraction HF Exchange ScalHFX         ....  0.250000
   Scaling of DF-GGA-X  ScalDFX         ....  0.750000
   Scaling of DF-GGA-C  ScalDFC         ....  1.000000
   Scaling of DF-LDA-C  ScalLDAC        ....  1.000000
   Perturbative correction              ....  0.000000
   NL short-range parameter             ....  6.900000
 RI-approximation to the Coulomb term is turned on
   Number of AuxJ basis functions       .... 1374
   RIJ-COSX (HFX calculated with COS-X)).... on


General Settings:
 Integral files         IntName         .... tddft
 Hartree-Fock type      HFTyp           .... RHF
 Total Charge           Charge          ....    0
 Multiplicity           Mult            ....    1
 Number of Electrons    NEL             ....  166
 Basis Dimension        Dim             ....  852
 Nuclear Repulsion      ENuc            ....   1923.3826114877 Eh

Convergence Acceleration:
 AO-DIIS                CNVDIIS         .... on
   Start iteration      DIISMaxIt       ....    12
   Startup error        DIISStart       ....  0.200000
   # of expansion vecs  DIISMaxEq       ....     5
   Bias factor          DIISBfac        ....   1.050
   Max. coefficient     DIISMaxC        ....  10.000
 MO-DIIS                CNVKDIIS        .... off
 Trust-Rad. Augm. Hess. CNVTRAH         .... auto
   Auto Start mean grad. ratio tolernc. ....  1.125000
   Auto Start start iteration           ....     1
   Auto Start num. interpolation iter.  ....    10
   Max. Number of Micro iterations      ....    24
   Max. Number of Macro iterations      .... Maxiter - #DIIS iter
   Number of Davidson start vectors     ....     2
   Converg. threshold    (grad. norm)   ....   1.000e-05
   Grad. Scal. Fac. for Micro threshold ....   0.100
   Minimum threshold for Micro iter.    ....   1.000e-02
   NR start threshold (gradient norm)   ....   1.000e-04
   Initial trust radius                 ....   0.400
   Minimum AH scaling param. (alpha)    ....   1.000
   Maximum AH scaling param. (alpha)    .... 1000.000
   Quad. conv. algorithm                .... NR
   White noise on init. David. guess    .... on
   Maximum white noise                  ....   0.010
   Pseudo random numbers                .... off
   Inactive MOs                         .... canonical
   Orbital update algorithm             .... Taylor
   Preconditioner                       .... Diag
   Full preconditioner red. dimension   ....   250
 SOSCF                 CNVSOSCF           .... on
   Start iteration     SOSCFMaxIt         ....   150
   Startup grad/error  SOSCFStart         ....  0.003300
   Hessian update      SOSCFHessUp        .... L-BFGS
   Autom. constraints  SOSCFAutoConstrain .... off
 Level Shifting         CNVShift        .... on
   Level shift para.    LevelShift      ....    0.2500
   Turn off err/grad.   ShiftErr        ....    0.0010
 Zerner damping         CNVZerner       .... off
 Static damping         CNVDamp         .... on
   Fraction old density DampFac         ....    0.7000
   Max. Damping (<1)    DampMax         ....    0.9800
   Min. Damping (>=0)   DampMin         ....    0.0000
   Turn off err/grad.   DampErr         ....    0.1000

SCF Procedure:
 Maximum # iterations   MaxIter         ....   125
 SCF integral mode      SCFMode         .... Direct
   Integral package                     .... SHARK and LIBINT hybrid scheme
 Reset frequency        DirectResetFreq ....    20
 Integral Threshold     Thresh          ....  2.500e-11 Eh
 Primitive CutOff       TCut            ....  2.500e-12 Eh

Convergence Tolerance:
 Convergence Check Mode ConvCheckMode   .... Total+1el-Energy
 Convergence forced     ConvForced      .... 1
 Energy Change          TolE            ....  1.000e-08 Eh
 1-El. energy change                    ....  1.000e-05 Eh
 Orbital Gradient       TolG            ....  1.000e-05
 Orbital Rotation angle TolX            ....  1.000e-05
 DIIS Error             TolErr          ....  5.000e-07

---------------------
INITIAL GUESS: MOREAD
---------------------
Guess MOs are being read from file: tddft.ges
Input Geometry matches current geometry (good)
Input basis set matches current basis set (good)
Occupation numbers will be reassigned to an Aufbau configuration
MOs were renormalized
MOs were reorthogonalized (Cholesky)
                      ------------------
                      INITIAL GUESS DONE (   1.0 sec)
                      ------------------
             **** ENERGY FILE WAS UPDATED (tddft.en.tmp) ****
Finished Guess after   1.7 sec
Maximum memory used throughout the entire GUESS-calculation: 95.5 MB


           ************************************************************
           *        Program running with 4 parallel MPI-processes     *
           *              working on a common directory               *
           ************************************************************

-------------------------------------------------------------------------------------------
                                      ORCA LEAN-SCF
                              memory conserving SCF solver
-------------------------------------------------------------------------------------------

--------------------
CPCM SOLVATION MODEL
--------------------
CPCM parameters:
  Epsilon                                         ...       8.9990
  Refrac                                          ...       1.4242
  Rsolv                                           ...       1.3000
  Surface type                                    ... GAUSSIAN VDW
  Discretization scheme                           ... Constant charge density
    Threshold for H atoms                         ...       5.0000 (charges/Ang^2)
    Threshold for non-H atoms                     ...       5.0000 (charges/Ang^2)
  Epsilon function type                           ...         CPCM
Solvent:                                          ... DICHLOROMETHANE
Radii:
  Scheme                                          ... Element-dependent radii
  Radius for N  used is    3.5149 Bohr (=   1.8600 Ang.)
  Radius for C  used is    3.8550 Bohr (=   2.0400 Ang.)
  Radius for H  used is    2.4944 Bohr (=   1.3200 Ang.)
Calculating surface                               ...        done! (  0.0s)
Cavity surface points                             ...         3690
Cavity Volume                                     ...    2501.5510
Cavity Surface-area                               ...    1223.0827
Calculating surface distance matrix               ...        done! (  0.5s)
Performing Cholesky decomposition & store         ...        done! (  1.4s)
Overall time for CPCM initialization              ...                 1.9s

----------------------------------------D-I-I-S--------------------------------------------
Iteration    Energy (Eh)           Delta-E    RMSDP     MaxDP     DIISErr   Damp  Time(sec)
-------------------------------------------------------------------------------------------
               ***  Starting incremental Fock matrix formation  ***
                              *** Initializing SOSCF ***
---------------------------------------S-O-S-C-F--------------------------------------
Iteration    Energy (Eh)           Delta-E    RMSDP     MaxDP     MaxGrad    Time(sec)
--------------------------------------------------------------------------------------
    1    -991.1859890455516506     0.00e+00  6.34e-06  1.95e-04  5.84e-07    76.1
               *** Restarting incremental Fock matrix formation ***
    2    -991.1859890457012625    -1.50e-10  1.33e-06  4.22e-05  9.87e-07   155.7
                  *** Gradient check signals convergence ***

               *****************************************************
               *                     SUCCESS                       *
               *           SCF CONVERGED AFTER   2 CYCLES          *
               *****************************************************

Recomputing exchange energy using gridx3       ... done (  297.927 sec)
Old exchange energy                            :    -34.170153127 Eh
New exchange energy                            :    -34.170147442 Eh
Exchange energy change after final integration :      0.000005685 Eh
Total energy after final integration           :   -991.185983321 Eh
             **** ENERGY FILE WAS UPDATED (tddft.en.tmp) ****

----------------
TOTAL SCF ENERGY
----------------

Total Energy       :       -991.18598332143472 Eh          -26971.54181 eV

Components:
Nuclear Repulsion  :       1923.38261148766151 Eh           52337.90167 eV
Electronic Energy  :      -2914.55390187210651 Eh          -79309.04366 eV
One Electron Energy:      -5165.87449993419341 Eh         -140570.59161 eV
Two Electron Energy:       2251.32059806208690 Eh           61261.54795 eV
CPCM Dielectric    :         -0.01469862198549 Eh              -0.39997 eV

Virial components:
Potential Energy   :      -1977.51985285931119 Eh          -53811.05090 eV
Kinetic Energy     :        986.33386953787647 Eh           26839.50908 eV
Virial Ratio       :          2.00491934215524

DFT components:
N(Alpha)           :       83.000035216574 electrons
N(Beta)            :       83.000035216574 electrons
N(Total)           :      166.000070433149 electrons
E(X)               :     -102.265188262820 Eh       
E(C)               :       -5.606020615397 Eh       
E(XC)              :     -107.871208878217 Eh       

CPCM Solvation Model Properties:
Surface-charge          :         -0.03724190699268
Corrected charge        :         -0.00000000000000
Outlying charge corr.   :          0.00006546554936 Eh               0.00178 eV
Free-energy (cav+disp)  :  This term is not implemented in the current solvation scheme

---------------
SCF CONVERGENCE
---------------

  Last Energy change         ...    1.4961e-10  Tolerance :   1.0000e-08
  Last MAX-Density change    ...    4.2169e-05  Tolerance :   1.0000e-07
  Last RMS-Density change    ...    1.3266e-06  Tolerance :   5.0000e-09
  Last DIIS Error            ...    3.3958e-06  Tolerance :   5.0000e-07
  Last Orbital Gradient      ...    9.8748e-07  Tolerance :   1.0000e-05
  Last Orbital Rotation      ...    4.2014e-06  Tolerance :   1.0000e-05


----------------
ORBITAL ENERGIES
----------------

  NO   OCC          E(Eh)            E(eV) 
   0   2.0000     -14.421161      -392.4197 
   1   2.0000     -14.421155      -392.4196 
   2   2.0000     -14.380534      -391.3142 
   3   2.0000     -14.380532      -391.3142 
   4   2.0000     -10.269189      -279.4388 
   5   2.0000     -10.269181      -279.4386 
   6   2.0000     -10.269159      -279.4380 
   7   2.0000     -10.269152      -279.4378 
   8   2.0000     -10.261291      -279.2239 
   9   2.0000     -10.261291      -279.2239 
  10   2.0000     -10.261262      -279.2231 
  11   2.0000     -10.261262      -279.2231 
  12   2.0000     -10.226483      -278.2767 
  13   2.0000     -10.226476      -278.2766 
  14   2.0000     -10.225773      -278.2574 
  15   2.0000     -10.225767      -278.2573 
  16   2.0000     -10.224494      -278.2226 
  17   2.0000     -10.224490      -278.2225 
  18   2.0000     -10.224489      -278.2225 
  19   2.0000     -10.224485      -278.2224 
  20   2.0000     -10.222122      -278.1581 
  21   2.0000     -10.222121      -278.1581 
  22   2.0000     -10.221884      -278.1516 
  23   2.0000     -10.221884      -278.1516 
  24   2.0000      -1.017701       -27.6930 
  25   2.0000      -1.015880       -27.6435 
  26   2.0000      -0.978887       -26.6369 
  27   2.0000      -0.976161       -26.5627 
  28   2.0000      -0.843338       -22.9484 
  29   2.0000      -0.818001       -22.2590 
  30   2.0000      -0.814658       -22.1680 
  31   2.0000      -0.814570       -22.1656 
  32   2.0000      -0.812791       -22.1172 
  33   2.0000      -0.787562       -21.4306 
  34   2.0000      -0.787033       -21.4162 
  35   2.0000      -0.761347       -20.7173 
  36   2.0000      -0.748577       -20.3698 
  37   2.0000      -0.683246       -18.5921 
  38   2.0000      -0.681227       -18.5371 
  39   2.0000      -0.635278       -17.2868 
  40   2.0000      -0.619266       -16.8511 
  41   2.0000      -0.619240       -16.8504 
  42   2.0000      -0.600076       -16.3289 
  43   2.0000      -0.599212       -16.3054 
  44   2.0000      -0.598605       -16.2889 
  45   2.0000      -0.587701       -15.9921 
  46   2.0000      -0.583990       -15.8912 
  47   2.0000      -0.525656       -14.3038 
  48   2.0000      -0.519907       -14.1474 
  49   2.0000      -0.510109       -13.8808 
  50   2.0000      -0.503293       -13.6953 
  51   2.0000      -0.486003       -13.2248 
  52   2.0000      -0.484753       -13.1908 
  53   2.0000      -0.467009       -12.7080 
  54   2.0000      -0.466625       -12.6975 
  55   2.0000      -0.454880       -12.3779 
  56   2.0000      -0.448930       -12.2160 
  57   2.0000      -0.447379       -12.1738 
  58   2.0000      -0.443678       -12.0731 
  59   2.0000      -0.435166       -11.8415 
  60   2.0000      -0.426681       -11.6106 
  61   2.0000      -0.421932       -11.4813 
  62   2.0000      -0.417419       -11.3585 
  63   2.0000      -0.400682       -10.9031 
  64   2.0000      -0.392750       -10.6873 
  65   2.0000      -0.387134       -10.5345 
  66   2.0000      -0.384031       -10.4500 
  67   2.0000      -0.382061       -10.3964 
  68   2.0000      -0.381148       -10.3716 
  69   2.0000      -0.369858       -10.0644 
  70   2.0000      -0.369580       -10.0568 
  71   2.0000      -0.367157        -9.9909 
  72   2.0000      -0.366321        -9.9681 
  73   2.0000      -0.365707        -9.9514 
  74   2.0000      -0.323833        -8.8120 
  75   2.0000      -0.292438        -7.9576 
  76   2.0000      -0.290000        -7.8913 
  77   2.0000      -0.288281        -7.8445 
  78   2.0000      -0.279611        -7.6086 
  79   2.0000      -0.279584        -7.6079 
  80   2.0000      -0.267230        -7.2717 
  81   2.0000      -0.208430        -5.6717 
  82   2.0000      -0.182368        -4.9625 
  83   0.0000      -0.095704        -2.6043 
  84   0.0000      -0.045532        -1.2390 
  85   0.0000       0.015821         0.4305 
  86   0.0000       0.025547         0.6952 
  87   0.0000       0.044883         1.2213 
  88   0.0000       0.047271         1.2863 
  89   0.0000       0.053151         1.4463 
  90   0.0000       0.071067         1.9338 
  91   0.0000       0.079231         2.1560 
  92   0.0000       0.079966         2.1760 
  93   0.0000       0.080960         2.2030 
*Only the first 10 virtual orbitals were printed.

                    ********************************
                    * MULLIKEN POPULATION ANALYSIS *
                    ********************************

-----------------------
MULLIKEN ATOMIC CHARGES
-----------------------
   0 N :   -0.359519
   1 N :   -0.359528
   2 N :   -0.138629
   3 N :   -0.138613
   4 C :   -0.154353
   5 C :   -0.154433
   6 C :   -0.154390
   7 C :   -0.154524
   8 C :    0.187972
   9 C :    0.188085
  10 C :    0.188041
  11 C :    0.188149
  12 C :    0.282606
  13 C :    0.282396
  14 C :    0.282502
  15 C :    0.282470
  16 C :   -0.487794
  17 C :   -0.487740
  18 C :   -0.487799
  19 C :   -0.487855
  20 C :   -0.252492
  21 C :   -0.252225
  22 C :   -0.252404
  23 C :   -0.252318
  24 H :    0.125713
  25 H :    0.125925
  26 H :    0.125420
  27 H :    0.126229
  28 H :    0.125934
  29 H :    0.125704
  30 H :    0.126236
  31 H :    0.125423
  32 H :    0.154660
  33 H :    0.154668
  34 H :    0.154674
  35 H :    0.154651
  36 H :    0.220997
  37 H :    0.221000
  38 H :    0.156285
  39 H :    0.156289
  40 H :    0.156295
  41 H :    0.156293
Sum of atomic charges:   -0.0000000

--------------------------------
MULLIKEN REDUCED ORBITAL CHARGES
--------------------------------
  0 N s       :     3.608915  s :     3.608915
      pz      :     1.181356  p :     3.681056
      px      :     1.481354
      py      :     1.018346
      dz2     :     0.005190  d :     0.065898
      dxz     :     0.009425
      dyz     :     0.014695
      dx2y2   :     0.015551
      dxy     :     0.021037
      f0      :     0.000612  f :     0.003651
      f+1     :     0.000227
      f-1     :     0.000348
      f+2     :     0.000126
      f-2     :     0.000563
      f+3     :     0.000717
      f-3     :     0.001059

  1 N s       :     3.608909  s :     3.608909
      pz      :     1.181362  p :     3.681069
      px      :     1.481354
      py      :     1.018352
      dz2     :     0.005190  d :     0.065899
      dxz     :     0.009426
      dyz     :     0.014695
      dx2y2   :     0.015551
      dxy     :     0.021038
      f0      :     0.000612  f :     0.003651
      f+1     :     0.000227
      f-1     :     0.000348
      f+2     :     0.000126
      f-2     :     0.000563
      f+3     :     0.000717
      f-3     :     0.001059

  2 N s       :     3.415098  s :     3.415098
      pz      :     1.522251  p :     3.651103
      px      :     1.075559
      py      :     1.053293
      dz2     :     0.004896  d :     0.067871
      dxz     :     0.016837
      dyz     :     0.004680
      dx2y2   :     0.024147
      dxy     :     0.017312
      f0      :     0.000820  f :     0.004557
      f+1     :     0.000565
      f-1     :     0.000674
      f+2     :     0.000062
      f-2     :     0.000615
      f+3     :     0.001037
      f-3     :     0.000784

  3 N s       :     3.415089  s :     3.415089
      pz      :     1.522233  p :     3.651091
      px      :     1.075555
      py      :     1.053303
      dz2     :     0.004895  d :     0.067876
      dxz     :     0.016841
      dyz     :     0.004680
      dx2y2   :     0.024149
      dxy     :     0.017312
      f0      :     0.000820  f :     0.004558
      f+1     :     0.000565
      f-1     :     0.000674
      f+2     :     0.000062
      f-2     :     0.000615
      f+3     :     0.001037
      f-3     :     0.000784

  4 C s       :     3.085339  s :     3.085339
      pz      :     1.058556  p :     2.978299
      px      :     0.946811
      py      :     0.972931
      dz2     :     0.004127  d :     0.084896
      dxz     :     0.017474
      dyz     :     0.020083
      dx2y2   :     0.018028
      dxy     :     0.025184
      f0      :     0.000595  f :     0.005819
      f+1     :     0.000735
      f-1     :     0.000600
      f+2     :     0.000866
      f-2     :     0.000313
      f+3     :     0.001567
      f-3     :     0.001143

  5 C s       :     3.085467  s :     3.085467
      pz      :     1.058558  p :     2.978246
      px      :     0.946986
      py      :     0.972701
      dz2     :     0.004147  d :     0.084901
      dxz     :     0.017468
      dyz     :     0.020069
      dx2y2   :     0.018022
      dxy     :     0.025195
      f0      :     0.000596  f :     0.005819
      f+1     :     0.000736
      f-1     :     0.000597
      f+2     :     0.000866
      f-2     :     0.000314
      f+3     :     0.001569
      f-3     :     0.001141

  6 C s       :     3.085388  s :     3.085388
      pz      :     1.058543  p :     2.978286
      px      :     0.947024
      py      :     0.972719
      dz2     :     0.004127  d :     0.084897
      dxz     :     0.017480
      dyz     :     0.020078
      dx2y2   :     0.018024
      dxy     :     0.025188
      f0      :     0.000595  f :     0.005819
      f+1     :     0.000737
      f-1     :     0.000598
      f+2     :     0.000866
      f-2     :     0.000313
      f+3     :     0.001569
      f-3     :     0.001141

  7 C s       :     3.085552  s :     3.085552
      pz      :     1.058544  p :     2.978255
      px      :     0.946820
      py      :     0.972891
      dz2     :     0.004134  d :     0.084899
      dxz     :     0.017477
      dyz     :     0.020075
      dx2y2   :     0.018027
      dxy     :     0.025185
      f0      :     0.000595  f :     0.005819
      f+1     :     0.000735
      f-1     :     0.000600
      f+2     :     0.000866
      f-2     :     0.000313
      f+3     :     0.001567
      f-3     :     0.001142

  8 C s       :     3.140698  s :     3.140698
      pz      :     0.895571  p :     2.501027
      px      :     0.872354
      py      :     0.733101
      dz2     :     0.002994  d :     0.156597
      dxz     :     0.022285
      dyz     :     0.039646
      dx2y2   :     0.047373
      dxy     :     0.044300
      f0      :     0.001936  f :     0.013706
      f+1     :     0.000874
      f-1     :     0.000909
      f+2     :     0.001249
      f-2     :     0.001390
      f+3     :     0.002545
      f-3     :     0.004803

  9 C s       :     3.140693  s :     3.140693
      pz      :     0.895564  p :     2.500925
      px      :     0.872122
      py      :     0.733239
      dz2     :     0.003003  d :     0.156592
      dxz     :     0.022287
      dyz     :     0.039641
      dx2y2   :     0.047377
      dxy     :     0.044283
      f0      :     0.001936  f :     0.013706
      f+1     :     0.000874
      f-1     :     0.000909
      f+2     :     0.001246
      f-2     :     0.001393
      f+3     :     0.002556
      f-3     :     0.004791

 10 C s       :     3.140694  s :     3.140694
      pz      :     0.895596  p :     2.500967
      px      :     0.872182
      py      :     0.733190
      dz2     :     0.002995  d :     0.156592
      dxz     :     0.022290
      dyz     :     0.039638
      dx2y2   :     0.047384
      dxy     :     0.044287
      f0      :     0.001936  f :     0.013705
      f+1     :     0.000874
      f-1     :     0.000909
      f+2     :     0.001247
      f-2     :     0.001392
      f+3     :     0.002556
      f-3     :     0.004791

 11 C s       :     3.140588  s :     3.140588
      pz      :     0.895597  p :     2.500964
      px      :     0.872267
      py      :     0.733101
      dz2     :     0.002993  d :     0.156593
      dxz     :     0.022283
      dyz     :     0.039648
      dx2y2   :     0.047368
      dxy     :     0.044301
      f0      :     0.001936  f :     0.013706
      f+1     :     0.000873
      f-1     :     0.000909
      f+2     :     0.001249
      f-2     :     0.001390
      f+3     :     0.002545
      f-3     :     0.004803

 12 C s       :     3.099480  s :     3.099480
      pz      :     0.933130  p :     2.447830
      px      :     0.695460
      py      :     0.819239
      dz2     :     0.004843  d :     0.156168
      dxz     :     0.040965
      dyz     :     0.030382
      dx2y2   :     0.037920
      dxy     :     0.042059
      f0      :     0.002255  f :     0.013916
      f+1     :     0.001102
      f-1     :     0.000850
      f+2     :     0.000872
      f-2     :     0.002284
      f+3     :     0.003712
      f-3     :     0.002841

 13 C s       :     3.099532  s :     3.099532
      pz      :     0.933144  p :     2.447987
      px      :     0.695350
      py      :     0.819492
      dz2     :     0.004844  d :     0.156170
      dxz     :     0.040990
      dyz     :     0.030398
      dx2y2   :     0.037954
      dxy     :     0.041984
      f0      :     0.002255  f :     0.013916
      f+1     :     0.001102
      f-1     :     0.000849
      f+2     :     0.000877
      f-2     :     0.002280
      f+3     :     0.003725
      f-3     :     0.002829

 14 C s       :     3.099511  s :     3.099511
      pz      :     0.933185  p :     2.447898
      px      :     0.695235
      py      :     0.819477
      dz2     :     0.004841  d :     0.156173
      dxz     :     0.040989
      dyz     :     0.030398
      dx2y2   :     0.037958
      dxy     :     0.041987
      f0      :     0.002256  f :     0.013916
      f+1     :     0.001102
      f-1     :     0.000849
      f+2     :     0.000876
      f-2     :     0.002280
      f+3     :     0.003725
      f-3     :     0.002829

 15 C s       :     3.099505  s :     3.099505
      pz      :     0.933162  p :     2.447932
      px      :     0.695473
      py      :     0.819297
      dz2     :     0.004841  d :     0.156177
      dxz     :     0.040968
      dyz     :     0.030385
      dx2y2   :     0.037921
      dxy     :     0.042063
      f0      :     0.002255  f :     0.013916
      f+1     :     0.001102
      f-1     :     0.000850
      f+2     :     0.000872
      f-2     :     0.002284
      f+3     :     0.003712
      f-3     :     0.002841

 16 C s       :     3.401214  s :     3.401214
      pz      :     1.068099  p :     3.004449
      px      :     0.935545
      py      :     1.000805
      dz2     :     0.002776  d :     0.074854
      dxz     :     0.014921
      dyz     :     0.016018
      dx2y2   :     0.008084
      dxy     :     0.033055
      f0      :     0.001496  f :     0.007278
      f+1     :     0.000692
      f-1     :     0.000694
      f+2     :     0.000799
      f-2     :     0.000433
      f+3     :     0.001547
      f-3     :     0.001617

 17 C s       :     3.401108  s :     3.401108
      pz      :     1.068125  p :     3.004496
      px      :     0.935647
      py      :     1.000725
      dz2     :     0.002777  d :     0.074858
      dxz     :     0.014876
      dyz     :     0.016064
      dx2y2   :     0.008089
      dxy     :     0.033051
      f0      :     0.001495  f :     0.007278
      f+1     :     0.000692
      f-1     :     0.000694
      f+2     :     0.000799
      f-2     :     0.000433
      f+3     :     0.001552
      f-3     :     0.001611

 18 C s       :     3.401224  s :     3.401224
      pz      :     1.068122  p :     3.004448
      px      :     0.935601
      py      :     1.000725
      dz2     :     0.002776  d :     0.074849
      dxz     :     0.014878
      dyz     :     0.016065
      dx2y2   :     0.008087
      dxy     :     0.033044
      f0      :     0.001495  f :     0.007278
      f+1     :     0.000692
      f-1     :     0.000694
      f+2     :     0.000799
      f-2     :     0.000433
      f+3     :     0.001552
      f-3     :     0.001611

 19 C s       :     3.401252  s :     3.401252
      pz      :     1.068129  p :     3.004471
      px      :     0.935529
      py      :     1.000812
      dz2     :     0.002776  d :     0.074855
      dxz     :     0.014922
      dyz     :     0.016019
      dx2y2   :     0.008085
      dxy     :     0.033053
      f0      :     0.001496  f :     0.007277
      f+1     :     0.000692
      f-1     :     0.000694
      f+2     :     0.000799
      f-2     :     0.000433
      f+3     :     0.001547
      f-3     :     0.001617

 20 C s       :     3.272921  s :     3.272921
      pz      :     1.016987  p :     2.884103
      px      :     0.950440
      py      :     0.916676
      dz2     :     0.005242  d :     0.087665
      dxz     :     0.020320
      dyz     :     0.011427
      dx2y2   :     0.018012
      dxy     :     0.032663
      f0      :     0.001539  f :     0.007803
      f+1     :     0.000627
      f-1     :     0.000799
      f+2     :     0.001178
      f-2     :     0.000254
      f+3     :     0.001154
      f-3     :     0.002253

 21 C s       :     3.272695  s :     3.272695
      pz      :     1.017003  p :     2.884064
      px      :     0.950411
      py      :     0.916650
      dz2     :     0.005249  d :     0.087663
      dxz     :     0.020289
      dyz     :     0.011448
      dx2y2   :     0.018006
      dxy     :     0.032671
      f0      :     0.001539  f :     0.007803
      f+1     :     0.000627
      f-1     :     0.000799
      f+2     :     0.001181
      f-2     :     0.000251
      f+3     :     0.001157
      f-3     :     0.002250

 22 C s       :     3.272764  s :     3.272764
      pz      :     1.017031  p :     2.884172
      px      :     0.950478
      py      :     0.916664
      dz2     :     0.005246  d :     0.087664
      dxz     :     0.020291
      dyz     :     0.011449
      dx2y2   :     0.018007
      dxy     :     0.032671
      f0      :     0.001539  f :     0.007803
      f+1     :     0.000627
      f-1     :     0.000799
      f+2     :     0.001181
      f-2     :     0.000250
      f+3     :     0.001157
      f-3     :     0.002250

 23 C s       :     3.272715  s :     3.272715
      pz      :     1.017007  p :     2.884132
      px      :     0.950440
      py      :     0.916685
      dz2     :     0.005242  d :     0.087668
      dxz     :     0.020321
      dyz     :     0.011427
      dx2y2   :     0.018012
      dxy     :     0.032666
      f0      :     0.001539  f :     0.007803
      f+1     :     0.000626
      f-1     :     0.000799
      f+2     :     0.001178
      f-2     :     0.000254
      f+3     :     0.001154
      f-3     :     0.002253

 24 H s       :     0.852423  s :     0.852423
      pz      :     0.009705  p :     0.021864
      px      :     0.006434
      py      :     0.005724

 25 H s       :     0.852211  s :     0.852211
      pz      :     0.009590  p :     0.021864
      px      :     0.006535
      py      :     0.005740

 26 H s       :     0.852708  s :     0.852708
      pz      :     0.009809  p :     0.021871
      px      :     0.006395
      py      :     0.005668

 27 H s       :     0.851915  s :     0.851915
      pz      :     0.009485  p :     0.021856
      px      :     0.006588
      py      :     0.005783

 28 H s       :     0.852203  s :     0.852203
      pz      :     0.009690  p :     0.021864
      px      :     0.006441
      py      :     0.005733

 29 H s       :     0.852433  s :     0.852433
      pz      :     0.009605  p :     0.021864
      px      :     0.006541
      py      :     0.005718

 30 H s       :     0.851908  s :     0.851908
      pz      :     0.009585  p :     0.021856
      px      :     0.006481
      py      :     0.005790

 31 H s       :     0.852705  s :     0.852705
      pz      :     0.009709  p :     0.021872
      px      :     0.006488
      py      :     0.005675

 32 H s       :     0.822738  s :     0.822738
      pz      :     0.005469  p :     0.022602
      px      :     0.008409
      py      :     0.008723

 33 H s       :     0.822730  s :     0.822730
      pz      :     0.005469  p :     0.022602
      px      :     0.008428
      py      :     0.008704

 34 H s       :     0.822724  s :     0.822724
      pz      :     0.005469  p :     0.022602
      px      :     0.008428
      py      :     0.008704

 35 H s       :     0.822747  s :     0.822747
      pz      :     0.005469  p :     0.022602
      px      :     0.008410
      py      :     0.008723

 36 H s       :     0.737232  s :     0.737232
      pz      :     0.010744  p :     0.041771
      px      :     0.006464
      py      :     0.024563

 37 H s       :     0.737229  s :     0.737229
      pz      :     0.010745  p :     0.041772
      px      :     0.006464
      py      :     0.024562

 38 H s       :     0.821323  s :     0.821323
      pz      :     0.004973  p :     0.022391
      px      :     0.007339
      py      :     0.010079

 39 H s       :     0.821320  s :     0.821320
      pz      :     0.004972  p :     0.022391
      px      :     0.007358
      py      :     0.010061

 40 H s       :     0.821314  s :     0.821314
      pz      :     0.004972  p :     0.022391
      px      :     0.007358
      py      :     0.010061

 41 H s       :     0.821316  s :     0.821316
      pz      :     0.004973  p :     0.022391
      px      :     0.007339
      py      :     0.010079



                     *******************************
                     * LOEWDIN POPULATION ANALYSIS *
                     *******************************

----------------------
LOEWDIN ATOMIC CHARGES
----------------------
   0 N :    0.130641
   1 N :    0.130638
   2 N :    0.250921
   3 N :    0.250939
   4 C :   -0.202072
   5 C :   -0.202078
   6 C :   -0.202076
   7 C :   -0.202079
   8 C :   -0.233915
   9 C :   -0.233910
  10 C :   -0.233898
  11 C :   -0.233903
  12 C :   -0.203276
  13 C :   -0.203277
  14 C :   -0.203292
  15 C :   -0.203295
  16 C :   -0.136503
  17 C :   -0.136502
  18 C :   -0.136505
  19 C :   -0.136509
  20 C :   -0.126055
  21 C :   -0.126056
  22 C :   -0.126071
  23 C :   -0.126071
  24 H :    0.149276
  25 H :    0.149266
  26 H :    0.149400
  27 H :    0.149142
  28 H :    0.149266
  29 H :    0.149273
  30 H :    0.149143
  31 H :    0.149397
  32 H :    0.168887
  33 H :    0.168885
  34 H :    0.168886
  35 H :    0.168886
  36 H :    0.185884
  37 H :    0.185875
  38 H :    0.150686
  39 H :    0.150686
  40 H :    0.150683
  41 H :    0.150682

-------------------------------
LOEWDIN REDUCED ORBITAL CHARGES
-------------------------------
  0 N s       :     3.035427  s :     3.035427
      pz      :     1.067745  p :     3.599934
      px      :     1.414232
      py      :     1.117956
      dz2     :     0.016996  d :     0.214604
      dxz     :     0.010903
      dyz     :     0.046993
      dx2y2   :     0.061991
      dxy     :     0.077721
      f0      :     0.001115  f :     0.019393
      f+1     :     0.000759
      f-1     :     0.001819
      f+2     :     0.000284
      f-2     :     0.003488
      f+3     :     0.004245
      f-3     :     0.007684

  1 N s       :     3.035430  s :     3.035430
      pz      :     1.067750  p :     3.599937
      px      :     1.414232
      py      :     1.117955
      dz2     :     0.016996  d :     0.214602
      dxz     :     0.010904
      dyz     :     0.046992
      dx2y2   :     0.061991
      dxy     :     0.077720
      f0      :     0.001115  f :     0.019393
      f+1     :     0.000759
      f-1     :     0.001819
      f+2     :     0.000284
      f-2     :     0.003488
      f+3     :     0.004245
      f-3     :     0.007684

  2 N s       :     2.887778  s :     2.887778
      pz      :     1.340832  p :     3.605236
      px      :     1.135028
      py      :     1.129375
      dz2     :     0.014195  d :     0.238250
      dxz     :     0.049764
      dyz     :     0.011957
      dx2y2   :     0.091733
      dxy     :     0.070601
      f0      :     0.001193  f :     0.017815
      f+1     :     0.001705
      f-1     :     0.001684
      f+2     :     0.000284
      f-2     :     0.003834
      f+3     :     0.006645
      f-3     :     0.002469

  3 N s       :     2.887758  s :     2.887758
      pz      :     1.340815  p :     3.605217
      px      :     1.135031
      py      :     1.129371
      dz2     :     0.014193  d :     0.238269
      dxz     :     0.049774
      dyz     :     0.011957
      dx2y2   :     0.091742
      dxy     :     0.070603
      f0      :     0.001193  f :     0.017816
      f+1     :     0.001705
      f-1     :     0.001684
      f+2     :     0.000284
      f-2     :     0.003835
      f+3     :     0.006645
      f-3     :     0.002470

  4 C s       :     2.768983  s :     2.768983
      pz      :     1.037483  p :     3.029364
      px      :     0.993353
      py      :     0.998527
      dz2     :     0.037769  d :     0.363741
      dxz     :     0.073318
      dyz     :     0.075131
      dx2y2   :     0.088950
      dxy     :     0.088573
      f0      :     0.003829  f :     0.039984
      f+1     :     0.003905
      f-1     :     0.003671
      f+2     :     0.005335
      f-2     :     0.004126
      f+3     :     0.011586
      f-3     :     0.007533

  5 C s       :     2.768981  s :     2.768981
      pz      :     1.037472  p :     3.029360
      px      :     0.993388
      py      :     0.998500
      dz2     :     0.037847  d :     0.363753
      dxz     :     0.073367
      dyz     :     0.075000
      dx2y2   :     0.088896
      dxy     :     0.088644
      f0      :     0.003834  f :     0.039985
      f+1     :     0.003904
      f-1     :     0.003665
      f+2     :     0.005337
      f-2     :     0.004129
      f+3     :     0.011596
      f-3     :     0.007520

  6 C s       :     2.768983  s :     2.768983
      pz      :     1.037484  p :     3.029365
      px      :     0.993386
      py      :     0.998495
      dz2     :     0.037764  d :     0.363744
      dxz     :     0.073422
      dyz     :     0.075036
      dx2y2   :     0.088905
      dxy     :     0.088617
      f0      :     0.003828  f :     0.039984
      f+1     :     0.003909
      f-1     :     0.003669
      f+2     :     0.005334
      f-2     :     0.004125
      f+3     :     0.011598
      f-3     :     0.007520

  7 C s       :     2.768980  s :     2.768980
      pz      :     1.037479  p :     3.029358
      px      :     0.993351
      py      :     0.998529
      dz2     :     0.037776  d :     0.363755
      dxz     :     0.073336
      dyz     :     0.075118
      dx2y2   :     0.088950
      dxy     :     0.088574
      f0      :     0.003828  f :     0.039985
      f+1     :     0.003907
      f-1     :     0.003672
      f+2     :     0.005334
      f-2     :     0.004125
      f+3     :     0.011587
      f-3     :     0.007532

  8 C s       :     2.723763  s :     2.723763
      pz      :     0.823915  p :     2.790862
      px      :     0.970469
      py      :     0.996478
      dz2     :     0.042474  d :     0.641533
      dxz     :     0.070047
      dyz     :     0.118626
      dx2y2   :     0.215030
      dxy     :     0.195357
      f0      :     0.005141  f :     0.077757
      f+1     :     0.004326
      f-1     :     0.005990
      f+2     :     0.006968
      f-2     :     0.009938
      f+3     :     0.015164
      f-3     :     0.030229

  9 C s       :     2.723763  s :     2.723763
      pz      :     0.823925  p :     2.790860
      px      :     0.970366
      py      :     0.996568
      dz2     :     0.042486  d :     0.641531
      dxz     :     0.070065
      dyz     :     0.118605
      dx2y2   :     0.215066
      dxy     :     0.195309
      f0      :     0.005141  f :     0.077756
      f+1     :     0.004331
      f-1     :     0.005987
      f+2     :     0.006957
      f-2     :     0.009949
      f+3     :     0.015235
      f-3     :     0.030158

 10 C s       :     2.723769  s :     2.723769
      pz      :     0.823942  p :     2.790871
      px      :     0.970369
      py      :     0.996561
      dz2     :     0.042472  d :     0.641506
      dxz     :     0.070066
      dyz     :     0.118600
      dx2y2   :     0.215062
      dxy     :     0.195307
      f0      :     0.005141  f :     0.077751
      f+1     :     0.004329
      f-1     :     0.005987
      f+2     :     0.006958
      f-2     :     0.009947
      f+3     :     0.015234
      f-3     :     0.030157

 11 C s       :     2.723767  s :     2.723767
      pz      :     0.823933  p :     2.790873
      px      :     0.970467
      py      :     0.996473
      dz2     :     0.042466  d :     0.641511
      dxz     :     0.070044
      dyz     :     0.118624
      dx2y2   :     0.215021
      dxy     :     0.195356
      f0      :     0.005141  f :     0.077752
      f+1     :     0.004325
      f-1     :     0.005990
      f+2     :     0.006968
      f-2     :     0.009936
      f+3     :     0.015164
      f-3     :     0.030227

 12 C s       :     2.698423  s :     2.698423
      pz      :     0.857753  p :     2.790308
      px      :     0.960504
      py      :     0.972052
      dz2     :     0.041055  d :     0.634055
      dxz     :     0.122992
      dyz     :     0.095959
      dx2y2   :     0.177969
      dxy     :     0.196080
      f0      :     0.005442  f :     0.080490
      f+1     :     0.006287
      f-1     :     0.004645
      f+2     :     0.006594
      f-2     :     0.014987
      f+3     :     0.023900
      f-3     :     0.018635

 13 C s       :     2.698423  s :     2.698423
      pz      :     0.857760  p :     2.790307
      px      :     0.960269
[...]
  0-1A  ->  1-1A    1.966226   15858.7   630.6   0.399136816   0.04326   0.00019  -0.20799  -0.00023
  0-1A  ->  2-1A    2.531000   20413.9   489.9   0.091964439   0.01283   0.11327   0.00010   0.00087
  0-1A  ->  3-1A    3.546776   28606.7   349.6   1.395996517   0.27293  -0.52242  -0.00047  -0.00402
  0-1A  ->  4-1A    3.922346   31635.9   316.1   1.256682316   0.27171  -0.00049   0.52126   0.00050
  0-1A  ->  5-1A    3.939481   31774.1   314.7   0.000004099   0.00000   0.00006   0.00090   0.00028
  0-1A  ->  6-1A    4.130182   33312.2   300.2   0.000019225   0.00000   0.00096   0.00186  -0.00004
  0-1A  ->  7-1A    4.139417   33386.7   299.5   0.024457732   0.00558   0.07470   0.00003   0.00056
  0-1A  ->  8-1A    4.175682   33679.1   296.9   0.001249332   0.00029  -0.00010   0.00097   0.01693
  0-1A  ->  9-1A    4.210507   33960.0   294.5   0.000000050   0.00000   0.00007   0.00005  -0.00006
  0-1A  -> 10-1A    4.667942   37649.5   265.6   0.000000023   0.00000   0.00001  -0.00008   0.00000
  0-1A  -> 11-1A    4.767188   38450.0   260.1   0.000000002   0.00000  -0.00001  -0.00002  -0.00001
  0-1A  -> 12-1A    4.855686   39163.8   255.3   0.000000460   0.00000  -0.00005   0.00002   0.00035
  0-1A  -> 13-1A    5.370301   43314.4   230.9   0.000000173   0.00000  -0.00022  -0.00004  -0.00000
  0-1A  -> 14-1A    5.394187   43507.1   229.8   0.000002992   0.00000  -0.00047  -0.00082  -0.00001
  0-1A  -> 15-1A    5.398472   43541.6   229.7   0.033756342   0.01005   0.00010  -0.10022  -0.00072
  0-1A  -> 16-1A    5.406823   43609.0   229.3   0.000000033   0.00000  -0.00006  -0.00008  -0.00000
  0-1A  -> 17-1A    5.433282   43822.4   228.2   0.000007797   0.00000  -0.00153  -0.00008  -0.00001
  0-1A  -> 18-1A    5.437244   43854.3   228.0   0.000000922   0.00000   0.00001   0.00001   0.00053
  0-1A  -> 19-1A    5.500099   44361.3   225.4   0.017540705   0.00532  -0.00008   0.07292   0.00044
  0-1A  -> 20-1A    5.613851   45278.8   220.9   0.000000297   0.00000   0.00001   0.00030   0.00000
  0-1A  -> 21-1A    5.622773   45350.7   220.5   0.000000161   0.00000  -0.00022  -0.00001  -0.00001
  0-1A  -> 22-1A    5.679125   45805.2   218.3   0.272300051   0.08525  -0.00027   0.29196   0.00141
  0-1A  -> 23-1A    5.747170   46354.1   215.7   0.000000114   0.00000  -0.00001   0.00019  -0.00002
  0-1A  -> 24-1A    6.000125   48394.3   206.6   0.000001386   0.00000  -0.00001   0.00002   0.00068
  0-1A  -> 25-1A    6.044863   48755.1   205.1   0.030731116   0.01024  -0.10119  -0.00010  -0.00077
  0-1A  -> 26-1A    6.093431   49146.8   203.5   0.003380463   0.00114  -0.00024   0.00091   0.03368
  0-1A  -> 27-1A    6.097469   49179.4   203.3   0.000000070   0.00000   0.00001  -0.00015   0.00005
  0-1A  -> 28-1A    6.341386   51146.7   195.5   0.000002373   0.00000  -0.00001  -0.00091  -0.00000
  0-1A  -> 29-1A    6.357582   51277.4   195.0   0.000002057   0.00000   0.00085   0.00001  -0.00001
  0-1A  -> 30-1A    6.371414   51388.9   194.6   0.000000154   0.00000  -0.00022   0.00003   0.00006

------------------------------------------------------------------------------------------
                     CD SPECTRUM VIA TRANSITION ELECTRIC DIPOLE MOMENTS    
------------------------------------------------------------------------------------------
     Transition      Energy     Energy  Wavelength    R        MX        MY        MZ   
                      (eV)      (cm-1)    (nm)   (1e40*cgs)   (au)      (au)      (au)  
------------------------------------------------------------------------------------------
  0-1A  ->  1-1A    1.966226   15858.7   630.6   -0.51695  -0.00001   0.00038   0.00001
  0-1A  ->  2-1A    2.531000   20413.9   489.9   -0.21215  -0.00037  -0.00001   0.00035
  0-1A  ->  3-1A    3.546776   28606.7   349.6   -2.81880   0.00149  -0.00001   0.00011
  0-1A  ->  4-1A    3.922346   31635.9   316.1   -1.21553   0.00001  -0.00071  -0.00041
  0-1A  ->  5-1A    3.939481   31774.1   314.7    0.29571  -0.00222   0.01869   0.28661
  0-1A  ->  6-1A    4.130182   33312.2   300.2    2.12495   0.00011   0.37066  -0.05944
  0-1A  ->  7-1A    4.139417   33386.7   299.5   -0.13032  -0.00058  -0.00462   0.00028
  0-1A  ->  8-1A    4.175682   33679.1   296.9    0.47601  -0.00009   0.00084   0.01059
  0-1A  ->  9-1A    4.210507   33960.0   294.5   -0.08806  -0.00658   0.01636   0.85035
  0-1A  -> 10-1A    4.667942   37649.5   265.6   -0.00001  -0.00022   0.00001   0.00003
  0-1A  -> 11-1A    4.767188   38450.0   260.1    0.00002  -0.00112   0.00000   0.00004
  0-1A  -> 12-1A    4.855686   39163.8   255.3    0.86913  -0.00775  -0.00055   1.00454
  0-1A  -> 13-1A    5.370301   43314.4   230.9   -0.00393   0.00740   0.00003   0.00003
  0-1A  -> 14-1A    5.394187   43507.1   229.8   -0.01888   0.01730   0.00001   0.00003
  0-1A  -> 15-1A    5.398472   43541.6   229.7    0.03538  -0.00016  -0.00015  -0.00003
  0-1A  -> 16-1A    5.406823   43609.0   229.3   -0.00004   0.00017  -0.00001  -0.00005
  0-1A  -> 17-1A    5.433282   43822.4   228.2   -0.00025   0.00007  -0.00002   0.00036
  0-1A  -> 18-1A    5.437244   43854.3   228.0    0.13885  -0.00083  -0.00233   0.10300
  0-1A  -> 19-1A    5.500099   44361.3   225.4    0.08296  -0.00000   0.00049  -0.00002
  0-1A  -> 20-1A    5.613851   45278.8   220.9    0.00012   0.00251   0.00005   0.00002
  0-1A  -> 21-1A    5.622773   45350.7   220.5    0.00850  -0.02231  -0.00002  -0.00017
  0-1A  -> 22-1A    5.679125   45805.2   218.3    0.21199   0.00005   0.00032   0.00000
  0-1A  -> 23-1A    5.747170   46354.1   215.7    0.00006  -0.00248   0.00008   0.00001
  0-1A  -> 24-1A    6.000125   48394.3   206.6    0.25184  -0.00130  -0.00220   0.16603
  0-1A  -> 25-1A    6.044863   48755.1   205.1    0.01325  -0.00006   0.00004   0.00002
  0-1A  -> 26-1A    6.093431   49146.8   203.5    0.03170  -0.00001  -0.00015   0.00030
  0-1A  -> 27-1A    6.097469   49179.4   203.3   -0.02141  -0.00011   0.11454  -0.00051
  0-1A  -> 28-1A    6.341386   51146.7   195.5   -0.41942  -0.00022   0.23132   0.00062
  0-1A  -> 29-1A    6.357582   51277.4   195.0    0.00006   0.00003  -0.00006  -0.00011
  0-1A  -> 30-1A    6.371414   51388.9   194.6   -0.00007   0.00012   0.00001   0.00002

------------------------------------------------------------------------------------------
                     CD SPECTRUM VIA TRANSITION VELOCITY DIPOLE MOMENTS    
------------------------------------------------------------------------------------------
     Transition      Energy     Energy  Wavelength    R        MX        MY        MZ   
                      (eV)      (cm-1)    (nm)   (1e40*cgs)   (au)      (au)      (au)  
------------------------------------------------------------------------------------------
  0-1A  ->  1-1A    1.966226   15858.7   630.6   -0.51922  -0.00001   0.00038   0.00001
  0-1A  ->  2-1A    2.531000   20413.9   489.9   -0.21061  -0.00037  -0.00001   0.00035
  0-1A  ->  3-1A    3.546776   28606.7   349.6   -2.81456   0.00149  -0.00001   0.00011
  0-1A  ->  4-1A    3.922346   31635.9   316.1   -1.21769   0.00001  -0.00071  -0.00041
  0-1A  ->  5-1A    3.939481   31774.1   314.7    0.31422  -0.00222   0.01869   0.28661
  0-1A  ->  6-1A    4.130182   33312.2   300.2    2.14525   0.00011   0.37066  -0.05944
  0-1A  ->  7-1A    4.139417   33386.7   299.5   -0.13312  -0.00058  -0.00462   0.00028
  0-1A  ->  8-1A    4.175682   33679.1   296.9    0.55342  -0.00009   0.00084   0.01059
  0-1A  ->  9-1A    4.210507   33960.0   294.5   -0.15488  -0.00658   0.01636   0.85035
  0-1A  -> 10-1A    4.667942   37649.5   265.6   -0.00001  -0.00022   0.00001   0.00003
  0-1A  -> 11-1A    4.767188   38450.0   260.1    0.00002  -0.00112   0.00000   0.00004
  0-1A  -> 12-1A    4.855686   39163.8   255.3    0.92287  -0.00775  -0.00055   1.00454
  0-1A  -> 13-1A    5.370301   43314.4   230.9   -0.00395   0.00740   0.00003   0.00003
  0-1A  -> 14-1A    5.394187   43507.1   229.8   -0.01927   0.01730   0.00001   0.00003
  0-1A  -> 15-1A    5.398472   43541.6   229.7    0.03499  -0.00016  -0.00015  -0.00003
  0-1A  -> 16-1A    5.406823   43609.0   229.3   -0.00002   0.00017  -0.00001  -0.00005
  0-1A  -> 17-1A    5.433282   43822.4   228.2   -0.00024   0.00007  -0.00002   0.00036
  0-1A  -> 18-1A    5.437244   43854.3   228.0    0.12767  -0.00083  -0.00233   0.10300
  0-1A  -> 19-1A    5.500099   44361.3   225.4    0.08286  -0.00000   0.00049  -0.00002
  0-1A  -> 20-1A    5.613851   45278.8   220.9    0.00011   0.00251   0.00005   0.00002
  0-1A  -> 21-1A    5.622773   45350.7   220.5    0.01136  -0.02231  -0.00002  -0.00017
  0-1A  -> 22-1A    5.679125   45805.2   218.3    0.20859   0.00005   0.00032   0.00000
  0-1A  -> 23-1A    5.747170   46354.1   215.7    0.00007  -0.00248   0.00008   0.00001
  0-1A  -> 24-1A    6.000125   48394.3   206.6    0.24016  -0.00130  -0.00220   0.16603
  0-1A  -> 25-1A    6.044863   48755.1   205.1    0.01347  -0.00006   0.00004   0.00002
  0-1A  -> 26-1A    6.093431   49146.8   203.5    0.02099  -0.00001  -0.00015   0.00030
  0-1A  -> 27-1A    6.097469   49179.4   203.3   -0.03512  -0.00011   0.11454  -0.00051
  0-1A  -> 28-1A    6.341386   51146.7   195.5   -0.42624  -0.00022   0.23132   0.00062
  0-1A  -> 29-1A    6.357582   51277.4   195.0    0.00006   0.00003  -0.00006  -0.00011
  0-1A  -> 30-1A    6.371414   51388.9   194.6   -0.00005   0.00012   0.00001   0.00002

Total run time:    15516.933 sec

           *** ORCA-CIS/TD-DFT FINISHED WITHOUT ERROR ***
-----------------------
CIS/TD-DFT TOTAL ENERGY
-----------------------

    E(SCF)  =   -991.185983321 Eh
    DE(CIS) =      0.072257472 Eh (Root  1)
    ----------------------------- ---------
    E(tot)  =   -991.113725849 Eh


Maximum memory used throughout the entire CIS-calculation: 2729.5 MB
=> NOW LEAVING ORCA_CIS

-------------------------   --------------------
FINAL SINGLE POINT ENERGY      -991.113725849120
-------------------------   --------------------



           ************************************************************
           *        Program running with 4 parallel MPI-processes     *
           *              working on a common directory               *
           ************************************************************

------------------------------------------------------------------------------
                              ORCA PROPERTY CALCULATIONS
------------------------------------------------------------------------------

GBWName                                 ... tddft.gbw
Number of atoms                         ...     42
Number of basis functions               ...    852
Max core memory                         ...   3000 MB

Electric properties:
Dipole moment                           ... YES
Quadrupole moment                       ...  NO
Static polarizability (Dipole/Dipole)   ...  NO
Static polarizability (Dipole/Quad.)    ...  NO
Static polarizability (Quad./Quad.)     ...  NO
Static polarizability (Velocity)        ...  NO
Static hyperpolarizability              ...  NO

Atomic electric properties:
Dipole moment                           ...  NO
Quadrupole moment                       ...  NO
Static polarizability                   ...  NO

Choice of electric origin               ... Center of mass
Position of electric origin             ...    -0.003599    -0.013811     0.091660

General magnetic properties:
Magnetizability                         ...  NO

EPR properties:
g-Tensor (aka g-matrix)                 ...  NO
Zero-Field splitting spin-orbit         ...  NO
Zero-field splitting spin-spin          ...  NO
Hyperfine couplings                     ...  NO (   0 nuclei)
Quadrupole couplings                    ...  NO (   0 nuclei)
Contact density                         ...  NO (   0 nuclei)

NMR properties:
Chemical shifts                         ...  NO (   0 nuclei)
Spin-rotation constants                 ...  NO (   0 nuclei)
Spin-spin couplings                     ...  NO (   0 nuclei,    0 pairs)

Choice of magnetic origin               ... GIAO
Position of magnetic origin             ...     0.000000     0.000000     0.000000

Properties with geometric perturbations:
SCF Hessian                             ...  NO
IR spectrum                             ...  NO
VCD spectrum                            ...  NO
X-ray spectroscopy properties:
SCF XES/XAS/RIXS spectra                ...  NO

SCF SOC stabilization energy            ...  NO
Diagonal Born-Oppenheimer correction    ...  NO

-------------
DIPOLE MOMENT
-------------

Method             : SCF
Type of density    : Electron Density
Multiplicity       :   1
Irrep              :   0
Energy             :  -991.1859833214347191 Eh
Basis              : AO
                                X                 Y                 Z
Electronic contribution:     -0.000001078      -0.000580102      -0.000362617
Nuclear contribution   :     -0.000113296       0.000066341       0.000274503
                        -----------------------------------------
Total Dipole Moment    :     -0.000114374      -0.000513761      -0.000088114
                        -----------------------------------------
Magnitude (a.u.)       :      0.000533663
Magnitude (Debye)      :      0.001356463



--------------------
Rotational spectrum 
--------------------
 
Rotational constants in cm-1:             0.008883             0.008130             0.004258 
Rotational constants in MHz :           266.312298           243.718156           127.657012 

Dipole components along the rotational axes: 
x,y,z [a.u.] :    -0.000115     0.000514    -0.000086 
x,y,z [Debye]:    -0.000293     0.001306    -0.000220 

 

Dipole moment calculation done in   0.1 sec 

Maximum memory used throughout the entire PROP-calculation: 86.7 MB

--------------------------------
SUGGESTED CITATIONS FOR THIS RUN
--------------------------------

Below you find a list of papers that are relevant to this ORCA run
We neither can nor want to force you to cite these papers, but we appreciate if you do
You receive ORCA, which is the product of decades of hard work by many enthusiastic individuals, for free
The only thing we kindly ask in return is that you cite our papers,
We deeply appreciate it, if you show your appreciation for ORCA by not just citing the generic ORCA reference.

Please note that relegating all ORCA citations to the supporting information does *not* help us.
SI sections are not indexed - citations you put there will not count into any citation statistics
But we need these citations in order to attract the funding resources that allow us to do what we are doing

Therefore, if you are a happy ORCA user, please consider citing a few of the papers listed below in the main body of your paper

In addition to the list printed below, the program has created the file tddft.bibtex that contains the list in bibtex format
You can import this file easily into all common literature databanks and citation aid programs

It goes without saying that in many instances, there are alternative algorithms to achieve similar
results as the ones you have gotten from ORCA. It is, of course, also the case that in some instances
ORCA just re-implements algorithms worked out by others. We are fully aware of that and we are also
fully appreciative of our colleagues work. Hence this citation list should not be read as indicating
that the listed papers, which are focused on our own work, are the only ones worth citing. It simply
meant to make it easier for users to cite ORCA specific papers. It is not a substitute for doing your
own literature research and citing the relevant literature in a scientifically appropriate manner.

List of essential papers. We consider these as the minimum necessary citations

  1. Neese, F.
     Software update: the ORCA program system, version 6.0
     WIRES Comput. Molec. Sci. 2025 15(1), e70019
     doi.org/10.1002/wcms.70019

List of papers to cite with high priority. The work reported in these papers was absolutely
necessary for this run to complete.
Our perspective: the developers of density functionals and basis sets usually get cited in chemistry papers
Good! But without the algorithms to do something with them, the functionals or basis sets would not do anything.
Hence, in our opinion, the algorithm design and method developments papers are equally worthy of getting cited

  1. Neese, F.; Olbrich, G.
     Efficient use of the resolution of the identity approximation in time-dependent density functional calculations with hybrid density functionals
     Chem. Phys. Lett. 2002 362 , 170-178
     doi.org/10.1016/s0009-2614(02)01053-9
  2. Neese, F.
     An improvement of the resolution of the identity approximation for the formation of the Coulomb matrix
     J. Comp. Chem. 2003 24(14), 1740-1747
     doi.org/10.1002/jcc.10318
  3. Neese, F.; Wennmohs, F.; Hansen, A.; Becker, U.
     Efficient, approximate and parallel Hartree-Fock and hybrid DFT calculations. A 'chain-of-spheres' algorithm for the Hartree-Fock exchange
     Chem. Phys. 2009 356(1-3), 98-109
     doi.org/10.1016/j.chemphys.2008.10.036
  4. Garcia-Rates, M.; Neese, F.
     Effect of the Solute Cavity on the Solvation Energy and its Derivatives within the Framework of the Gaussian Charge Scheme
     J. Comput. Chem. 2020 41 , 922-939
     doi.org/10.1002/jcc.26139
  5. Helmich-Paris, B.; de Souza, B.; Neese, F.; Izsák, R.
     An improved chain of spheres for exchange algorithm
     J. Chem. Phys. 2021 155(10), 104109
     doi.org/10.1063/5.0058766
  6. Neese, F.
     The SHARK Integral Generation and Digestion System
     J. Comp. Chem. 2022 44(3), 381
     doi.org/10.1002/jcc.26942

List of suggested additional citations. These are papers that are important in the 'surrounding' of 
of this run, or papers that preceded the highly important papers. If you like your results we are grateful for a citation.

  1. Izsak, R.; Neese, F.
     An overlap fitted chain of spheres exchange method
     J. Chem. Phys. 2011 135 , 144105
     doi.org/10.1063/1.3646921
  2. Izsak, R.; Hansen, A.; Neese, F.
     The resolution of identity and chain of spheres approximations for the LPNO-CCSD singles Fock term
     Molec. Phys. 2012 110 , 2413-2417
     doi.org/10.1080/00268976.2012.687466
  3. Neese, F.
     The ORCA program system
     WIRES Comput. Molec. Sci. 2012 2(1), 73-78
     doi.org/10.1002/wcms.81
  4. Izsak, R.; Neese, F.; Klopper, W.
     Robust fitting techniques in the chain of spheres approximation to the Fock exchange: The role of the complementary space
     J. Chem. Phys. 2013 139 , 
     doi.org/10.1063/1.4819264
  5. Neese, F.
     Software update: the ORCA program system, version 4.0
     WIRES Comput. Molec. Sci. 2018 8(1), 1-6
     doi.org/10.1002/wcms.1327
  6. Neese, F.; Wennmohs, F.; Becker, U.; Riplinger, C.
     The ORCA quantum chemistry program package
     J. Chem. Phys. 2020 152(22), 224108
     doi.org/10.1063/5.0004608
  7. Neese, F.
     Software update: The ORCA program system—Version 5.0
     WIRES Comput. Molec. Sci. 2022 12(1), e1606
     doi.org/10.1002/wcms.1606

List of optional additional citations

  1. Neese, F.
     Approximate second-order SCF convergence for spin unrestricted wavefunctions
     Chem. Phys. Lett. 2000 325(1-3), 93-98
     doi.org/10.1016/s0009-2614(00)00662-x

Timings for individual modules:

Sum of individual times          ...    16131.190 sec (= 268.853 min)
Startup calculation              ...       21.282 sec (=   0.355 min)   0.1 %
SCF iterations                   ...      589.296 sec (=   9.822 min)   3.7 %
Property integrals               ...        2.406 sec (=   0.040 min)   0.0 %
Property calculations            ...        0.725 sec (=   0.012 min)   0.0 %
CIS module                       ...    15517.481 sec (= 258.625 min)  96.2 %
                             ****ORCA TERMINATED NORMALLY****
TOTAL RUN TIME: 0 days 4 hours 28 minutes 51 seconds 605 msec
