
                                 *****************
                                 * O   R   C   A *
                                 *****************

                                            #,                                       
                                            ###                                      
                                            ####                                     
                                            #####                                    
                                            ######                                   
                                           ########,                                 
                                     ,,################,,,,,                         
                               ,,#################################,,                 
                          ,,##########################################,,             
                       ,#########################################, ''#####,          
                    ,#############################################,,   '####,        
                  ,##################################################,,,,####,       
                ,###########''''           ''''###############################       
              ,#####''   ,,,,##########,,,,          '''####'''          '####       
            ,##' ,,,,###########################,,,                        '##       
           ' ,,###''''                  '''############,,,                           
         ,,##''                                '''############,,,,        ,,,,,,###''
      ,#''                                            '''#######################'''  
     '                                                          ''''####''''         
             ,#######,   #######,   ,#######,      ##                                
            ,#'     '#,  ##    ##  ,#'     '#,    #''#        ,####,    ,#,          
            ##       ##  ##   ,#'  ##            #'  '#       #'       ,# #          
            ##       ##  #######   ##           ,######,      #####,      #          
            '#,     ,#'  ##    ##  '#,     ,#' ,#      #,     #,   #      #          
             '#######'   ##     ##  '#######'  #'      '#     '####' #    #          



                #########################################################
                #                        -***-                          #
                #          Department of theory and spectroscopy        #
                #                                                       #
                #                      Frank Neese                      #
                #                                                       #
                #     Directorship, Architecture, Infrastructure        #
                #                    SHARK, DRIVERS                     #
                #        Core code/Algorithms in most modules           #
                #                                                       #
                #        Max Planck Institute fuer Kohlenforschung      #
                #                Kaiser Wilhelm Platz 1                 #
                #                 D-45470 Muelheim/Ruhr                 #
                #                      Germany                          #
                #                                                       #
                #                  All rights reserved                  #
                #                        -***-                          #
                #########################################################


                         Program Version 6.1.1  -  RELEASE   -
                                (GIT: $487d211c$)
                          ($2025-11-21 10:33:24 +0100$)


 With contributions from (in alphabetic order):
[Max-Planck-Institut fuer Kohlenforschung]                               
  Daniel Aravena         : Magnetic Suceptibility                        
  Michael Atanasov       : Ab Initio Ligand Field Theory (pilot matlab implementation)
  Alexander A. Auer      : GIAO ZORA, VPT2 properties, NMR spectrum      
  Ute Becker             : All parallelization in ORCA, NUMFREQ, NUMCALC 
  Giovanni Bistoni       : ED, misc. LED, open-shell LED, HFLD           
  Dmytro Bykov           : pre 5.0 version of the SCF Hessian            
  Marcos Casanova-Páez   : Triplet and SCS-CIS(D). UHF-(DLPNO)-IP/EA/STEOM-CCSD. UHF-CVS-IP/STEOM-CCSD   
  Vijay G. Chilkuri      : MRCI spin determinant printing, contributions to CSF-ICE 
  Pauline Colinet        : FMM embedding                                 
  Dipayan Datta          : RHF DLPNO-CCSD density                        
  Achintya Kumar Dutta   : EOM-CC, STEOM-CC                              
  Nicolas Foglia         : Exact transition moments, OPA infrastructure, MCD improvements    
  Dmitry Ganyushin       : Spin-Orbit,Spin-Spin,Magnetic field MRCI      
  Miquel Garcia-Rates    : C-PCM and meta-GGA Hessian, CCSD/C-PCM, Gaussian charge scheme 
  Tiago L. C. Gouveia    : GS-ROHF, GS-ROCIS                             
  Yang Guo               : DLPNO-NEVPT2, F12-NEVPT2, CIM, IAO-localization        
  Andreas Hansen         : Spin unrestricted coupled pair/coupled cluster methods 
  Ingolf Harden          : AUTO-CI MPn and infrastructure                
  Benjamin Helmich-Paris : MC-RPA, TRAH-(SCF,CASSCF), AVAS, COSX integrals, SCF dyn. polar., MC-PDFT, srDFT 
  Lee Huntington         : MR-EOM, pCC                                   
  Robert Izsak           : Overlap fitted RIJCOSX, COSX-SCS-MP3, EOM     
  Riya Kayal             : Wick's Theorem for AUTO-CI, AUTO-CI UHF-CCSDT 
  Emily Kempfer          : AUTO-CI RHF CISDT and CCSDT, approximate NEVPT4
  Christian Kollmar      : KDIIS, OOCD, Brueckner-CCSD(T), CCSD density, CASPT2, CASPT2-K, improved NEVPT2 
  Axel Koslowski         : Symmetry handling                             
  Simone Kossmann        : meta-GGA functionals, TD-DFT gradient, OOMP2, (MP2 Hessian; deprecated post 5.0) 
  Lucas Lang             : DCDCAS, Hyperfine gauge corrections, ICE-SOC+SSC
  Marvin Lechner         : AUTO-CI (C++ implementation), FIC-MRCC        
  Spencer Leger          : CASSCF response                               
  Dagmar Lenk            : GEPOL surface, SMD, ORCA-2-JSON               
  Dimitrios Liakos       : Extrapolation schemes; Compound Job, Property file
  Dimitrios Manganas     : Further ROCIS development; embedding schemes. LFT, Crystal Embedding 
  Dimitrios Pantazis     : SARC Basis sets                               
  Anastasios Papadopoulos: AUTO-CI, single reference methods and gradients 
  Taras Petrenko         : pre 6.0 DFT Hessian and TD-DFT gradient,  ECA, NRVS 
  Petra Pikulova         : Analytic Raman intensities                    
  Peter Pinski           : DLPNO-MP2, DLPNO-MP2 Gradient                 
  Shashank Vittal Rao    : ES-AILFT, MagRelax                            
  Christoph Reimann      : Effective Core Potentials                     
  Marius Retegan         : Local ZFS, SOC                                
  Christoph Riplinger    : Optimizer, TS searches, QM/MM, DLPNO-CCSD(T), (RO)-DLPNO pert. Triples 
  Michael Roemelt        : Original ROCIS implementation, recursive CI coupling coefficients
  Masaaki Saitow         : Open-shell DLPNO-CCSD energy and density      
  Barbara Sandhoefer     : DKH picture change effects                    
  Yorick L. A. Schmerwitz: GMF and freeze-and-release deltaSCF, NEB S-IDPP initial path                    
  Kantharuban Sivalingam : CASSCF convergence/infrastructure, NEVPT2, NEVPT3, NEVPT4(SD), FIC-MRCI and CEPA variants
  Bernardo de Souza      : ESD, SOC TD-DFT                               
  Georgi L. Stoychev     : AutoAux, RI-MP2 NMR, DLPNO-MP2 response, X2C  
  Van Anh Tran           : RI-MP2 g-tensors                              
  Willem Van den Heuvel  : Paramagnetic NMR                              
  Zikuan Wang            : NOTCH, Electric field optimization            
  Frank Wennmohs         : Technical directorship and infrastructure     
  Hang Xu                : AUTO-CI-Response properties                   
                                                                         
[FACCTs GmbH]                                                            
  Markus Bursch, Nicolas Foglia, Miquel Garcia-Rates, Ingolf Harden, Hagen Neugebauer, Anastasios Papadopoulos, 
  Christoph Riplinger, Bernardo de Souza, Georgi L. Stoychev                                                    
                                                                 
  APM, various basis sets, CI-OPT, improved COSX, DLPNO-Multilevel,           
  DOCKER, DRACO, updates on ESD, Fragmentator, GOAT, IRC, LR-CPCM, L-BFGS, MBIS, meta-GGA TD-DFT gradient, ML-optimized integration grids, 
  MM, NACMEs, nearIR, NEB, NEB-TS, NL-DFT gradient (VV10), 2- and 3-layer-ONIOM, interface openCOSMO-RS, QMMM,   
  Crystal-QMMM, RESP, rigid body optimization, SF, symmetry and pop. for TD-DFT, various functionals, SOLVATOR                                   
                                                                         
[Other institutions]                                                     
  V. Asgeirsson          : NEB                                           
  Christoph Bannwarth    : sTDA-DFT, sTD-DFT, PBEh-3c, B97-3c, D3        
  Giovanni Bistoni       : ETS/NOCV, ADLD/ADEX, COVALED                  
  Martin Brehm           : Molecular dynamics                            
  Ronald Cardenas        : ETS/NOCV                                      
  Martina Colucci        : COVALED                                       
  Sebastian Ehlert       : rSCAN, r2SCAN, r2SCAN-3c, D4, dhf basis sets  
  Marvin Friede          : D4 for Fr, Ra, Ac-Lr                          
  Lars Goerigk           : TD-DFT with DH, B97 family of functionals     
  Stefan Grimme          : VdW corrections, initial TS optimization, DFT functionals, gCP, sTDA/sTD-DF 
  Waldemar Hujo          : DFT-NL                                        
  H. Jonsson             : NEB                                           
  Holger Kruse           : gCP                                           
  Marcel Mueller         : wB97X-3c, vDZP basis set                      
  Hagen Neugebauer       : wr2SCAN, Native XTB                           
  Gianluca Regni         : ADLD/ADEX                                     
  Tobias Risthaus        : pre 6.0 range-separated hybrid DFT and stability analysis
  Lukas Wittmann         : regularized MP2, r2SCAN double-hybrids, wr2SCAN        
                                                                         
We gratefully acknowledge several colleagues who have allowed us to      
interface, adapt or use parts of their codes:                            
  Ed Valeev, F. Pavosevic, A. Kumar             : LibInt (2-el integral package), F12 methods 
  Garnet Chan, S. Sharma, J. Yang, R. Olivares  : DMRG                   
  Ulf Ekstrom                                   : XCFun DFT Library      
  Mihaly Kallay                                 : mrcc  (arbitrary order and MRCC methods)
  Frank Weinhold                                : gennbo (NPA and NBO analysis)           
  Simon Mueller                                 : openCOSMO-RS                            
  Christopher J. Cramer and Donald G. Truhlar   : smd solvation model                     
  S Lehtola, MJT Oliveira, MAL Marques          : LibXC Library                           
  Liviu Ungur et al                             : ANISO software                          


 Your calculation uses the libint2 library for the computation of 2-el integrals
 For citations please refer to: http://libint.valeyev.net

 Your ORCA version has been built with support for libXC version: 7.0.0
 For citations please refer to: https://libxc.gitlab.io

 This ORCA versions uses:
   CBLAS   interface :  Fast vector & matrix operations
   LAPACKE interface :  Fast linear algebra routines
   SCALAPACK package :  Parallel linear algebra routines
   Shared memory     :  Shared parallel matrices
   BLAS/LAPACK       :  OpenBLAS 0.3.29  USE64BITINT DYNAMIC_ARCH NO_AFFINITY Haswell SINGLE_THREADED
        Core in use  :  Haswell
   Copyright (c) 2011-2014, The OpenBLAS Project


  ***********************************
  * Starting time: Sat Jul  4 18:05:06 2026
  * Host name:     steezy
  * Process ID:    1141298
  * Working dir.:  /home/jannes/chlorophyll-ladder/006-core-ladder/bacteriochlorin/03_tddft_ch2cl2/m062x
  ***********************************

NOTE: MaxCore=3000 MB was set to SCF,MP2,MDCI,CIPSI,MRCI,RASCI and CIS
      => If you want to overwrite this, your respective input block should be placed after the MaxCore statement


***************************************
The coordinates will be read from file: /home/jannes/chlorophyll-ladder/006-core-ladder/bacteriochlorin/01_opt/bacteriochlorin_opt_b3lypd4_tzvp.xyz
***************************************


XCFun DFT library Copyright 2009-2010 Ulf Ekstrom and contributors.
See http://admol.org/xcfun for more information.
This is free software; see the source code for copying conditions.
There is ABSOLUTELY NO WARRANTY; not even for MERCHANTABILITY or FITNESS FOR A PARTICULAR PURPOSE.
For details see the documentation.
Scientific users of this library should cite U. Ekstrom, L. Visscher, R. Bast, A. J. Thorvaldsen and K. Ruud;
J.Chem.Theor.Comp. 2010, DOI: 10.1021/ct100117s
XCFun Version 0.99 

================================================================================

----- Orbital basis set information -----
Your calculation utilizes the basis: def2-TZVP
   F. Weigend and R. Ahlrichs, Phys. Chem. Chem. Phys. 7, 3297 (2005).

----- AuxJ basis set information -----
Your calculation utilizes the auxiliary basis: def2/J
   H-Rn: F. Weigend, Phys. Chem. Chem. Phys. 8, 1057 (2006).
   Fr-Lr: K. Eichkorn, F. Weigend, O. Treutler, R. Ahlrichs; Theor. Chem. Acc. 97, 119 (1997).

================================================================================
                                        WARNINGS
                       Please study these warnings very carefully!
================================================================================

WARNING: Old DensityContainer found on disk!
         Will remove this file - 
         If you want to keep old densities, please start your calculation with a different basename. 

WARNING: Functional chosen is sensitive to the integration grid.
         DEFGRID3 seems to be a minimum grid for robust results!

WARNING: CIS/ROCIS methods need fully converged wavefunctions
  ===> : Setting SCFConvForced true
         You can overwrite this default with %scf ConvForced false 


================================================================================
                                       INPUT FILE
================================================================================
NAME = tddft.inp
|  1> %pal nprocs 4 end
|  2> %maxcore 3000
|  3> ! M062X def2-TZVP def2/J RIJCOSX DefGrid3 TightSCF CPCM(CH2Cl2)
|  4> %tddft
|  5>   nroots 30
|  6>   tda false
|  7>   triplets false
|  8> end
|  9> * xyzfile 0 1 /home/jannes/chlorophyll-ladder/006-core-ladder/bacteriochlorin/01_opt/bacteriochlorin_opt_b3lypd4_tzvp.xyz
| 10> 
| 11>                          ****END OF INPUT****
================================================================================

                       ****************************
                       * Single Point Calculation *
                       ****************************

---------------------------------
CARTESIAN COORDINATES (ANGSTROEM)
---------------------------------
  N     -2.131412   -0.009265    0.032172
  N      2.127586   -0.005444    0.064802
  N      0.000040   -2.091714    0.051036
  N     -0.003835    2.077181    0.045782
  C     -4.387102   -0.778213    0.013758
  C      4.384652   -0.770130    0.089686
  C     -4.388540    0.755536    0.015653
  C      4.383316    0.763535    0.074833
  C     -2.902846   -1.110617    0.025018
  C      2.901084   -1.105349    0.072960
  C     -2.904906    1.090705    0.027297
  C      2.899036    1.095964    0.068653
  C     -1.127031   -2.870559    0.036698
  C      1.128578   -2.868549    0.056111
  C     -1.132389    2.853974    0.042869
  C      1.123252    2.856000    0.058324
  C     -2.444220   -2.415686    0.027064
  C      2.444908   -2.411274    0.068798
  C     -2.448734    2.396618    0.032228
  C      2.440445    2.401034    0.065913
  C     -0.684322   -4.222404    0.031297
  C      0.688446   -4.221180    0.043188
  C     -0.692255    4.206595    0.055320
  C      0.680553    4.207830    0.064664
  H     -4.874413   -1.199174   -0.868103
  H     -4.888191   -1.201433    0.886742
  H      4.866168   -1.181777    0.979204
  H      4.892941   -1.200689   -0.775400
  H     -4.876916    1.177784   -0.864978
  H     -4.890163    1.175629    0.889862
  H      4.877404    1.194980    0.947676
  H      4.877711    1.176156   -0.807129
  H     -3.197095   -3.194415    0.018208
  H      3.199257   -3.188609    0.073971
  H     -3.203105    3.173945    0.029451
  H      3.193369    3.179739    0.072597
  H     -0.000955   -1.084944    0.069219
  H     -0.002847    1.070445    0.027203
  H     -1.341762   -5.076648    0.018452
  H      1.347534   -5.074248    0.041693
  H     -1.351322    5.059677    0.058203
  H      1.337982    5.062096    0.076507

----------------------------
CARTESIAN COORDINATES (A.U.)
----------------------------
  NO LB      ZA    FRAG     MASS         X           Y           Z
   0 N     7.0000    0    14.007   -4.027786   -0.017508    0.060797
   1 N     7.0000    0    14.007    4.020555   -0.010287    0.122458
   2 N     7.0000    0    14.007    0.000076   -3.952767    0.096444
   3 N     7.0000    0    14.007   -0.007246    3.925303    0.086515
   4 C     6.0000    0    12.011   -8.290422   -1.470610    0.025999
   5 C     6.0000    0    12.011    8.285791   -1.455336    0.169482
   6 C     6.0000    0    12.011   -8.293139    1.427757    0.029579
   7 C     6.0000    0    12.011    8.283266    1.442873    0.141415
   8 C     6.0000    0    12.011   -5.485584   -2.098762    0.047278
   9 C     6.0000    0    12.011    5.482255   -2.088808    0.137874
  10 C     6.0000    0    12.011   -5.489477    2.061134    0.051585
  11 C     6.0000    0    12.011    5.478383    2.071071    0.129735
  12 C     6.0000    0    12.011   -2.129780   -5.424569    0.069348
  13 C     6.0000    0    12.011    2.132703   -5.420773    0.106034
  14 C     6.0000    0    12.011   -2.139906    5.393229    0.081011
  15 C     6.0000    0    12.011    2.122639    5.397058    0.110216
  16 C     6.0000    0    12.011   -4.618906   -4.564984    0.051143
  17 C     6.0000    0    12.011    4.620206   -4.556648    0.130009
  18 C     6.0000    0    12.011   -4.627436    4.528951    0.060901
  19 C     6.0000    0    12.011    4.611773    4.537297    0.124558
  20 C     6.0000    0    12.011   -1.293181   -7.979187    0.059142
  21 C     6.0000    0    12.011    1.300974   -7.976873    0.081614
  22 C     6.0000    0    12.011   -1.308173    7.949313    0.104540
  23 C     6.0000    0    12.011    1.286059    7.951646    0.122197
  24 H     1.0000    0     1.008   -9.211305   -2.266110   -1.640476
  25 H     1.0000    0     1.008   -9.237342   -2.270380    1.675699
  26 H     1.0000    0     1.008    9.195725   -2.233235    1.850427
  27 H     1.0000    0     1.008    9.246319   -2.268974   -1.465294
  28 H     1.0000    0     1.008   -9.216036    2.225689   -1.634572
  29 H     1.0000    0     1.008   -9.241068    2.221618    1.681595
  30 H     1.0000    0     1.008    9.216957    2.258186    1.790848
  31 H     1.0000    0     1.008    9.217539    2.222613   -1.525252
  32 H     1.0000    0     1.008   -6.041635   -6.036570    0.034408
  33 H     1.0000    0     1.008    6.045720   -6.025599    0.139786
  34 H     1.0000    0     1.008   -6.052992    5.997887    0.055654
  35 H     1.0000    0     1.008    6.034593    6.008836    0.137188
  36 H     1.0000    0     1.008   -0.001804   -2.050246    0.130805
  37 H     1.0000    0     1.008   -0.005380    2.022848    0.051406
  38 H     1.0000    0     1.008   -2.535563   -9.593475    0.034869
  39 H     1.0000    0     1.008    2.546470   -9.588939    0.078788
  40 H     1.0000    0     1.008   -2.553629    9.561403    0.109988
  41 H     1.0000    0     1.008    2.528419    9.565976    0.144577

--------------------------------
INTERNAL COORDINATES (ANGSTROEM)
--------------------------------
 N      0   0   0     0.000000000000     0.00000000     0.00000000
 N      1   0   0     4.259125255101     0.00000000     0.00000000
 N      2   1   0     2.979793073612    44.38682812     0.00000000
 N      1   2   3     2.979937588325    44.38882278   180.00431492
 C      1   2   3     2.383224331891   161.22809761   359.84573394
 C      2   1   3     2.383214003440   161.23248144   359.50233838
 C      5   1   2     1.533751430147    71.22986369   180.01419164
 C      6   2   1     1.533738243799    71.22972948   180.01356821
 C      1   2   3     1.344670180013   125.06153963   359.86560291
 C      2   1   3     1.344677722639   125.06635837   359.95346450
 C      1   2   3     1.344711972034   125.06380517   179.87564624
 C      2   1   3     1.344710848961   125.05982141   179.96244185
 C      3   2   1     1.370070404362   170.20155793     1.63404683
 C      3   2   1     1.370071299641    78.97977972   179.80758086
 C      4   1   2     1.370055693583    78.98028333   180.28705742
 C      4   1   2     1.370051411824   170.20050419   358.79325121
 C      9   1   2     1.383309867927   125.62733382     0.00000000
 C     10   2   1     1.383312771574   125.62637910     0.16888808
 C     11   1   2     1.383302371438   125.62886297     0.00000000
 C     12   2   1     1.383300910147   125.63008454     0.16389811
 C     13   3  14     1.422500103026   106.51427545   359.95175657
 C     21  13   3     1.372819871769   108.07890070     0.03216577
 C     15   4   1     1.422482985703   106.51359629   179.68364988
 C     23  15   4     1.372840900539   108.07850459     0.02922486
 H      5   1   2     1.091951320565   123.57436885   285.31314714
 H      5   1   2     1.091927252438   123.58847392    74.71153694
 H      6   2   1     1.092040481764   123.16475135   285.31648811
 H      6   2   1     1.091839600997   123.99708756    74.71334140
 H      7   5   1     1.091931643407   112.71330269   119.42108336
 H      7   5   1     1.091945227046   112.71447592   240.60097410
 H      8   6   2     1.091843399771   112.76786613   119.85885046
 H      8   6   2     1.092034883831   112.65954529   241.03998255
 H     17   9   1     1.083198875997   116.60285971   180.13059775
 H     18  10   2     1.083198729248   116.60342035   179.84122245
 H     19  11   1     1.083200322095   116.60279398   180.13536402
 H     20  12   2     1.083199329200   116.60191752   179.83097021
 H      3   2   1     1.006935583970    45.62088712   358.45420150
 H      4   1   2     1.006907456919    45.61881323     1.58342957
 H     21  13   3     1.078019246471   124.28481501   180.11702728
 H     22  21  13     1.078019347289   127.63631014   180.09222208
 H     23  15   4     1.078018952298   124.28677920   180.11924900
 H     24  23  15     1.078018487835   127.63449325   180.09388479

---------------------------
INTERNAL COORDINATES (A.U.)
---------------------------
 N      0   0   0     0.000000000000     0.00000000     0.00000000
 N      1   0   0     8.048580302209     0.00000000     0.00000000
 N      2   1   0     5.630992844881    44.38682812     0.00000000
 N      1   2   3     5.631265938112    44.38882278   180.00431492
 C      1   2   3     4.503641302972   161.22809761   359.84573394
 C      2   1   3     4.503621785027   161.23248144   359.50233838
 C      5   1   2     2.898370160487    71.22986369   180.01419164
 C      6   2   1     2.898345241901    71.22972948   180.01356821
 C      1   2   3     2.541058380676   125.06153963   359.86560291
 C      2   1   3     2.541072634173   125.06635837   359.95346450
 C      1   2   3     2.541137356150   125.06380517   179.87564624
 C      2   1   3     2.541135233849   125.05982141   179.96244185
 C      3   2   1     2.589057848435   170.20155793     1.63404683
 C      3   2   1     2.589059540267    78.97977972   179.80758086
 C      4   1   2     2.589030049091    78.98028333   180.28705742
 C      4   1   2     2.589021957739   170.20050419   358.79325121
 C      9   1   2     2.614076808732   125.62733382     0.00000000
 C     10   2   1     2.614082295830   125.62637910     0.16888808
 C     11   1   2     2.614062642421   125.62886297     0.00000000
 C     12   2   1     2.614059880982   125.63008454     0.16389811
 C     13   3  14     2.688135620194   106.51427545   359.95175657
 C     21  13   3     2.594253588848   108.07890070     0.03216577
 C     15   4   1     2.688103273141   106.51359629   179.68364988
 C     23  15   4     2.594293327464   108.07850459     0.02922486
 H      5   1   2     2.063488947441   123.57436885   285.31314714
 H      5   1   2     2.063443465274   123.58847392    74.71153694
 H      6   2   1     2.063657437689   123.16475135   285.31648811
 H      6   2   1     2.063277828053   123.99708756    74.71334140
 H      7   5   1     2.063451763002   112.71330269   119.42108336
 H      7   5   1     2.063477432359   112.71447592   240.60097410
 H      8   6   2     2.063285006698   112.76786613   119.85885046
 H      8   6   2     2.063646859130   112.65954529   241.03998255
 H     17   9   1     2.046949224206   116.60285971   180.13059775
 H     18  10   2     2.046948946890   116.60342035   179.84122245
 H     19  11   1     2.046951956936   116.60279398   180.13536402
 H     20  12   2     2.046950080635   116.60191752   179.83097021
 H      3   2   1     1.902832488203    45.62088712   358.45420150
 H      4   1   2     1.902779335779    45.61881323     1.58342957
 H     21  13   3     2.037161142927   124.28481501   180.11702728
 H     22  21  13     2.037161333444   127.63631014   180.09222208
 H     23  15   4     2.037160587019   124.28677920   180.11924900
 H     24  23  15     2.037159709312   127.63449325   180.09388479

---------------------
BASIS SET INFORMATION
---------------------
There are 3 groups of distinct atoms

 Group   1 Type N   : 11s6p2d1f contracted to 5s3p2d1f pattern {62111/411/11/1}
 Group   2 Type C   : 11s6p2d1f contracted to 5s3p2d1f pattern {62111/411/11/1}
 Group   3 Type H   : 5s1p contracted to 3s1p pattern {311/1}

Atom   0N    basis set group =>   1
Atom   1N    basis set group =>   1
Atom   2N    basis set group =>   1
Atom   3N    basis set group =>   1
Atom   4C    basis set group =>   2
Atom   5C    basis set group =>   2
Atom   6C    basis set group =>   2
Atom   7C    basis set group =>   2
Atom   8C    basis set group =>   2
Atom   9C    basis set group =>   2
Atom  10C    basis set group =>   2
Atom  11C    basis set group =>   2
Atom  12C    basis set group =>   2
Atom  13C    basis set group =>   2
Atom  14C    basis set group =>   2
Atom  15C    basis set group =>   2
Atom  16C    basis set group =>   2
Atom  17C    basis set group =>   2
Atom  18C    basis set group =>   2
Atom  19C    basis set group =>   2
Atom  20C    basis set group =>   2
Atom  21C    basis set group =>   2
Atom  22C    basis set group =>   2
Atom  23C    basis set group =>   2
Atom  24H    basis set group =>   3
Atom  25H    basis set group =>   3
Atom  26H    basis set group =>   3
Atom  27H    basis set group =>   3
Atom  28H    basis set group =>   3
Atom  29H    basis set group =>   3
Atom  30H    basis set group =>   3
Atom  31H    basis set group =>   3
Atom  32H    basis set group =>   3
Atom  33H    basis set group =>   3
Atom  34H    basis set group =>   3
Atom  35H    basis set group =>   3
Atom  36H    basis set group =>   3
Atom  37H    basis set group =>   3
Atom  38H    basis set group =>   3
Atom  39H    basis set group =>   3
Atom  40H    basis set group =>   3
Atom  41H    basis set group =>   3
---------------------------------
AUXILIARY/J BASIS SET INFORMATION
---------------------------------
There are 3 groups of distinct atoms

 Group   1 Type N   : 12s5p4d2f1g contracted to 6s4p3d1f1g pattern {711111/2111/211/2/1}
 Group   2 Type C   : 12s5p4d2f1g contracted to 6s4p3d1f1g pattern {711111/2111/211/2/1}
 Group   3 Type H   : 5s2p1d contracted to 3s1p1d pattern {311/2/1}

Atom   0N    basis set group =>   1
Atom   1N    basis set group =>   1
Atom   2N    basis set group =>   1
Atom   3N    basis set group =>   1
Atom   4C    basis set group =>   2
Atom   5C    basis set group =>   2
Atom   6C    basis set group =>   2
Atom   7C    basis set group =>   2
Atom   8C    basis set group =>   2
Atom   9C    basis set group =>   2
Atom  10C    basis set group =>   2
Atom  11C    basis set group =>   2
Atom  12C    basis set group =>   2
Atom  13C    basis set group =>   2
Atom  14C    basis set group =>   2
Atom  15C    basis set group =>   2
Atom  16C    basis set group =>   2
Atom  17C    basis set group =>   2
Atom  18C    basis set group =>   2
Atom  19C    basis set group =>   2
Atom  20C    basis set group =>   2
Atom  21C    basis set group =>   2
Atom  22C    basis set group =>   2
Atom  23C    basis set group =>   2
Atom  24H    basis set group =>   3
Atom  25H    basis set group =>   3
Atom  26H    basis set group =>   3
Atom  27H    basis set group =>   3
Atom  28H    basis set group =>   3
Atom  29H    basis set group =>   3
Atom  30H    basis set group =>   3
Atom  31H    basis set group =>   3
Atom  32H    basis set group =>   3
Atom  33H    basis set group =>   3
Atom  34H    basis set group =>   3
Atom  35H    basis set group =>   3
Atom  36H    basis set group =>   3
Atom  37H    basis set group =>   3
Atom  38H    basis set group =>   3
Atom  39H    basis set group =>   3
Atom  40H    basis set group =>   3
Atom  41H    basis set group =>   3

Checking for AutoStart:
The File: tddft.gbw exists
Trying to determine its content:
     ... Fine, the file contains calculation information
     ... Fine, the calculation information was read
     ... Fine, the file contains a basis set
     ... Fine, the basis set was read
     ... Fine, the file contains a geometry
     ... Fine, the geometry was read
     ... Fine, the file contains a set of orbitals
     ... Fine, the orbitals can be read
     => possible old guess file was deleted
     => GBW file was renamed to GES file
     => GES file is set as startup file
     => Guess is set to MORead
     ... now leaving AutoStart



           ************************************************************
           *        Program running with 4 parallel MPI-processes     *
           *              working on a common directory               *
           ************************************************************
------------------------------------------------------------------------------
                             ORCA STARTUP CALCULATIONS
                           -- RI-GTO INTEGRALS CHOSEN --
------------------------------------------------------------------------------
------------------------------------------------------------------------------
                   ___                                                        
                  /   \      - P O W E R E D   B Y -                         
                 /     \                                                     
                 |  |  |   _    _      __       _____    __    __             
                 |  |  |  | |  | |    /  \     |  _  \  |  |  /  |          
                  \  \/   | |  | |   /    \    | | | |  |  | /  /          
                 / \  \   | |__| |  /  /\  \   | |_| |  |  |/  /          
                |  |  |   |  __  | /  /__\  \  |    /   |      \           
                |  |  |   | |  | | |   __   |  |    \   |  |\   \          
                \     /   | |  | | |  |  |  |  | |\  \  |  | \   \       
                 \___/    |_|  |_| |__|  |__|  |_| \__\ |__|  \__/        
                                                                              
                      - O R C A' S   B I G   F R I E N D -                    
                                      &                                       
                       - I N T E G R A L  F E E D E R -                       
                                                                              
 v1 FN, 2020, v2 2021, v3 2022-2024                                           
------------------------------------------------------------------------------


----------------------
SHARK INTEGRAL PACKAGE
----------------------

Number of atoms                             ...     42
Number of basis functions                   ...    852
Number of shells                            ...    336
Maximum angular momentum                    ...      3
Integral batch strategy                     ... SHARK/LIBINT Hybrid
RI-J (if used) integral strategy            ... SPLIT-RIJ (Revised 2003 algorithm where possible)
Printlevel                                  ...      1
Contraction scheme used                     ... SEGMENTED contraction
Prescreening option                         ... SCHWARTZ
   Thresh                                   ... 2.500e-11
   Tcut                                     ... 2.500e-12
   Tpresel                                  ... 2.500e-12 
Coulomb Range Separation                    ... NOT USED
Exchange Range Separation                   ... NOT USED
Multipole approximations                    ... NOT USED
Finite Nucleus Model                        ... NOT USED
CABS basis                                  ... NOT available
Auxiliary Coulomb fitting basis             ... AVAILABLE
   # of basis functions in Aux-J            ...   1374
   # of shells in Aux-J                     ...    450
   Maximum angular momentum in Aux-J        ...      4
Auxiliary J/K fitting basis                 ... NOT available
Auxiliary Correlation fitting basis         ... NOT available
Auxiliary 'external' fitting basis          ... NOT available

Checking pre-screening integrals            ... done (  0.0 sec) Dimension = 336
   => SHARK Basis and OBASIS are compatible. Storing Pre-screening
Shell pair information
Shell pair cut-off parameter TPreSel        ...   2.5e-12
Total number of shell pairs                 ...     56616
Shell pairs after pre-screening             ...     39301
Total number of primitive shell pairs       ...    173748
Primitive shell pairs kept                  ...     79347
          la=0 lb=0:  10148 shell pairs
          la=1 lb=0:  11400 shell pairs
          la=1 lb=1:   3217 shell pairs
          la=2 lb=0:   5542 shell pairs
          la=2 lb=1:   3204 shell pairs
          la=2 lb=2:    832 shell pairs
          la=3 lb=0:   2576 shell pairs
          la=3 lb=1:   1500 shell pairs
          la=3 lb=2:    712 shell pairs
          la=3 lb=3:    170 shell pairs

Checking whether 4 symmetric matrices of dimension 852 fit in memory
:Max Core in MB      =   3000.00
 MB in use           =     50.78
 MB left             =   2949.22
 MB needed           =     11.09
 Data fit in memory  = YES
Calculating RI/J V-Matrix + Cholesky decomp.... done (  0.4 sec)
Calculating Nuclear repulsion               ... done (  0.0 sec) ENN=   1923.382611487662 Eh

Diagonalization of the overlap matrix:
Smallest eigenvalue                        ... 9.782e-06
Time for diagonalization                   ...    0.334 sec
Threshold for overlap eigenvalues          ... 1.000e-07
Number of eigenvalues below threshold      ... 0
Time for construction of square roots      ...    0.172 sec
Total time needed                          ...    0.515 sec

-------------------
DFT GRID GENERATION
-------------------

General Integration Accuracy     IntAcc      ... 4.959
Radial Grid Type                 RadialGrid  ... OptM3 with GC (2021)
Angular Grid (max. ang.)         AngularGrid ... 6 (Lebedev-590)
Angular grid pruning method      GridPruning ... 4 (adaptive)
Weight generation scheme         WeightScheme... mBecke (2022)
Basis function cutoff            BFCut       ... 1.0000e-11
Integration weight cutoff        WCut        ... 1.0000e-14
Partially contracted basis set               ... off
Rotationally invariant grid construction     ... off
Angular grids for H and He will be reduced by one unit

Total number of grid points                  ...   492495
Total number of batches                      ...     7717
Average number of points per batch           ...       63
Average number of grid points per atom       ...    11726

--------------------
COSX GRID GENERATION
--------------------

GRIDX 1
-------
General Integration Accuracy     IntAcc      ... 4.020
Radial Grid Type                 RadialGrid  ... OptM3 with GC (2021)
Angular Grid (max. ang.)         AngularGrid ... 2 (Lebedev-110)
Angular grid pruning method      GridPruning ... 4 (adaptive)
Weight generation scheme         WeightScheme... mBecke (2022)
Basis function cutoff            BFCut       ... 1.0000e-11
Integration weight cutoff        WCut        ... 1.0000e-14
Partially contracted basis set               ... on
Rotationally invariant grid construction     ... off
Angular grids for H and He will be reduced by one unit

Total number of grid points                  ...    55174
Total number of batches                      ...      456
Average number of points per batch           ...      120
Average number of grid points per atom       ...     1314
UseSFitting                                  ... on

GRIDX 2
-------
General Integration Accuracy     IntAcc      ... 4.338
Radial Grid Type                 RadialGrid  ... OptM3 with GC (2021)
Angular Grid (max. ang.)         AngularGrid ... 3 (Lebedev-194)
Angular grid pruning method      GridPruning ... 4 (adaptive)
Weight generation scheme         WeightScheme... mBecke (2022)
Basis function cutoff            BFCut       ... 1.0000e-11
Integration weight cutoff        WCut        ... 1.0000e-14
Partially contracted basis set               ... on
Rotationally invariant grid construction     ... off
Angular grids for H and He will be reduced by one unit

Total number of grid points                  ...   120801
Total number of batches                      ...      966
Average number of points per batch           ...      125
Average number of grid points per atom       ...     2876
UseSFitting                                  ... on

GRIDX 3
-------
General Integration Accuracy     IntAcc      ... 4.871
Radial Grid Type                 RadialGrid  ... OptM3 with GC (2021)
Angular Grid (max. ang.)         AngularGrid ... 4 (Lebedev-302)
Angular grid pruning method      GridPruning ... 4 (adaptive)
Weight generation scheme         WeightScheme... mBecke (2022)
Basis function cutoff            BFCut       ... 1.0000e-11
Integration weight cutoff        WCut        ... 1.0000e-14
Partially contracted basis set               ... on
Rotationally invariant grid construction     ... off
Angular grids for H and He will be reduced by one unit

Total number of grid points                  ...   225532
Total number of batches                      ...     1785
Average number of points per batch           ...      126
Average number of grid points per atom       ...     5370
UseSFitting                                  ... on
Grids setup in  22.7 sec
Initializing property integral containers    ... done (  0.0 sec)

SHARK setup successfully completed in  25.0 seconds

Maximum memory used throughout the entire STARTUP-calculation: 156.2 MB


           ************************************************************
           *        Program running with 4 parallel MPI-processes     *
           *              working on a common directory               *
           ************************************************************
-------------------------------------------------------------------------------
                                 ORCA GUESS
                   Start orbitals & Density for SCF / CASSCF
-------------------------------------------------------------------------------

------------
SCF SETTINGS
------------
Hamiltonian:
 Density Functional     Method          .... DFT(GTOs)
 Exchange Functional    Exchange        .... M062X
 Correlation Functional Correlation     .... M062X
 Gradients option       PostSCFGGA      .... off
 Hybrid DFT is turned on
   Fraction HF Exchange ScalHFX         ....  0.540000
   Scaling of DF-GGA-X  ScalDFX         ....  0.460000
   Scaling of DF-GGA-C  ScalDFC         ....  1.000000
   Scaling of DF-LDA-C  ScalLDAC        ....  1.000000
   Perturbative correction              ....  0.000000
 RI-approximation to the Coulomb term is turned on
   Number of AuxJ basis functions       .... 1374
   RIJ-COSX (HFX calculated with COS-X)).... on


General Settings:
 Integral files         IntName         .... tddft
 Hartree-Fock type      HFTyp           .... RHF
 Total Charge           Charge          ....    0
 Multiplicity           Mult            ....    1
 Number of Electrons    NEL             ....  166
 Basis Dimension        Dim             ....  852
 Nuclear Repulsion      ENuc            ....   1923.3826114877 Eh

Convergence Acceleration:
 AO-DIIS                CNVDIIS         .... on
   Start iteration      DIISMaxIt       ....    12
   Startup error        DIISStart       ....  0.200000
   # of expansion vecs  DIISMaxEq       ....     5
   Bias factor          DIISBfac        ....   1.050
   Max. coefficient     DIISMaxC        ....  10.000
 MO-DIIS                CNVKDIIS        .... off
 Trust-Rad. Augm. Hess. CNVTRAH         .... auto
   Auto Start mean grad. ratio tolernc. ....  1.125000
   Auto Start start iteration           ....     1
   Auto Start num. interpolation iter.  ....    10
   Max. Number of Micro iterations      ....    24
   Max. Number of Macro iterations      .... Maxiter - #DIIS iter
   Number of Davidson start vectors     ....     2
   Converg. threshold    (grad. norm)   ....   1.000e-05
   Grad. Scal. Fac. for Micro threshold ....   0.100
   Minimum threshold for Micro iter.    ....   1.000e-02
   NR start threshold (gradient norm)   ....   1.000e-04
   Initial trust radius                 ....   0.400
   Minimum AH scaling param. (alpha)    ....   1.000
   Maximum AH scaling param. (alpha)    .... 1000.000
   Quad. conv. algorithm                .... NR
   White noise on init. David. guess    .... on
   Maximum white noise                  ....   0.010
   Pseudo random numbers                .... off
   Inactive MOs                         .... canonical
   Orbital update algorithm             .... Taylor
   Preconditioner                       .... Diag
   Full preconditioner red. dimension   ....   250
 SOSCF                 CNVSOSCF           .... on
   Start iteration     SOSCFMaxIt         ....   150
   Startup grad/error  SOSCFStart         ....  0.003300
   Hessian update      SOSCFHessUp        .... L-BFGS
   Autom. constraints  SOSCFAutoConstrain .... off
 Level Shifting         CNVShift        .... on
   Level shift para.    LevelShift      ....    0.2500
   Turn off err/grad.   ShiftErr        ....    0.0010
 Zerner damping         CNVZerner       .... off
 Static damping         CNVDamp         .... on
   Fraction old density DampFac         ....    0.7000
   Max. Damping (<1)    DampMax         ....    0.9800
   Min. Damping (>=0)   DampMin         ....    0.0000
   Turn off err/grad.   DampErr         ....    0.1000

SCF Procedure:
 Maximum # iterations   MaxIter         ....   125
 SCF integral mode      SCFMode         .... Direct
   Integral package                     .... SHARK and LIBINT hybrid scheme
 Reset frequency        DirectResetFreq ....    20
 Integral Threshold     Thresh          ....  2.500e-11 Eh
 Primitive CutOff       TCut            ....  2.500e-12 Eh

Convergence Tolerance:
 Convergence Check Mode ConvCheckMode   .... Total+1el-Energy
 Convergence forced     ConvForced      .... 1
 Energy Change          TolE            ....  1.000e-08 Eh
 1-El. energy change                    ....  1.000e-05 Eh
 Orbital Gradient       TolG            ....  1.000e-05
 Orbital Rotation angle TolX            ....  1.000e-05
 DIIS Error             TolErr          ....  5.000e-07

---------------------
INITIAL GUESS: MOREAD
---------------------
Guess MOs are being read from file: tddft.ges
Input Geometry matches current geometry (good)
Input basis set matches current basis set (good)
Occupation numbers will be reassigned to an Aufbau configuration
MOs were renormalized
MOs were reorthogonalized (Cholesky)
                      ------------------
                      INITIAL GUESS DONE (   0.9 sec)
                      ------------------
             **** ENERGY FILE WAS UPDATED (tddft.en.tmp) ****
Finished Guess after   1.7 sec
Maximum memory used throughout the entire GUESS-calculation: 95.5 MB


           ************************************************************
           *        Program running with 4 parallel MPI-processes     *
           *              working on a common directory               *
           ************************************************************

-------------------------------------------------------------------------------------------
                                      ORCA LEAN-SCF
                              memory conserving SCF solver
-------------------------------------------------------------------------------------------

--------------------
CPCM SOLVATION MODEL
--------------------
CPCM parameters:
  Epsilon                                         ...       8.9990
  Refrac                                          ...       1.4242
  Rsolv                                           ...       1.3000
  Surface type                                    ... GAUSSIAN VDW
  Discretization scheme                           ... Constant charge density
    Threshold for H atoms                         ...       5.0000 (charges/Ang^2)
    Threshold for non-H atoms                     ...       5.0000 (charges/Ang^2)
  Epsilon function type                           ...         CPCM
Solvent:                                          ... DICHLOROMETHANE
Radii:
  Scheme                                          ... Element-dependent radii
  Radius for N  used is    3.5149 Bohr (=   1.8600 Ang.)
  Radius for C  used is    3.8550 Bohr (=   2.0400 Ang.)
  Radius for H  used is    2.4944 Bohr (=   1.3200 Ang.)
Calculating surface                               ...        done! (  0.0s)
Cavity surface points                             ...         3690
Cavity Volume                                     ...    2501.5510
Cavity Surface-area                               ...    1223.0827
Calculating surface distance matrix               ...        done! (  0.4s)
Performing Cholesky decomposition & store         ...        done! (  0.8s)
Overall time for CPCM initialization              ...                 1.2s

----------------------------------------D-I-I-S--------------------------------------------
Iteration    Energy (Eh)           Delta-E    RMSDP     MaxDP     DIISErr   Damp  Time(sec)
-------------------------------------------------------------------------------------------
               ***  Starting incremental Fock matrix formation  ***
                              *** Initializing SOSCF ***
---------------------------------------S-O-S-C-F--------------------------------------
Iteration    Energy (Eh)           Delta-E    RMSDP     MaxDP     MaxGrad    Time(sec)
--------------------------------------------------------------------------------------
    1    -991.9272825224256849     0.00e+00  1.73e-06  3.50e-05  4.18e-07   132.0
               *** Restarting incremental Fock matrix formation ***
    2    -991.9272825229772934    -5.52e-10  3.76e-07  7.48e-06  5.05e-07   141.6
                  *** Gradient check signals convergence ***

               *****************************************************
               *                     SUCCESS                       *
               *           SCF CONVERGED AFTER   2 CYCLES          *
               *****************************************************

Recomputing exchange energy using gridx3       ... done (  210.289 sec)
Old exchange energy                            :    -73.808658659 Eh
New exchange energy                            :    -73.808641577 Eh
Exchange energy change after final integration :      0.000017082 Eh
Total energy after final integration           :   -991.927265449 Eh
             **** ENERGY FILE WAS UPDATED (tddft.en.tmp) ****

----------------
TOTAL SCF ENERGY
----------------

Total Energy       :       -991.92726544934226 Eh          -26991.71313 eV

Components:
Nuclear Repulsion  :       1923.38261148766151 Eh           52337.90167 eV
Electronic Energy  :      -2915.29430252162683 Eh          -79329.19099 eV
One Electron Energy:      -5165.13733148543361 Eh         -140550.53224 eV
Two Electron Energy:       2249.84302896380677 Eh           61221.34125 eV
CPCM Dielectric    :         -0.01559149740360 Eh              -0.42427 eV

Virial components:
Potential Energy   :      -1978.89955809031699 Eh          -53848.59459 eV
Kinetic Energy     :        986.97229264097462 Eh           26856.88146 eV
Virial Ratio       :          2.00502037680826

DFT components:
N(Alpha)           :       83.000036809132 electrons
N(Beta)            :       83.000036809132 electrons
N(Total)           :      166.000073618264 electrons
E(XC)              :      -68.964743910921 Eh       

CPCM Solvation Model Properties:
Surface-charge          :         -0.03788439659193
Corrected charge        :          0.00000000000000
Outlying charge corr.   :          0.00006774382946 Eh               0.00184 eV
Free-energy (cav+disp)  :  This term is not implemented in the current solvation scheme

---------------
SCF CONVERGENCE
---------------

  Last Energy change         ...    5.5161e-10  Tolerance :   1.0000e-08
  Last MAX-Density change    ...    7.4834e-06  Tolerance :   1.0000e-07
  Last RMS-Density change    ...    3.7641e-07  Tolerance :   5.0000e-09
  Last DIIS Error            ...    1.7538e-06  Tolerance :   5.0000e-07
  Last Orbital Gradient      ...    5.0506e-07  Tolerance :   1.0000e-05
  Last Orbital Rotation      ...    1.9850e-06  Tolerance :   1.0000e-05


----------------
ORBITAL ENERGIES
----------------

  NO   OCC          E(Eh)            E(eV) 
   0   2.0000     -14.786492      -402.3609 
   1   2.0000     -14.786485      -402.3607 
   2   2.0000     -14.748837      -401.3363 
   3   2.0000     -14.748836      -401.3362 
   4   2.0000     -10.585804      -288.0544 
   5   2.0000     -10.585792      -288.0540 
   6   2.0000     -10.585767      -288.0534 
   7   2.0000     -10.585755      -288.0530 
   8   2.0000     -10.577576      -287.8305 
   9   2.0000     -10.577576      -287.8305 
  10   2.0000     -10.577543      -287.8296 
  11   2.0000     -10.577543      -287.8296 
  12   2.0000     -10.542726      -286.8822 
  13   2.0000     -10.542715      -286.8819 
  14   2.0000     -10.541834      -286.8579 
  15   2.0000     -10.541823      -286.8576 
  16   2.0000     -10.540704      -286.8271 
  17   2.0000     -10.540701      -286.8270 
  18   2.0000     -10.540700      -286.8270 
  19   2.0000     -10.540696      -286.8269 
  20   2.0000     -10.536253      -286.7060 
  21   2.0000     -10.536253      -286.7060 
  22   2.0000     -10.535891      -286.6962 
  23   2.0000     -10.535890      -286.6962 
  24   2.0000      -1.101894       -29.9841 
  25   2.0000      -1.099806       -29.9272 
  26   2.0000      -1.061866       -28.8948 
  27   2.0000      -1.058775       -28.8107 
  28   2.0000      -0.920482       -25.0476 
  29   2.0000      -0.893255       -24.3067 
  30   2.0000      -0.889992       -24.2179 
  31   2.0000      -0.889883       -24.2149 
  32   2.0000      -0.887779       -24.1577 
  33   2.0000      -0.861603       -23.4454 
  34   2.0000      -0.860995       -23.4289 
  35   2.0000      -0.832540       -22.6546 
  36   2.0000      -0.820022       -22.3139 
  37   2.0000      -0.750656       -20.4264 
  38   2.0000      -0.747829       -20.3495 
  39   2.0000      -0.701152       -19.0793 
  40   2.0000      -0.683639       -18.6028 
  41   2.0000      -0.683550       -18.6003 
  42   2.0000      -0.662524       -18.0282 
  43   2.0000      -0.661790       -18.0082 
  44   2.0000      -0.660319       -17.9682 
  45   2.0000      -0.647601       -17.6221 
  46   2.0000      -0.645831       -17.5739 
  47   2.0000      -0.583523       -15.8785 
  48   2.0000      -0.576370       -15.6838 
  49   2.0000      -0.569026       -15.4840 
  50   2.0000      -0.560886       -15.2625 
  51   2.0000      -0.544768       -14.8239 
  52   2.0000      -0.542950       -14.7744 
  53   2.0000      -0.522512       -14.2183 
  54   2.0000      -0.517779       -14.0895 
  55   2.0000      -0.509813       -13.8727 
  56   2.0000      -0.508826       -13.8458 
  57   2.0000      -0.507346       -13.8056 
  58   2.0000      -0.497744       -13.5443 
  59   2.0000      -0.487335       -13.2610 
  60   2.0000      -0.478839       -13.0299 
  61   2.0000      -0.474465       -12.9109 
  62   2.0000      -0.467820       -12.7300 
  63   2.0000      -0.451497       -12.2859 
  64   2.0000      -0.442235       -12.0338 
  65   2.0000      -0.439690       -11.9646 
  66   2.0000      -0.435908       -11.8617 
  67   2.0000      -0.434001       -11.8098 
  68   2.0000      -0.433204       -11.7881 
  69   2.0000      -0.423678       -11.5289 
  70   2.0000      -0.417757       -11.3677 
  71   2.0000      -0.415302       -11.3009 
  72   2.0000      -0.413789       -11.2598 
  73   2.0000      -0.413651       -11.2560 
  74   2.0000      -0.373059       -10.1515 
  75   2.0000      -0.343787        -9.3549 
  76   2.0000      -0.341513        -9.2930 
  77   2.0000      -0.336697        -9.1620 
  78   2.0000      -0.326703        -8.8900 
  79   2.0000      -0.326142        -8.8748 
  80   2.0000      -0.310573        -8.4511 
  81   2.0000      -0.238660        -6.4943 
  82   2.0000      -0.207844        -5.6557 
  83   0.0000      -0.081712        -2.2235 
  84   0.0000      -0.025102        -0.6831 
  85   0.0000       0.046589         1.2678 
  86   0.0000       0.059470         1.6182 
  87   0.0000       0.066893         1.8202 
  88   0.0000       0.073306         1.9948 
  89   0.0000       0.078145         2.1264 
  90   0.0000       0.090871         2.4727 
  91   0.0000       0.097491         2.6529 
  92   0.0000       0.100652         2.7389 
  93   0.0000       0.104210         2.8357 
*Only the first 10 virtual orbitals were printed.

                    ********************************
                    * MULLIKEN POPULATION ANALYSIS *
                    ********************************

-----------------------
MULLIKEN ATOMIC CHARGES
-----------------------
   0 N :   -0.418256
   1 N :   -0.418288
   2 N :   -0.284076
   3 N :   -0.284055
   4 C :   -0.307318
   5 C :   -0.307250
   6 C :   -0.307389
   7 C :   -0.307494
   8 C :    0.205888
   9 C :    0.205910
  10 C :    0.206039
  11 C :    0.206089
  12 C :    0.215452
  13 C :    0.215063
  14 C :    0.215263
  15 C :    0.215228
  16 C :   -0.347761
  17 C :   -0.347676
  18 C :   -0.347832
  19 C :   -0.347841
  20 C :   -0.241988
  21 C :   -0.241423
  22 C :   -0.241764
  23 C :   -0.241650
  24 H :    0.165780
  25 H :    0.165964
  26 H :    0.165732
  27 H :    0.165990
  28 H :    0.165973
  29 H :    0.165766
  30 H :    0.166005
  31 H :    0.165744
  32 H :    0.181076
  33 H :    0.181096
  34 H :    0.181110
  35 H :    0.181064
  36 H :    0.268037
  37 H :    0.268040
  38 H :    0.179927
  39 H :    0.179933
  40 H :    0.179948
  41 H :    0.179945
Sum of atomic charges:   -0.0000000

--------------------------------
MULLIKEN REDUCED ORBITAL CHARGES
--------------------------------
  0 N s       :     3.640880  s :     3.640880
      pz      :     1.182765  p :     3.716785
      px      :     1.507553
      py      :     1.026467
      dz2     :     0.004639  d :     0.057139
      dxz     :     0.009994
      dyz     :     0.013771
      dx2y2   :     0.012203
      dxy     :     0.016532
      f0      :     0.000591  f :     0.003452
      f+1     :     0.000247
      f-1     :     0.000403
      f+2     :     0.000132
      f-2     :     0.000491
      f+3     :     0.000710
      f-3     :     0.000877

  1 N s       :     3.640890  s :     3.640890
      pz      :     1.182774  p :     3.716806
      px      :     1.507551
      py      :     1.026480
      dz2     :     0.004640  d :     0.057141
      dxz     :     0.009994
      dyz     :     0.013770
      dx2y2   :     0.012204
      dxy     :     0.016534
      f0      :     0.000591  f :     0.003452
      f+1     :     0.000247
      f-1     :     0.000403
      f+2     :     0.000132
      f-2     :     0.000491
      f+3     :     0.000710
      f-3     :     0.000877

  2 N s       :     3.471168  s :     3.471168
      pz      :     1.535455  p :     3.755704
      px      :     1.110792
      py      :     1.109457
      dz2     :     0.004497  d :     0.052717
      dxz     :     0.015702
      dyz     :     0.003943
      dx2y2   :     0.015439
      dxy     :     0.013136
      f0      :     0.000893  f :     0.004487
      f+1     :     0.000658
      f-1     :     0.000767
      f+2     :     0.000055
      f-2     :     0.000526
      f+3     :     0.000908
      f-3     :     0.000681

  3 N s       :     3.471155  s :     3.471155
      pz      :     1.535432  p :     3.755691
      px      :     1.110802
      py      :     1.109457
      dz2     :     0.004496  d :     0.052721
      dxz     :     0.015707
      dyz     :     0.003943
      dx2y2   :     0.015440
      dxy     :     0.013136
      f0      :     0.000893  f :     0.004488
      f+1     :     0.000658
      f-1     :     0.000767
      f+2     :     0.000055
      f-2     :     0.000526
      f+3     :     0.000908
      f-3     :     0.000681

  4 C s       :     3.284183  s :     3.284183
      pz      :     1.090262  p :     2.943730
      px      :     0.919227
      py      :     0.934242
      dz2     :     0.003290  d :     0.074250
      dxz     :     0.015481
      dyz     :     0.017557
      dx2y2   :     0.016446
      dxy     :     0.021476
      f0      :     0.000489  f :     0.005153
      f+1     :     0.000701
      f-1     :     0.000609
      f+2     :     0.000721
      f-2     :     0.000452
      f+3     :     0.001337
      f-3     :     0.000845

  5 C s       :     3.284120  s :     3.284120
      pz      :     1.090255  p :     2.943723
      px      :     0.919348
      py      :     0.934120
      dz2     :     0.003307  d :     0.074254
      dxz     :     0.015476
      dyz     :     0.017544
      dx2y2   :     0.016427
      dxy     :     0.021500
      f0      :     0.000490  f :     0.005153
      f+1     :     0.000701
      f-1     :     0.000607
      f+2     :     0.000721
      f-2     :     0.000452
      f+3     :     0.001339
      f-3     :     0.000844

  6 C s       :     3.284283  s :     3.284283
      pz      :     1.090245  p :     2.943702
      px      :     0.919369
      py      :     0.934087
      dz2     :     0.003289  d :     0.074251
      dxz     :     0.015487
      dyz     :     0.017553
      dx2y2   :     0.016429
      dxy     :     0.021493
      f0      :     0.000488  f :     0.005154
      f+1     :     0.000702
      f-1     :     0.000608
      f+2     :     0.000721
      f-2     :     0.000451
      f+3     :     0.001339
      f-3     :     0.000843

  7 C s       :     3.284342  s :     3.284342
      pz      :     1.090264  p :     2.943750
      px      :     0.919257
      py      :     0.934229
      dz2     :     0.003297  d :     0.074249
      dxz     :     0.015483
      dyz     :     0.017549
      dx2y2   :     0.016444
      dxy     :     0.021477
      f0      :     0.000488  f :     0.005153
      f+1     :     0.000701
      f-1     :     0.000609
      f+2     :     0.000721
      f-2     :     0.000452
      f+3     :     0.001337
      f-3     :     0.000845

  8 C s       :     3.136807  s :     3.136807
      pz      :     0.895627  p :     2.522550
      px      :     0.806880
      py      :     0.820043
      dz2     :     0.001381  d :     0.122368
      dxz     :     0.020395
      dyz     :     0.038784
      dx2y2   :     0.026160
      dxy     :     0.035648
      f0      :     0.001767  f :     0.012387
      f+1     :     0.000978
      f-1     :     0.001120
      f+2     :     0.001070
      f-2     :     0.001220
      f+3     :     0.001873
      f-3     :     0.004358

  9 C s       :     3.136893  s :     3.136893
      pz      :     0.895576  p :     2.522458
      px      :     0.806759
      py      :     0.820123
      dz2     :     0.001392  d :     0.122353
      dxz     :     0.020401
      dyz     :     0.038775
      dx2y2   :     0.026185
      dxy     :     0.035600
      f0      :     0.001767  f :     0.012386
      f+1     :     0.000978
      f-1     :     0.001120
      f+2     :     0.001068
      f-2     :     0.001222
      f+3     :     0.001884
      f-3     :     0.004347

 10 C s       :     3.136777  s :     3.136777
      pz      :     0.895644  p :     2.522439
      px      :     0.806704
      py      :     0.820091
      dz2     :     0.001380  d :     0.122359
      dxz     :     0.020403
      dyz     :     0.038773
      dx2y2   :     0.026196
      dxy     :     0.035607
      f0      :     0.001767  f :     0.012386
      f+1     :     0.000978
      f-1     :     0.001120
      f+2     :     0.001068
      f-2     :     0.001222
      f+3     :     0.001884
      f-3     :     0.004347

 11 C s       :     3.136652  s :     3.136652
      pz      :     0.895671  p :     2.522512
      px      :     0.806822
      py      :     0.820019
      dz2     :     0.001381  d :     0.122361
      dxz     :     0.020393
      dyz     :     0.038786
      dx2y2   :     0.026152
      dxy     :     0.035648
      f0      :     0.001767  f :     0.012386
      f+1     :     0.000978
      f-1     :     0.001120
      f+2     :     0.001070
      f-2     :     0.001219
      f+3     :     0.001873
      f-3     :     0.004358

 12 C s       :     3.122495  s :     3.122495
      pz      :     0.936578  p :     2.543054
      px      :     0.784062
      py      :     0.822413
      dz2     :     0.003766  d :     0.106761
      dxz     :     0.039800
      dyz     :     0.029475
      dx2y2   :     0.008735
      dxy     :     0.024986
      f0      :     0.002153  f :     0.012238
      f+1     :     0.001283
      f-1     :     0.000946
      f+2     :     0.000730
      f-2     :     0.002016
      f+3     :     0.003028
      f-3     :     0.002082

 13 C s       :     3.122587  s :     3.122587
      pz      :     0.936583  p :     2.543348
      px      :     0.783986
      py      :     0.822780
      dz2     :     0.003770  d :     0.106764
      dxz     :     0.039825
      dyz     :     0.029492
      dx2y2   :     0.008777
      dxy     :     0.024901
      f0      :     0.002154  f :     0.012238
      f+1     :     0.001283
      f-1     :     0.000945
      f+2     :     0.000734
      f-2     :     0.002012
      f+3     :     0.003040
      f-3     :     0.002070

 14 C s       :     3.122543  s :     3.122543
      pz      :     0.936634  p :     2.543188
      px      :     0.783830
      py      :     0.822723
      dz2     :     0.003766  d :     0.106769
      dxz     :     0.039823
      dyz     :     0.029493
      dx2y2   :     0.008781
      dxy     :     0.024906
      f0      :     0.002154  f :     0.012238
      f+1     :     0.001283
      f-1     :     0.000945
      f+2     :     0.000734
      f-2     :     0.002012
      f+3     :     0.003040
      f-3     :     0.002070

 15 C s       :     3.122512  s :     3.122512
      pz      :     0.936621  p :     2.543245
      px      :     0.784082
      py      :     0.822543
      dz2     :     0.003765  d :     0.106777
      dxz     :     0.039802
      dyz     :     0.029479
      dx2y2   :     0.008738
      dxy     :     0.024993
      f0      :     0.002154  f :     0.012238
      f+1     :     0.001283
      f-1     :     0.000946
      f+2     :     0.000730
      f-2     :     0.002016
      f+3     :     0.003028
      f-3     :     0.002082

 16 C s       :     3.215378  s :     3.215378
      pz      :     1.067439  p :     3.070408
      px      :     0.977685
      py      :     1.025284
      dz2     :     0.004085  d :     0.055286
      dxz     :     0.013884
      dyz     :     0.015418
      dx2y2   :     0.009957
      dxy     :     0.011942
      f0      :     0.001290  f :     0.006689
      f+1     :     0.000811
      f-1     :     0.000805
      f+2     :     0.000624
      f-2     :     0.000434
      f+3     :     0.001339
      f-3     :     0.001385

 17 C s       :     3.215220  s :     3.215220
      pz      :     1.067454  p :     3.070476
      px      :     0.978112
      py      :     1.024910
      dz2     :     0.004085  d :     0.055291
      dxz     :     0.013841
      dyz     :     0.015462
      dx2y2   :     0.009956
      dxy     :     0.011947
      f0      :     0.001290  f :     0.006689
      f+1     :     0.000811
      f-1     :     0.000806
      f+2     :     0.000624
      f-2     :     0.000434
      f+3     :     0.001342
      f-3     :     0.001382

 18 C s       :     3.215430  s :     3.215430
      pz      :     1.067448  p :     3.070439
      px      :     0.978086
      py      :     1.024905
      dz2     :     0.004084  d :     0.055274
      dxz     :     0.013843
      dyz     :     0.015464
      dx2y2   :     0.009951
      dxy     :     0.011933
      f0      :     0.001290  f :     0.006689
      f+1     :     0.000811
      f-1     :     0.000806
      f+2     :     0.000624
      f-2     :     0.000434
      f+3     :     0.001342
      f-3     :     0.001382

 19 C s       :     3.215454  s :     3.215454
      pz      :     1.067465  p :     3.070411
      px      :     0.977650
      py      :     1.025296
      dz2     :     0.004084  d :     0.055288
      dxz     :     0.013886
      dyz     :     0.015420
      dx2y2   :     0.009960
      dxy     :     0.011938
      f0      :     0.001290  f :     0.006689
      f+1     :     0.000811
      f-1     :     0.000805
      f+2     :     0.000624
      f-2     :     0.000434
      f+3     :     0.001339
      f-3     :     0.001385

 20 C s       :     3.246601  s :     3.246601
      pz      :     1.014175  p :     2.921247
      px      :     0.956821
      py      :     0.950252
      dz2     :     0.005601  d :     0.067125
      dxz     :     0.020318
      dyz     :     0.010520
      dx2y2   :     0.011695
      dxy     :     0.018991
      f0      :     0.001337  f :     0.007015
      f+1     :     0.000718
      f-1     :     0.000928
      f+2     :     0.000990
      f-2     :     0.000229
      f+3     :     0.000965
      f-3     :     0.001847

 21 C s       :     3.246133  s :     3.246133
      pz      :     1.014169  p :     2.921154
      px      :     0.956950
      py      :     0.950035
      dz2     :     0.005608  d :     0.067121
      dxz     :     0.020286
      dyz     :     0.010543
      dx2y2   :     0.011715
      dxy     :     0.018969
      f0      :     0.001337  f :     0.007015
      f+1     :     0.000718
      f-1     :     0.000928
      f+2     :     0.000993
      f-2     :     0.000226
      f+3     :     0.000967
      f-3     :     0.001846

 22 C s       :     3.246263  s :     3.246263
      pz      :     1.014211  p :     2.921361
      px      :     0.957088
      py      :     0.950062
      dz2     :     0.005606  d :     0.067125
      dxz     :     0.020288
      dyz     :     0.010544
      dx2y2   :     0.011718
      dxy     :     0.018970
      f0      :     0.001337  f :     0.007015
      f+1     :     0.000718
      f-1     :     0.000928
      f+2     :     0.000993
      f-2     :     0.000226
      f+3     :     0.000967
      f-3     :     0.001845

 23 C s       :     3.246192  s :     3.246192
      pz      :     1.014203  p :     2.921309
      px      :     0.956818
      py      :     0.950288
      dz2     :     0.005603  d :     0.067135
      dxz     :     0.020319
      dyz     :     0.010520
      dx2y2   :     0.011695
      dxy     :     0.018999
      f0      :     0.001337  f :     0.007015
      f+1     :     0.000718
      f-1     :     0.000929
      f+2     :     0.000991
      f-2     :     0.000229
      f+3     :     0.000966
      f-3     :     0.001847

 24 H s       :     0.814722  s :     0.814722
      pz      :     0.008962  p :     0.019498
      px      :     0.005586
      py      :     0.004950

 25 H s       :     0.814537  s :     0.814537
      pz      :     0.008847  p :     0.019499
      px      :     0.005686
      py      :     0.004966

 26 H s       :     0.814764  s :     0.814764
      pz      :     0.009064  p :     0.019503
      px      :     0.005545
      py      :     0.004894

 27 H s       :     0.814516  s :     0.814516
      pz      :     0.008744  p :     0.019494
      px      :     0.005740
      py      :     0.005010

 28 H s       :     0.814529  s :     0.814529
      pz      :     0.008947  p :     0.019498
      px      :     0.005593
      py      :     0.004959

 29 H s       :     0.814736  s :     0.814736
      pz      :     0.008862  p :     0.019498
      px      :     0.005692
      py      :     0.004944

 30 H s       :     0.814502  s :     0.814502
      pz      :     0.008844  p :     0.019493
      px      :     0.005634
      py      :     0.005016

 31 H s       :     0.814753  s :     0.814753
      pz      :     0.008965  p :     0.019503
      px      :     0.005637
      py      :     0.004901

 32 H s       :     0.798301  s :     0.798301
      pz      :     0.004579  p :     0.020623
      px      :     0.007874
      py      :     0.008170

 33 H s       :     0.798282  s :     0.798282
      pz      :     0.004578  p :     0.020623
      px      :     0.007894
      py      :     0.008151

 34 H s       :     0.798267  s :     0.798267
      pz      :     0.004578  p :     0.020622
      px      :     0.007894
      py      :     0.008150

 35 H s       :     0.798313  s :     0.798313
      pz      :     0.004579  p :     0.020623
      px      :     0.007874
      py      :     0.008170

 36 H s       :     0.692080  s :     0.692080
      pz      :     0.009926  p :     0.039883
      px      :     0.005122
      py      :     0.024835

 37 H s       :     0.692075  s :     0.692075
      pz      :     0.009927  p :     0.039885
      px      :     0.005122
      py      :     0.024836

 38 H s       :     0.799717  s :     0.799717
      pz      :     0.004080  p :     0.020356
      px      :     0.006700
      py      :     0.009576

 39 H s       :     0.799711  s :     0.799711
      pz      :     0.004079  p :     0.020356
      px      :     0.006719
      py      :     0.009557

 40 H s       :     0.799696  s :     0.799696
      pz      :     0.004079  p :     0.020356
      px      :     0.006719
      py      :     0.009557

 41 H s       :     0.799699  s :     0.799699
      pz      :     0.004080  p :     0.020356
      px      :     0.006699
      py      :     0.009576



                     *******************************
                     * LOEWDIN POPULATION ANALYSIS *
                     *******************************

----------------------
LOEWDIN ATOMIC CHARGES
----------------------
   0 N :    0.125002
   1 N :    0.124999
   2 N :    0.241800
   3 N :    0.241819
   4 C :   -0.201450
   5 C :   -0.201457
   6 C :   -0.201455
   7 C :   -0.201458
   8 C :   -0.233641
   9 C :   -0.233636
  10 C :   -0.233631
  11 C :   -0.233636
  12 C :   -0.202218
  13 C :   -0.202219
  14 C :   -0.202241
  15 C :   -0.202244
  16 C :   -0.135888
  17 C :   -0.135888
  18 C :   -0.135893
  19 C :   -0.135896
  20 C :   -0.123195
  21 C :   -0.123195
  22 C :   -0.123221
  23 C :   -0.123221
  24 H :    0.149391
  25 H :    0.149378
  26 H :    0.149520
  27 H :    0.149249
  28 H :    0.149380
  29 H :    0.149385
  30 H :    0.149252
  31 H :    0.149515
  32 H :    0.168775
  33 H :    0.168773
  34 H :    0.168774
  35 H :    0.168774
  36 H :    0.188245
  37 H :    0.188235
  38 H :    0.151357
  39 H :    0.151357
  40 H :    0.151352
  41 H :    0.151351

-------------------------------
LOEWDIN REDUCED ORBITAL CHARGES
-------------------------------
  0 N s       :     3.035264  s :     3.035264
      pz      :     1.063655  p :     3.607838
      px      :     1.422286
      py      :     1.121896
      dz2     :     0.016526  d :     0.212624
      dxz     :     0.011105
      dyz     :     0.047122
      dx2y2   :     0.061718
      dxy     :     0.076152
      f0      :     0.001084  f :     0.019272
      f+1     :     0.000750
      f-1     :     0.001839
      f+2     :     0.000288
      f-2     :     0.003429
      f+3     :     0.004130
      f-3     :     0.007752

  1 N s       :     3.035266  s :     3.035266
      pz      :     1.063661  p :     3.607841
      px      :     1.422285
      py      :     1.121894
      dz2     :     0.016527  d :     0.212622
      dxz     :     0.011106
      dyz     :     0.047121
      dx2y2   :     0.061717
      dxy     :     0.076151
      f0      :     0.001084  f :     0.019272
      f+1     :     0.000750
      f-1     :     0.001839
      f+2     :     0.000288
      f-2     :     0.003429
      f+3     :     0.004130
      f-3     :     0.007752

  2 N s       :     2.888299  s :     2.888299
      pz      :     1.342925  p :     3.618353
      px      :     1.141434
      py      :     1.133994
      dz2     :     0.013750  d :     0.233772
      dxz     :     0.050087
      dyz     :     0.011443
      dx2y2   :     0.089819
      dxy     :     0.068672
      f0      :     0.001182  f :     0.017776
      f+1     :     0.001708
      f-1     :     0.001705
      f+2     :     0.000287
      f-2     :     0.003827
      f+3     :     0.006759
      f-3     :     0.002310

  3 N s       :     2.888280  s :     2.888280
      pz      :     1.342903  p :     3.618330
      px      :     1.141438
      py      :     1.133989
      dz2     :     0.013748  d :     0.233794
      dxz     :     0.050100
      dyz     :     0.011442
      dx2y2   :     0.089829
      dxy     :     0.068674
      f0      :     0.001182  f :     0.017778
      f+1     :     0.001708
      f-1     :     0.001705
      f+2     :     0.000286
      f-2     :     0.003827
      f+3     :     0.006759
      f-3     :     0.002310

  4 C s       :     2.768361  s :     2.768361
      pz      :     1.040935  p :     3.034601
      px      :     0.993166
      py      :     1.000500
      dz2     :     0.037290  d :     0.358288
      dxz     :     0.072117
      dyz     :     0.074111
      dx2y2   :     0.087403
      dxy     :     0.087367
      f0      :     0.003810  f :     0.040201
      f+1     :     0.003946
      f-1     :     0.003727
      f+2     :     0.005318
      f-2     :     0.004319
      f+3     :     0.011595
      f-3     :     0.007485

  5 C s       :     2.768358  s :     2.768358
      pz      :     1.040924  p :     3.034597
      px      :     0.993200
      py      :     1.000473
      dz2     :     0.037367  d :     0.358300
      dxz     :     0.072165
      dyz     :     0.073981
      dx2y2   :     0.087346
      dxy     :     0.087440
      f0      :     0.003815  f :     0.040202
      f+1     :     0.003943
      f-1     :     0.003722
      f+2     :     0.005322
      f-2     :     0.004322
      f+3     :     0.011605
      f-3     :     0.007472

  6 C s       :     2.768361  s :     2.768361
      pz      :     1.040936  p :     3.034602
      px      :     0.993199
      py      :     1.000467
      dz2     :     0.037285  d :     0.358291
      dxz     :     0.072221
      dyz     :     0.074017
      dx2y2   :     0.087355
      dxy     :     0.087413
      f0      :     0.003810  f :     0.040201
      f+1     :     0.003949
      f-1     :     0.003726
      f+2     :     0.005319
      f-2     :     0.004319
      f+3     :     0.011607
      f-3     :     0.007472

  7 C s       :     2.768358  s :     2.768358
      pz      :     1.040931  p :     3.034596
      px      :     0.993164
      py      :     1.000501
      dz2     :     0.037297  d :     0.358303
      dxz     :     0.072136
      dyz     :     0.074099
      dx2y2   :     0.087403
      dxy     :     0.087368
      f0      :     0.003810  f :     0.040202
      f+1     :     0.003947
      f-1     :     0.003729
      f+2     :     0.005317
      f-2     :     0.004318
      f+3     :     0.011596
      f-3     :     0.007485

  8 C s       :     2.724593  s :     2.724593
      pz      :     0.825279  p :     2.795990
      px      :     0.973326
      py      :     0.997384
      dz2     :     0.041447  d :     0.635722
      dxz     :     0.070084
      dyz     :     0.118810
      dx2y2   :     0.212675
      dxy     :     0.192706
      f0      :     0.005000  f :     0.077337
      f+1     :     0.004326
      f-1     :     0.006088
      f+2     :     0.006888
      f-2     :     0.009748
      f+3     :     0.014797
      f-3     :     0.030491

  9 C s       :     2.724593  s :     2.724593
      pz      :     0.825290  p :     2.795987
      px      :     0.973221
      py      :     0.997477
      dz2     :     0.041460  d :     0.635719
      dxz     :     0.070103
      dyz     :     0.118787
      dx2y2   :     0.212710
      dxy     :     0.192659
      f0      :     0.005000  f :     0.077336
      f+1     :     0.004330
      f-1     :     0.006085
      f+2     :     0.006876
      f-2     :     0.009760
      f+3     :     0.014872
      f-3     :     0.030414

 10 C s       :     2.724599  s :     2.724599
      pz      :     0.825316  p :     2.796007
      px      :     0.973222
      py      :     0.997469
      dz2     :     0.041446  d :     0.635694
      dxz     :     0.070104
      dyz     :     0.118783
      dx2y2   :     0.212705
      dxy     :     0.192657
      f0      :     0.005000  f :     0.077331
      f+1     :     0.004329
      f-1     :     0.006084
      f+2     :     0.006877
      f-2     :     0.009758
      f+3     :     0.014871
      f-3     :     0.030413

 11 C s       :     2.724597  s :     2.724597
      pz      :     0.825308  p :     2.796008
      px      :     0.973323
      py      :     0.997378
      dz2     :     0.041439  d :     0.635699
      dxz     :     0.070081
      dyz     :     0.118808
      dx2y2   :     0.212665
      dxy     :     0.192705
      f0      :     0.005000  f :     0.077332
      f+1     :     0.004325
      f-1     :     0.006087
      f+2     :     0.006888
      f-2     :     0.009746
      f+3     :     0.014797
      f-3     :     0.030488

 12 C s       :     2.699100  s :     2.699100
      pz      :     0.858806  p :     2.794168
      px      :     0.961724
      py      :     0.973638
      dz2     :     0.040286  d :     0.628905
      dxz     :     0.123361
      dyz     :     0.096207
      dx2y2   :     0.175427
      dxy     :     0.193624
      f0      :     0.005353  f :     0.080045
      f+1     :     0.006372
[...]
  0-1A  ->  1-1A    1.819152   14672.4   681.5   0.440801735   0.04420  -0.00020   0.21025   0.00023
  0-1A  ->  2-1A    2.562194   20665.5   483.9   0.121238677   0.01712  -0.13085  -0.00011  -0.00101
  0-1A  ->  3-1A    3.614295   29151.3   343.0   1.530335913   0.30490   0.55216   0.00050   0.00425
  0-1A  ->  4-1A    4.014964   32382.9   308.8   1.400399605   0.30994   0.00053  -0.55672  -0.00055
  0-1A  ->  5-1A    4.358679   35155.1   284.5   0.000001082   0.00000   0.00002   0.00015   0.00049
  0-1A  ->  6-1A    4.484378   36169.0   276.5   0.000008460   0.00000   0.00010   0.00144  -0.00009
  0-1A  ->  7-1A    4.534384   36572.3   273.4   0.002105941   0.00053   0.00028  -0.00048  -0.02294
  0-1A  ->  8-1A    4.598378   37088.4   269.6   0.018630149   0.00472   0.06872   0.00005   0.00055
  0-1A  ->  9-1A    4.666596   37638.6   265.7   0.000000117   0.00000   0.00000   0.00003   0.00017
  0-1A  -> 10-1A    5.061256   40821.8   245.0   0.000000002   0.00000  -0.00001   0.00002  -0.00001
  0-1A  -> 11-1A    5.225902   42149.7   237.2   0.000000028   0.00000   0.00000   0.00009   0.00000
  0-1A  -> 12-1A    5.293464   42694.7   234.2   0.000000399   0.00000   0.00006  -0.00002  -0.00034
  0-1A  -> 13-1A    5.582994   45029.9   222.1   0.000000161   0.00000   0.00022  -0.00001  -0.00000
  0-1A  -> 14-1A    5.808594   46849.5   213.4   0.000000024   0.00000   0.00007   0.00005   0.00001
  0-1A  -> 15-1A    5.861440   47275.7   211.5   0.097257995   0.03142  -0.00017   0.17726   0.00131
  0-1A  -> 16-1A    5.876600   47398.0   211.0   0.000001272   0.00000  -0.00044   0.00047   0.00000
  0-1A  -> 17-1A    5.914939   47707.2   209.6   0.000000446   0.00000   0.00037  -0.00007   0.00001
  0-1A  -> 18-1A    5.925322   47790.9   209.2   0.000006561   0.00000  -0.00146  -0.00014  -0.00001
  0-1A  -> 19-1A    5.927759   47810.6   209.2   0.000001825   0.00000  -0.00000  -0.00000  -0.00077
  0-1A  -> 20-1A    6.123860   49392.3   202.5   0.001318333   0.00045  -0.00003   0.02109   0.00027
  0-1A  -> 21-1A    6.234186   50282.1   198.9   0.000001966   0.00000   0.00001   0.00082   0.00002
  0-1A  -> 22-1A    6.278744   50641.5   197.5   0.277869304   0.09617  -0.00029   0.31011   0.00179
  0-1A  -> 23-1A    6.298555   50801.3   196.8   0.000008554   0.00000   0.00001  -0.00172   0.00002
  0-1A  -> 24-1A    6.304953   50852.9   196.6   0.001475793   0.00051  -0.00010  -0.00255   0.02250
  0-1A  -> 25-1A    6.375498   51421.9   194.5   0.000003443   0.00000  -0.00000   0.00110   0.00000
  0-1A  -> 26-1A    6.493476   52373.4   190.9   0.000002153   0.00000  -0.00088  -0.00003  -0.00001
  0-1A  -> 27-1A    6.583418   53098.9   188.3   0.000000289   0.00000   0.00016  -0.00000   0.00028
  0-1A  -> 28-1A    6.599854   53231.4   187.9   0.015961691   0.00581   0.07620   0.00009   0.00060
  0-1A  -> 29-1A    6.692788   53981.0   185.3   0.001021740   0.00038  -0.00012   0.00147   0.01936
  0-1A  -> 30-1A    6.696402   54010.1   185.2   0.000006933   0.00000  -0.00160   0.00001  -0.00005

------------------------------------------------------------------------------------------
                     CD SPECTRUM VIA TRANSITION ELECTRIC DIPOLE MOMENTS    
------------------------------------------------------------------------------------------
     Transition      Energy     Energy  Wavelength    R        MX        MY        MZ   
                      (eV)      (cm-1)    (nm)   (1e40*cgs)   (au)      (au)      (au)  
------------------------------------------------------------------------------------------
  0-1A  ->  1-1A    1.819152   14672.4   681.5   -0.52130   0.00001  -0.00037  -0.00001
  0-1A  ->  2-1A    2.562194   20665.5   483.9   -0.27563   0.00044   0.00001  -0.00051
  0-1A  ->  3-1A    3.614295   29151.3   343.0   -2.89594  -0.00153   0.00001  -0.00016
  0-1A  ->  4-1A    4.014964   32382.9   308.8   -0.55050  -0.00001   0.00032   0.00001
  0-1A  ->  5-1A    4.358679   35155.1   284.5    0.55078  -0.00344   0.03837   0.44395
  0-1A  ->  6-1A    4.484378   36169.0   276.5    1.92488   0.00004   0.48853  -0.06410
  0-1A  ->  7-1A    4.534384   36572.3   273.4    0.01090   0.00002  -0.00104  -0.00020
  0-1A  ->  8-1A    4.598378   37088.4   269.6   -0.10838  -0.00060  -0.00050   0.00044
  0-1A  ->  9-1A    4.666596   37638.6   265.7    0.49335  -0.00794   0.00993   1.02795
  0-1A  -> 10-1A    5.061256   40821.8   245.0    0.00002  -0.00085   0.00001  -0.00003
  0-1A  -> 11-1A    5.225902   42149.7   237.2   -0.00000   0.00063  -0.00002  -0.00012
  0-1A  -> 12-1A    5.293464   42694.7   234.2    0.62445   0.00684   0.00008  -0.88934
  0-1A  -> 13-1A    5.582994   45029.9   222.1    0.00000   0.00001  -0.00000  -0.00008
  0-1A  -> 14-1A    5.808594   46849.5   213.4   -0.00053  -0.00373  -0.00005  -0.00001
  0-1A  -> 15-1A    5.861440   47275.7   211.5    0.12621  -0.00004   0.00033   0.00004
  0-1A  -> 16-1A    5.876600   47398.0   211.0   -0.02742   0.02957   0.00004  -0.00005
  0-1A  -> 17-1A    5.914939   47707.2   209.6    0.04288   0.06682   0.00009   0.00023
  0-1A  -> 18-1A    5.925322   47790.9   209.2   -0.00010   0.00004  -0.00007   0.00073
  0-1A  -> 19-1A    5.927759   47810.6   209.2    0.24806   0.00089   0.00344  -0.13510
  0-1A  -> 20-1A    6.123860   49392.3   202.5    0.01376  -0.00000   0.00033  -0.00003
  0-1A  -> 21-1A    6.234186   50282.1   198.9   -0.00002   0.00337  -0.00004   0.00002
  0-1A  -> 22-1A    6.278744   50641.5   197.5    0.25027   0.00008   0.00040   0.00001
  0-1A  -> 23-1A    6.298555   50801.3   196.8    0.00017   0.00397  -0.00002   0.00002
  0-1A  -> 24-1A    6.304953   50852.9   196.6    0.01518  -0.00004  -0.00002   0.00016
  0-1A  -> 25-1A    6.375498   51421.9   194.5   -0.25338   0.00012  -0.12288   0.00074
  0-1A  -> 26-1A    6.493476   52373.4   190.9   -0.00002   0.00001  -0.00003   0.00008
  0-1A  -> 27-1A    6.583418   53098.9   188.3    0.03020  -0.00029  -0.00056   0.04763
  0-1A  -> 28-1A    6.599854   53231.4   187.9   -0.00424  -0.00003  -0.00003  -0.00013
  0-1A  -> 29-1A    6.692788   53981.0   185.3   -0.04736  -0.00000   0.00001  -0.00105
  0-1A  -> 30-1A    6.696402   54010.1   185.2   -0.00006   0.00001  -0.00003   0.00021

------------------------------------------------------------------------------------------
                     CD SPECTRUM VIA TRANSITION VELOCITY DIPOLE MOMENTS    
------------------------------------------------------------------------------------------
     Transition      Energy     Energy  Wavelength    R        MX        MY        MZ   
                      (eV)      (cm-1)    (nm)   (1e40*cgs)   (au)      (au)      (au)  
------------------------------------------------------------------------------------------
  0-1A  ->  1-1A    1.819152   14672.4   681.5   -0.54395   0.00001  -0.00037  -0.00001
  0-1A  ->  2-1A    2.562194   20665.5   483.9   -0.28373   0.00044   0.00001  -0.00051
  0-1A  ->  3-1A    3.614295   29151.3   343.0   -3.00663  -0.00153   0.00001  -0.00016
  0-1A  ->  4-1A    4.014964   32382.9   308.8   -0.57143  -0.00001   0.00032   0.00001
  0-1A  ->  5-1A    4.358679   35155.1   284.5    0.65398  -0.00344   0.03837   0.44395
  0-1A  ->  6-1A    4.484378   36169.0   276.5    2.02908   0.00004   0.48853  -0.06410
  0-1A  ->  7-1A    4.534384   36572.3   273.4    0.01451   0.00002  -0.00104  -0.00020
  0-1A  ->  8-1A    4.598378   37088.4   269.6   -0.11486  -0.00060  -0.00050   0.00044
  0-1A  ->  9-1A    4.666596   37638.6   265.7    0.48426  -0.00794   0.00993   1.02795
  0-1A  -> 10-1A    5.061256   40821.8   245.0    0.00002  -0.00085   0.00001  -0.00003
  0-1A  -> 11-1A    5.225902   42149.7   237.2   -0.00000   0.00063  -0.00002  -0.00012
  0-1A  -> 12-1A    5.293464   42694.7   234.2    0.72522   0.00684   0.00008  -0.88934
  0-1A  -> 13-1A    5.582994   45029.9   222.1    0.00001   0.00001  -0.00000  -0.00008
  0-1A  -> 14-1A    5.808594   46849.5   213.4   -0.00057  -0.00373  -0.00005  -0.00001
  0-1A  -> 15-1A    5.861440   47275.7   211.5    0.12865  -0.00004   0.00033   0.00004
  0-1A  -> 16-1A    5.876600   47398.0   211.0   -0.02850   0.02957   0.00004  -0.00005
  0-1A  -> 17-1A    5.914939   47707.2   209.6    0.05433   0.06682   0.00009   0.00023
  0-1A  -> 18-1A    5.925322   47790.9   209.2   -0.00010   0.00004  -0.00007   0.00073
  0-1A  -> 19-1A    5.927759   47810.6   209.2    0.22573   0.00089   0.00344  -0.13510
  0-1A  -> 20-1A    6.123860   49392.3   202.5    0.01473  -0.00000   0.00033  -0.00003
  0-1A  -> 21-1A    6.234186   50282.1   198.9   -0.00001   0.00337  -0.00004   0.00002
  0-1A  -> 22-1A    6.278744   50641.5   197.5    0.25532   0.00008   0.00040   0.00001
  0-1A  -> 23-1A    6.298555   50801.3   196.8    0.00017   0.00397  -0.00002   0.00002
  0-1A  -> 24-1A    6.304953   50852.9   196.6    0.00731  -0.00004  -0.00002   0.00016
  0-1A  -> 25-1A    6.375498   51421.9   194.5   -0.27197   0.00012  -0.12288   0.00074
  0-1A  -> 26-1A    6.493476   52373.4   190.9   -0.00002   0.00001  -0.00003   0.00008
  0-1A  -> 27-1A    6.583418   53098.9   188.3    0.02620  -0.00029  -0.00056   0.04763
  0-1A  -> 28-1A    6.599854   53231.4   187.9   -0.00458  -0.00003  -0.00003  -0.00013
  0-1A  -> 29-1A    6.692788   53981.0   185.3   -0.03902  -0.00000   0.00001  -0.00105
  0-1A  -> 30-1A    6.696402   54010.1   185.2   -0.00005   0.00001  -0.00003   0.00021

Total run time:    15521.567 sec

           *** ORCA-CIS/TD-DFT FINISHED WITHOUT ERROR ***
-----------------------
CIS/TD-DFT TOTAL ENERGY
-----------------------

    E(SCF)  =   -991.927265449 Eh
    DE(CIS) =      0.066852598 Eh (Root  1)
    ----------------------------- ---------
    E(tot)  =   -991.860412851 Eh


Maximum memory used throughout the entire CIS-calculation: 2729.5 MB
=> NOW LEAVING ORCA_CIS

-------------------------   --------------------
FINAL SINGLE POINT ENERGY      -991.860412851400
-------------------------   --------------------



           ************************************************************
           *        Program running with 4 parallel MPI-processes     *
           *              working on a common directory               *
           ************************************************************

------------------------------------------------------------------------------
                              ORCA PROPERTY CALCULATIONS
------------------------------------------------------------------------------

GBWName                                 ... tddft.gbw
Number of atoms                         ...     42
Number of basis functions               ...    852
Max core memory                         ...   3000 MB

Electric properties:
Dipole moment                           ... YES
Quadrupole moment                       ...  NO
Static polarizability (Dipole/Dipole)   ...  NO
Static polarizability (Dipole/Quad.)    ...  NO
Static polarizability (Quad./Quad.)     ...  NO
Static polarizability (Velocity)        ...  NO
Static hyperpolarizability              ...  NO

Atomic electric properties:
Dipole moment                           ...  NO
Quadrupole moment                       ...  NO
Static polarizability                   ...  NO

Choice of electric origin               ... Center of mass
Position of electric origin             ...    -0.003599    -0.013811     0.091660

General magnetic properties:
Magnetizability                         ...  NO

EPR properties:
g-Tensor (aka g-matrix)                 ...  NO
Zero-Field splitting spin-orbit         ...  NO
Zero-field splitting spin-spin          ...  NO
Hyperfine couplings                     ...  NO (   0 nuclei)
Quadrupole couplings                    ...  NO (   0 nuclei)
Contact density                         ...  NO (   0 nuclei)

NMR properties:
Chemical shifts                         ...  NO (   0 nuclei)
Spin-rotation constants                 ...  NO (   0 nuclei)
Spin-spin couplings                     ...  NO (   0 nuclei,    0 pairs)

Choice of magnetic origin               ... GIAO
Position of magnetic origin             ...     0.000000     0.000000     0.000000

Properties with geometric perturbations:
SCF Hessian                             ...  NO
IR spectrum                             ...  NO
VCD spectrum                            ...  NO
X-ray spectroscopy properties:
SCF XES/XAS/RIXS spectra                ...  NO

SCF SOC stabilization energy            ...  NO
Diagonal Born-Oppenheimer correction    ...  NO

-------------
DIPOLE MOMENT
-------------

Method             : SCF
Type of density    : Electron Density
Multiplicity       :   1
Irrep              :   0
Energy             :  -991.9272654493422579 Eh
Basis              : AO
                                X                 Y                 Z
Electronic contribution:     -0.000001794      -0.000909121      -0.000363292
Nuclear contribution   :     -0.000113296       0.000066341       0.000274503
                        -----------------------------------------
Total Dipole Moment    :     -0.000115090      -0.000842780      -0.000088790
                        -----------------------------------------
Magnitude (a.u.)       :      0.000855224
Magnitude (Debye)      :      0.002173806



--------------------
Rotational spectrum 
--------------------
 
Rotational constants in cm-1:             0.008883             0.008130             0.004258 
Rotational constants in MHz :           266.312298           243.718156           127.657012 

Dipole components along the rotational axes: 
x,y,z [a.u.] :    -0.000116     0.000843    -0.000087 
x,y,z [Debye]:    -0.000296     0.002142    -0.000220 

 

Dipole moment calculation done in   0.1 sec 

Maximum memory used throughout the entire PROP-calculation: 86.7 MB

--------------------------------
SUGGESTED CITATIONS FOR THIS RUN
--------------------------------

Below you find a list of papers that are relevant to this ORCA run
We neither can nor want to force you to cite these papers, but we appreciate if you do
You receive ORCA, which is the product of decades of hard work by many enthusiastic individuals, for free
The only thing we kindly ask in return is that you cite our papers,
We deeply appreciate it, if you show your appreciation for ORCA by not just citing the generic ORCA reference.

Please note that relegating all ORCA citations to the supporting information does *not* help us.
SI sections are not indexed - citations you put there will not count into any citation statistics
But we need these citations in order to attract the funding resources that allow us to do what we are doing

Therefore, if you are a happy ORCA user, please consider citing a few of the papers listed below in the main body of your paper

In addition to the list printed below, the program has created the file tddft.bibtex that contains the list in bibtex format
You can import this file easily into all common literature databanks and citation aid programs

It goes without saying that in many instances, there are alternative algorithms to achieve similar
results as the ones you have gotten from ORCA. It is, of course, also the case that in some instances
ORCA just re-implements algorithms worked out by others. We are fully aware of that and we are also
fully appreciative of our colleagues work. Hence this citation list should not be read as indicating
that the listed papers, which are focused on our own work, are the only ones worth citing. It simply
meant to make it easier for users to cite ORCA specific papers. It is not a substitute for doing your
own literature research and citing the relevant literature in a scientifically appropriate manner.

List of essential papers. We consider these as the minimum necessary citations

  1. Neese, F.
     Software update: the ORCA program system, version 6.0
     WIRES Comput. Molec. Sci. 2025 15(1), e70019
     doi.org/10.1002/wcms.70019

List of papers to cite with high priority. The work reported in these papers was absolutely
necessary for this run to complete.
Our perspective: the developers of density functionals and basis sets usually get cited in chemistry papers
Good! But without the algorithms to do something with them, the functionals or basis sets would not do anything.
Hence, in our opinion, the algorithm design and method developments papers are equally worthy of getting cited

  1. Neese, F.; Olbrich, G.
     Efficient use of the resolution of the identity approximation in time-dependent density functional calculations with hybrid density functionals
     Chem. Phys. Lett. 2002 362 , 170-178
     doi.org/10.1016/s0009-2614(02)01053-9
  2. Neese, F.
     An improvement of the resolution of the identity approximation for the formation of the Coulomb matrix
     J. Comp. Chem. 2003 24(14), 1740-1747
     doi.org/10.1002/jcc.10318
  3. Neese, F.; Wennmohs, F.; Hansen, A.; Becker, U.
     Efficient, approximate and parallel Hartree-Fock and hybrid DFT calculations. A 'chain-of-spheres' algorithm for the Hartree-Fock exchange
     Chem. Phys. 2009 356(1-3), 98-109
     doi.org/10.1016/j.chemphys.2008.10.036
  4. Garcia-Rates, M.; Neese, F.
     Effect of the Solute Cavity on the Solvation Energy and its Derivatives within the Framework of the Gaussian Charge Scheme
     J. Comput. Chem. 2020 41 , 922-939
     doi.org/10.1002/jcc.26139
  5. Helmich-Paris, B.; de Souza, B.; Neese, F.; Izsák, R.
     An improved chain of spheres for exchange algorithm
     J. Chem. Phys. 2021 155(10), 104109
     doi.org/10.1063/5.0058766
  6. Neese, F.
     The SHARK Integral Generation and Digestion System
     J. Comp. Chem. 2022 44(3), 381
     doi.org/10.1002/jcc.26942

List of suggested additional citations. These are papers that are important in the 'surrounding' of 
of this run, or papers that preceded the highly important papers. If you like your results we are grateful for a citation.

  1. Izsak, R.; Neese, F.
     An overlap fitted chain of spheres exchange method
     J. Chem. Phys. 2011 135 , 144105
     doi.org/10.1063/1.3646921
  2. Izsak, R.; Hansen, A.; Neese, F.
     The resolution of identity and chain of spheres approximations for the LPNO-CCSD singles Fock term
     Molec. Phys. 2012 110 , 2413-2417
     doi.org/10.1080/00268976.2012.687466
  3. Neese, F.
     The ORCA program system
     WIRES Comput. Molec. Sci. 2012 2(1), 73-78
     doi.org/10.1002/wcms.81
  4. Izsak, R.; Neese, F.; Klopper, W.
     Robust fitting techniques in the chain of spheres approximation to the Fock exchange: The role of the complementary space
     J. Chem. Phys. 2013 139 , 
     doi.org/10.1063/1.4819264
  5. Neese, F.
     Software update: the ORCA program system, version 4.0
     WIRES Comput. Molec. Sci. 2018 8(1), 1-6
     doi.org/10.1002/wcms.1327
  6. Neese, F.; Wennmohs, F.; Becker, U.; Riplinger, C.
     The ORCA quantum chemistry program package
     J. Chem. Phys. 2020 152(22), 224108
     doi.org/10.1063/5.0004608
  7. Neese, F.
     Software update: The ORCA program system—Version 5.0
     WIRES Comput. Molec. Sci. 2022 12(1), e1606
     doi.org/10.1002/wcms.1606

List of optional additional citations

  1. Neese, F.
     Approximate second-order SCF convergence for spin unrestricted wavefunctions
     Chem. Phys. Lett. 2000 325(1-3), 93-98
     doi.org/10.1016/s0009-2614(00)00662-x

Timings for individual modules:

Sum of individual times          ...    16092.361 sec (= 268.206 min)
Startup calculation              ...       25.348 sec (=   0.422 min)   0.2 %
SCF iterations                   ...      542.535 sec (=   9.042 min)   3.4 %
Property integrals               ...        1.617 sec (=   0.027 min)   0.0 %
Property calculations            ...        0.781 sec (=   0.013 min)   0.0 %
CIS module                       ...    15522.079 sec (= 258.701 min)  96.5 %
                             ****ORCA TERMINATED NORMALLY****
TOTAL RUN TIME: 0 days 4 hours 28 minutes 12 seconds 871 msec
