
                                 *****************
                                 * O   R   C   A *
                                 *****************

                                            #,                                       
                                            ###                                      
                                            ####                                     
                                            #####                                    
                                            ######                                   
                                           ########,                                 
                                     ,,################,,,,,                         
                               ,,#################################,,                 
                          ,,##########################################,,             
                       ,#########################################, ''#####,          
                    ,#############################################,,   '####,        
                  ,##################################################,,,,####,       
                ,###########''''           ''''###############################       
              ,#####''   ,,,,##########,,,,          '''####'''          '####       
            ,##' ,,,,###########################,,,                        '##       
           ' ,,###''''                  '''############,,,                           
         ,,##''                                '''############,,,,        ,,,,,,###''
      ,#''                                            '''#######################'''  
     '                                                          ''''####''''         
             ,#######,   #######,   ,#######,      ##                                
            ,#'     '#,  ##    ##  ,#'     '#,    #''#        ,####,    ,#,          
            ##       ##  ##   ,#'  ##            #'  '#       #'       ,# #          
            ##       ##  #######   ##           ,######,      #####,      #          
            '#,     ,#'  ##    ##  '#,     ,#' ,#      #,     #,   #      #          
             '#######'   ##     ##  '#######'  #'      '#     '####' #    #          



                #########################################################
                #                        -***-                          #
                #          Department of theory and spectroscopy        #
                #                                                       #
                #                      Frank Neese                      #
                #                                                       #
                #     Directorship, Architecture, Infrastructure        #
                #                    SHARK, DRIVERS                     #
                #        Core code/Algorithms in most modules           #
                #                                                       #
                #        Max Planck Institute fuer Kohlenforschung      #
                #                Kaiser Wilhelm Platz 1                 #
                #                 D-45470 Muelheim/Ruhr                 #
                #                      Germany                          #
                #                                                       #
                #                  All rights reserved                  #
                #                        -***-                          #
                #########################################################


                         Program Version 6.1.1  -  RELEASE   -
                                (GIT: $487d211c$)
                          ($2025-11-21 10:33:24 +0100$)


 With contributions from (in alphabetic order):
[Max-Planck-Institut fuer Kohlenforschung]                               
  Daniel Aravena         : Magnetic Suceptibility                        
  Michael Atanasov       : Ab Initio Ligand Field Theory (pilot matlab implementation)
  Alexander A. Auer      : GIAO ZORA, VPT2 properties, NMR spectrum      
  Ute Becker             : All parallelization in ORCA, NUMFREQ, NUMCALC 
  Giovanni Bistoni       : ED, misc. LED, open-shell LED, HFLD           
  Dmytro Bykov           : pre 5.0 version of the SCF Hessian            
  Marcos Casanova-Páez   : Triplet and SCS-CIS(D). UHF-(DLPNO)-IP/EA/STEOM-CCSD. UHF-CVS-IP/STEOM-CCSD   
  Vijay G. Chilkuri      : MRCI spin determinant printing, contributions to CSF-ICE 
  Pauline Colinet        : FMM embedding                                 
  Dipayan Datta          : RHF DLPNO-CCSD density                        
  Achintya Kumar Dutta   : EOM-CC, STEOM-CC                              
  Nicolas Foglia         : Exact transition moments, OPA infrastructure, MCD improvements    
  Dmitry Ganyushin       : Spin-Orbit,Spin-Spin,Magnetic field MRCI      
  Miquel Garcia-Rates    : C-PCM and meta-GGA Hessian, CCSD/C-PCM, Gaussian charge scheme 
  Tiago L. C. Gouveia    : GS-ROHF, GS-ROCIS                             
  Yang Guo               : DLPNO-NEVPT2, F12-NEVPT2, CIM, IAO-localization        
  Andreas Hansen         : Spin unrestricted coupled pair/coupled cluster methods 
  Ingolf Harden          : AUTO-CI MPn and infrastructure                
  Benjamin Helmich-Paris : MC-RPA, TRAH-(SCF,CASSCF), AVAS, COSX integrals, SCF dyn. polar., MC-PDFT, srDFT 
  Lee Huntington         : MR-EOM, pCC                                   
  Robert Izsak           : Overlap fitted RIJCOSX, COSX-SCS-MP3, EOM     
  Riya Kayal             : Wick's Theorem for AUTO-CI, AUTO-CI UHF-CCSDT 
  Emily Kempfer          : AUTO-CI RHF CISDT and CCSDT, approximate NEVPT4
  Christian Kollmar      : KDIIS, OOCD, Brueckner-CCSD(T), CCSD density, CASPT2, CASPT2-K, improved NEVPT2 
  Axel Koslowski         : Symmetry handling                             
  Simone Kossmann        : meta-GGA functionals, TD-DFT gradient, OOMP2, (MP2 Hessian; deprecated post 5.0) 
  Lucas Lang             : DCDCAS, Hyperfine gauge corrections, ICE-SOC+SSC
  Marvin Lechner         : AUTO-CI (C++ implementation), FIC-MRCC        
  Spencer Leger          : CASSCF response                               
  Dagmar Lenk            : GEPOL surface, SMD, ORCA-2-JSON               
  Dimitrios Liakos       : Extrapolation schemes; Compound Job, Property file
  Dimitrios Manganas     : Further ROCIS development; embedding schemes. LFT, Crystal Embedding 
  Dimitrios Pantazis     : SARC Basis sets                               
  Anastasios Papadopoulos: AUTO-CI, single reference methods and gradients 
  Taras Petrenko         : pre 6.0 DFT Hessian and TD-DFT gradient,  ECA, NRVS 
  Petra Pikulova         : Analytic Raman intensities                    
  Peter Pinski           : DLPNO-MP2, DLPNO-MP2 Gradient                 
  Shashank Vittal Rao    : ES-AILFT, MagRelax                            
  Christoph Reimann      : Effective Core Potentials                     
  Marius Retegan         : Local ZFS, SOC                                
  Christoph Riplinger    : Optimizer, TS searches, QM/MM, DLPNO-CCSD(T), (RO)-DLPNO pert. Triples 
  Michael Roemelt        : Original ROCIS implementation, recursive CI coupling coefficients
  Masaaki Saitow         : Open-shell DLPNO-CCSD energy and density      
  Barbara Sandhoefer     : DKH picture change effects                    
  Yorick L. A. Schmerwitz: GMF and freeze-and-release deltaSCF, NEB S-IDPP initial path                    
  Kantharuban Sivalingam : CASSCF convergence/infrastructure, NEVPT2, NEVPT3, NEVPT4(SD), FIC-MRCI and CEPA variants
  Bernardo de Souza      : ESD, SOC TD-DFT                               
  Georgi L. Stoychev     : AutoAux, RI-MP2 NMR, DLPNO-MP2 response, X2C  
  Van Anh Tran           : RI-MP2 g-tensors                              
  Willem Van den Heuvel  : Paramagnetic NMR                              
  Zikuan Wang            : NOTCH, Electric field optimization            
  Frank Wennmohs         : Technical directorship and infrastructure     
  Hang Xu                : AUTO-CI-Response properties                   
                                                                         
[FACCTs GmbH]                                                            
  Markus Bursch, Nicolas Foglia, Miquel Garcia-Rates, Ingolf Harden, Hagen Neugebauer, Anastasios Papadopoulos, 
  Christoph Riplinger, Bernardo de Souza, Georgi L. Stoychev                                                    
                                                                 
  APM, various basis sets, CI-OPT, improved COSX, DLPNO-Multilevel,           
  DOCKER, DRACO, updates on ESD, Fragmentator, GOAT, IRC, LR-CPCM, L-BFGS, MBIS, meta-GGA TD-DFT gradient, ML-optimized integration grids, 
  MM, NACMEs, nearIR, NEB, NEB-TS, NL-DFT gradient (VV10), 2- and 3-layer-ONIOM, interface openCOSMO-RS, QMMM,   
  Crystal-QMMM, RESP, rigid body optimization, SF, symmetry and pop. for TD-DFT, various functionals, SOLVATOR                                   
                                                                         
[Other institutions]                                                     
  V. Asgeirsson          : NEB                                           
  Christoph Bannwarth    : sTDA-DFT, sTD-DFT, PBEh-3c, B97-3c, D3        
  Giovanni Bistoni       : ETS/NOCV, ADLD/ADEX, COVALED                  
  Martin Brehm           : Molecular dynamics                            
  Ronald Cardenas        : ETS/NOCV                                      
  Martina Colucci        : COVALED                                       
  Sebastian Ehlert       : rSCAN, r2SCAN, r2SCAN-3c, D4, dhf basis sets  
  Marvin Friede          : D4 for Fr, Ra, Ac-Lr                          
  Lars Goerigk           : TD-DFT with DH, B97 family of functionals     
  Stefan Grimme          : VdW corrections, initial TS optimization, DFT functionals, gCP, sTDA/sTD-DF 
  Waldemar Hujo          : DFT-NL                                        
  H. Jonsson             : NEB                                           
  Holger Kruse           : gCP                                           
  Marcel Mueller         : wB97X-3c, vDZP basis set                      
  Hagen Neugebauer       : wr2SCAN, Native XTB                           
  Gianluca Regni         : ADLD/ADEX                                     
  Tobias Risthaus        : pre 6.0 range-separated hybrid DFT and stability analysis
  Lukas Wittmann         : regularized MP2, r2SCAN double-hybrids, wr2SCAN        
                                                                         
We gratefully acknowledge several colleagues who have allowed us to      
interface, adapt or use parts of their codes:                            
  Ed Valeev, F. Pavosevic, A. Kumar             : LibInt (2-el integral package), F12 methods 
  Garnet Chan, S. Sharma, J. Yang, R. Olivares  : DMRG                   
  Ulf Ekstrom                                   : XCFun DFT Library      
  Mihaly Kallay                                 : mrcc  (arbitrary order and MRCC methods)
  Frank Weinhold                                : gennbo (NPA and NBO analysis)           
  Simon Mueller                                 : openCOSMO-RS                            
  Christopher J. Cramer and Donald G. Truhlar   : smd solvation model                     
  S Lehtola, MJT Oliveira, MAL Marques          : LibXC Library                           
  Liviu Ungur et al                             : ANISO software                          


 Your calculation uses the libint2 library for the computation of 2-el integrals
 For citations please refer to: http://libint.valeyev.net

 Your ORCA version has been built with support for libXC version: 7.0.0
 For citations please refer to: https://libxc.gitlab.io

 This ORCA versions uses:
   CBLAS   interface :  Fast vector & matrix operations
   LAPACKE interface :  Fast linear algebra routines
   SCALAPACK package :  Parallel linear algebra routines
   Shared memory     :  Shared parallel matrices
   BLAS/LAPACK       :  OpenBLAS 0.3.29  USE64BITINT DYNAMIC_ARCH NO_AFFINITY Haswell SINGLE_THREADED
        Core in use  :  Haswell
   Copyright (c) 2011-2014, The OpenBLAS Project


  ***********************************
  * Starting time: Sat Jul  4 18:05:06 2026
  * Host name:     steezy
  * Process ID:    1141287
  * Working dir.:  /home/jannes/chlorophyll-ladder/006-core-ladder/bacteriochlorin/03_tddft_ch2cl2/wb97xd
  ***********************************

NOTE: MaxCore=3000 MB was set to SCF,MP2,MDCI,CIPSI,MRCI,RASCI and CIS
      => If you want to overwrite this, your respective input block should be placed after the MaxCore statement


***************************************
The coordinates will be read from file: /home/jannes/chlorophyll-ladder/006-core-ladder/bacteriochlorin/01_opt/bacteriochlorin_opt_b3lypd4_tzvp.xyz
***************************************


Your calculation utilizes the atom-pairwise dispersion correction
with the zero-damping scheme (D30)


XCFun DFT library Copyright 2009-2010 Ulf Ekstrom and contributors.
See http://admol.org/xcfun for more information.
This is free software; see the source code for copying conditions.
There is ABSOLUTELY NO WARRANTY; not even for MERCHANTABILITY or FITNESS FOR A PARTICULAR PURPOSE.
For details see the documentation.
Scientific users of this library should cite U. Ekstrom, L. Visscher, R. Bast, A. J. Thorvaldsen and K. Ruud;
J.Chem.Theor.Comp. 2010, DOI: 10.1021/ct100117s
XCFun Version 0.99 

================================================================================

----- Orbital basis set information -----
Your calculation utilizes the basis: def2-TZVP
   F. Weigend and R. Ahlrichs, Phys. Chem. Chem. Phys. 7, 3297 (2005).

----- AuxJ basis set information -----
Your calculation utilizes the auxiliary basis: def2/J
   H-Rn: F. Weigend, Phys. Chem. Chem. Phys. 8, 1057 (2006).
   Fr-Lr: K. Eichkorn, F. Weigend, O. Treutler, R. Ahlrichs; Theor. Chem. Acc. 97, 119 (1997).

================================================================================
                                        WARNINGS
                       Please study these warnings very carefully!
================================================================================

WARNING: Old DensityContainer found on disk!
         Will remove this file - 
         If you want to keep old densities, please start your calculation with a different basename. 


WARNING: CIS/ROCIS methods need fully converged wavefunctions
  ===> : Setting SCFConvForced true
         You can overwrite this default with %scf ConvForced false 


================================================================================
                                       INPUT FILE
================================================================================
NAME = tddft.inp
|  1> %pal nprocs 4 end
|  2> %maxcore 3000
|  3> ! wB97X-D3 def2-TZVP def2/J RIJCOSX DefGrid3 TightSCF CPCM(CH2Cl2)
|  4> %tddft
|  5>   nroots 30
|  6>   tda false
|  7>   triplets false
|  8> end
|  9> * xyzfile 0 1 /home/jannes/chlorophyll-ladder/006-core-ladder/bacteriochlorin/01_opt/bacteriochlorin_opt_b3lypd4_tzvp.xyz
| 10> 
| 11>                          ****END OF INPUT****
================================================================================

                       ****************************
                       * Single Point Calculation *
                       ****************************

---------------------------------
CARTESIAN COORDINATES (ANGSTROEM)
---------------------------------
  N     -2.131412   -0.009265    0.032172
  N      2.127586   -0.005444    0.064802
  N      0.000040   -2.091714    0.051036
  N     -0.003835    2.077181    0.045782
  C     -4.387102   -0.778213    0.013758
  C      4.384652   -0.770130    0.089686
  C     -4.388540    0.755536    0.015653
  C      4.383316    0.763535    0.074833
  C     -2.902846   -1.110617    0.025018
  C      2.901084   -1.105349    0.072960
  C     -2.904906    1.090705    0.027297
  C      2.899036    1.095964    0.068653
  C     -1.127031   -2.870559    0.036698
  C      1.128578   -2.868549    0.056111
  C     -1.132389    2.853974    0.042869
  C      1.123252    2.856000    0.058324
  C     -2.444220   -2.415686    0.027064
  C      2.444908   -2.411274    0.068798
  C     -2.448734    2.396618    0.032228
  C      2.440445    2.401034    0.065913
  C     -0.684322   -4.222404    0.031297
  C      0.688446   -4.221180    0.043188
  C     -0.692255    4.206595    0.055320
  C      0.680553    4.207830    0.064664
  H     -4.874413   -1.199174   -0.868103
  H     -4.888191   -1.201433    0.886742
  H      4.866168   -1.181777    0.979204
  H      4.892941   -1.200689   -0.775400
  H     -4.876916    1.177784   -0.864978
  H     -4.890163    1.175629    0.889862
  H      4.877404    1.194980    0.947676
  H      4.877711    1.176156   -0.807129
  H     -3.197095   -3.194415    0.018208
  H      3.199257   -3.188609    0.073971
  H     -3.203105    3.173945    0.029451
  H      3.193369    3.179739    0.072597
  H     -0.000955   -1.084944    0.069219
  H     -0.002847    1.070445    0.027203
  H     -1.341762   -5.076648    0.018452
  H      1.347534   -5.074248    0.041693
  H     -1.351322    5.059677    0.058203
  H      1.337982    5.062096    0.076507

----------------------------
CARTESIAN COORDINATES (A.U.)
----------------------------
  NO LB      ZA    FRAG     MASS         X           Y           Z
   0 N     7.0000    0    14.007   -4.027786   -0.017508    0.060797
   1 N     7.0000    0    14.007    4.020555   -0.010287    0.122458
   2 N     7.0000    0    14.007    0.000076   -3.952767    0.096444
   3 N     7.0000    0    14.007   -0.007246    3.925303    0.086515
   4 C     6.0000    0    12.011   -8.290422   -1.470610    0.025999
   5 C     6.0000    0    12.011    8.285791   -1.455336    0.169482
   6 C     6.0000    0    12.011   -8.293139    1.427757    0.029579
   7 C     6.0000    0    12.011    8.283266    1.442873    0.141415
   8 C     6.0000    0    12.011   -5.485584   -2.098762    0.047278
   9 C     6.0000    0    12.011    5.482255   -2.088808    0.137874
  10 C     6.0000    0    12.011   -5.489477    2.061134    0.051585
  11 C     6.0000    0    12.011    5.478383    2.071071    0.129735
  12 C     6.0000    0    12.011   -2.129780   -5.424569    0.069348
  13 C     6.0000    0    12.011    2.132703   -5.420773    0.106034
  14 C     6.0000    0    12.011   -2.139906    5.393229    0.081011
  15 C     6.0000    0    12.011    2.122639    5.397058    0.110216
  16 C     6.0000    0    12.011   -4.618906   -4.564984    0.051143
  17 C     6.0000    0    12.011    4.620206   -4.556648    0.130009
  18 C     6.0000    0    12.011   -4.627436    4.528951    0.060901
  19 C     6.0000    0    12.011    4.611773    4.537297    0.124558
  20 C     6.0000    0    12.011   -1.293181   -7.979187    0.059142
  21 C     6.0000    0    12.011    1.300974   -7.976873    0.081614
  22 C     6.0000    0    12.011   -1.308173    7.949313    0.104540
  23 C     6.0000    0    12.011    1.286059    7.951646    0.122197
  24 H     1.0000    0     1.008   -9.211305   -2.266110   -1.640476
  25 H     1.0000    0     1.008   -9.237342   -2.270380    1.675699
  26 H     1.0000    0     1.008    9.195725   -2.233235    1.850427
  27 H     1.0000    0     1.008    9.246319   -2.268974   -1.465294
  28 H     1.0000    0     1.008   -9.216036    2.225689   -1.634572
  29 H     1.0000    0     1.008   -9.241068    2.221618    1.681595
  30 H     1.0000    0     1.008    9.216957    2.258186    1.790848
  31 H     1.0000    0     1.008    9.217539    2.222613   -1.525252
  32 H     1.0000    0     1.008   -6.041635   -6.036570    0.034408
  33 H     1.0000    0     1.008    6.045720   -6.025599    0.139786
  34 H     1.0000    0     1.008   -6.052992    5.997887    0.055654
  35 H     1.0000    0     1.008    6.034593    6.008836    0.137188
  36 H     1.0000    0     1.008   -0.001804   -2.050246    0.130805
  37 H     1.0000    0     1.008   -0.005380    2.022848    0.051406
  38 H     1.0000    0     1.008   -2.535563   -9.593475    0.034869
  39 H     1.0000    0     1.008    2.546470   -9.588939    0.078788
  40 H     1.0000    0     1.008   -2.553629    9.561403    0.109988
  41 H     1.0000    0     1.008    2.528419    9.565976    0.144577

--------------------------------
INTERNAL COORDINATES (ANGSTROEM)
--------------------------------
 N      0   0   0     0.000000000000     0.00000000     0.00000000
 N      1   0   0     4.259125255101     0.00000000     0.00000000
 N      2   1   0     2.979793073612    44.38682812     0.00000000
 N      1   2   3     2.979937588325    44.38882278   180.00431492
 C      1   2   3     2.383224331891   161.22809761   359.84573394
 C      2   1   3     2.383214003440   161.23248144   359.50233838
 C      5   1   2     1.533751430147    71.22986369   180.01419164
 C      6   2   1     1.533738243799    71.22972948   180.01356821
 C      1   2   3     1.344670180013   125.06153963   359.86560291
 C      2   1   3     1.344677722639   125.06635837   359.95346450
 C      1   2   3     1.344711972034   125.06380517   179.87564624
 C      2   1   3     1.344710848961   125.05982141   179.96244185
 C      3   2   1     1.370070404362   170.20155793     1.63404683
 C      3   2   1     1.370071299641    78.97977972   179.80758086
 C      4   1   2     1.370055693583    78.98028333   180.28705742
 C      4   1   2     1.370051411824   170.20050419   358.79325121
 C      9   1   2     1.383309867927   125.62733382     0.00000000
 C     10   2   1     1.383312771574   125.62637910     0.16888808
 C     11   1   2     1.383302371438   125.62886297     0.00000000
 C     12   2   1     1.383300910147   125.63008454     0.16389811
 C     13   3  14     1.422500103026   106.51427545   359.95175657
 C     21  13   3     1.372819871769   108.07890070     0.03216577
 C     15   4   1     1.422482985703   106.51359629   179.68364988
 C     23  15   4     1.372840900539   108.07850459     0.02922486
 H      5   1   2     1.091951320565   123.57436885   285.31314714
 H      5   1   2     1.091927252438   123.58847392    74.71153694
 H      6   2   1     1.092040481764   123.16475135   285.31648811
 H      6   2   1     1.091839600997   123.99708756    74.71334140
 H      7   5   1     1.091931643407   112.71330269   119.42108336
 H      7   5   1     1.091945227046   112.71447592   240.60097410
 H      8   6   2     1.091843399771   112.76786613   119.85885046
 H      8   6   2     1.092034883831   112.65954529   241.03998255
 H     17   9   1     1.083198875997   116.60285971   180.13059775
 H     18  10   2     1.083198729248   116.60342035   179.84122245
 H     19  11   1     1.083200322095   116.60279398   180.13536402
 H     20  12   2     1.083199329200   116.60191752   179.83097021
 H      3   2   1     1.006935583970    45.62088712   358.45420150
 H      4   1   2     1.006907456919    45.61881323     1.58342957
 H     21  13   3     1.078019246471   124.28481501   180.11702728
 H     22  21  13     1.078019347289   127.63631014   180.09222208
 H     23  15   4     1.078018952298   124.28677920   180.11924900
 H     24  23  15     1.078018487835   127.63449325   180.09388479

---------------------------
INTERNAL COORDINATES (A.U.)
---------------------------
 N      0   0   0     0.000000000000     0.00000000     0.00000000
 N      1   0   0     8.048580302209     0.00000000     0.00000000
 N      2   1   0     5.630992844881    44.38682812     0.00000000
 N      1   2   3     5.631265938112    44.38882278   180.00431492
 C      1   2   3     4.503641302972   161.22809761   359.84573394
 C      2   1   3     4.503621785027   161.23248144   359.50233838
 C      5   1   2     2.898370160487    71.22986369   180.01419164
 C      6   2   1     2.898345241901    71.22972948   180.01356821
 C      1   2   3     2.541058380676   125.06153963   359.86560291
 C      2   1   3     2.541072634173   125.06635837   359.95346450
 C      1   2   3     2.541137356150   125.06380517   179.87564624
 C      2   1   3     2.541135233849   125.05982141   179.96244185
 C      3   2   1     2.589057848435   170.20155793     1.63404683
 C      3   2   1     2.589059540267    78.97977972   179.80758086
 C      4   1   2     2.589030049091    78.98028333   180.28705742
 C      4   1   2     2.589021957739   170.20050419   358.79325121
 C      9   1   2     2.614076808732   125.62733382     0.00000000
 C     10   2   1     2.614082295830   125.62637910     0.16888808
 C     11   1   2     2.614062642421   125.62886297     0.00000000
 C     12   2   1     2.614059880982   125.63008454     0.16389811
 C     13   3  14     2.688135620194   106.51427545   359.95175657
 C     21  13   3     2.594253588848   108.07890070     0.03216577
 C     15   4   1     2.688103273141   106.51359629   179.68364988
 C     23  15   4     2.594293327464   108.07850459     0.02922486
 H      5   1   2     2.063488947441   123.57436885   285.31314714
 H      5   1   2     2.063443465274   123.58847392    74.71153694
 H      6   2   1     2.063657437689   123.16475135   285.31648811
 H      6   2   1     2.063277828053   123.99708756    74.71334140
 H      7   5   1     2.063451763002   112.71330269   119.42108336
 H      7   5   1     2.063477432359   112.71447592   240.60097410
 H      8   6   2     2.063285006698   112.76786613   119.85885046
 H      8   6   2     2.063646859130   112.65954529   241.03998255
 H     17   9   1     2.046949224206   116.60285971   180.13059775
 H     18  10   2     2.046948946890   116.60342035   179.84122245
 H     19  11   1     2.046951956936   116.60279398   180.13536402
 H     20  12   2     2.046950080635   116.60191752   179.83097021
 H      3   2   1     1.902832488203    45.62088712   358.45420150
 H      4   1   2     1.902779335779    45.61881323     1.58342957
 H     21  13   3     2.037161142927   124.28481501   180.11702728
 H     22  21  13     2.037161333444   127.63631014   180.09222208
 H     23  15   4     2.037160587019   124.28677920   180.11924900
 H     24  23  15     2.037159709312   127.63449325   180.09388479

---------------------
BASIS SET INFORMATION
---------------------
There are 3 groups of distinct atoms

 Group   1 Type N   : 11s6p2d1f contracted to 5s3p2d1f pattern {62111/411/11/1}
 Group   2 Type C   : 11s6p2d1f contracted to 5s3p2d1f pattern {62111/411/11/1}
 Group   3 Type H   : 5s1p contracted to 3s1p pattern {311/1}

Atom   0N    basis set group =>   1
Atom   1N    basis set group =>   1
Atom   2N    basis set group =>   1
Atom   3N    basis set group =>   1
Atom   4C    basis set group =>   2
Atom   5C    basis set group =>   2
Atom   6C    basis set group =>   2
Atom   7C    basis set group =>   2
Atom   8C    basis set group =>   2
Atom   9C    basis set group =>   2
Atom  10C    basis set group =>   2
Atom  11C    basis set group =>   2
Atom  12C    basis set group =>   2
Atom  13C    basis set group =>   2
Atom  14C    basis set group =>   2
Atom  15C    basis set group =>   2
Atom  16C    basis set group =>   2
Atom  17C    basis set group =>   2
Atom  18C    basis set group =>   2
Atom  19C    basis set group =>   2
Atom  20C    basis set group =>   2
Atom  21C    basis set group =>   2
Atom  22C    basis set group =>   2
Atom  23C    basis set group =>   2
Atom  24H    basis set group =>   3
Atom  25H    basis set group =>   3
Atom  26H    basis set group =>   3
Atom  27H    basis set group =>   3
Atom  28H    basis set group =>   3
Atom  29H    basis set group =>   3
Atom  30H    basis set group =>   3
Atom  31H    basis set group =>   3
Atom  32H    basis set group =>   3
Atom  33H    basis set group =>   3
Atom  34H    basis set group =>   3
Atom  35H    basis set group =>   3
Atom  36H    basis set group =>   3
Atom  37H    basis set group =>   3
Atom  38H    basis set group =>   3
Atom  39H    basis set group =>   3
Atom  40H    basis set group =>   3
Atom  41H    basis set group =>   3
---------------------------------
AUXILIARY/J BASIS SET INFORMATION
---------------------------------
There are 3 groups of distinct atoms

 Group   1 Type N   : 12s5p4d2f1g contracted to 6s4p3d1f1g pattern {711111/2111/211/2/1}
 Group   2 Type C   : 12s5p4d2f1g contracted to 6s4p3d1f1g pattern {711111/2111/211/2/1}
 Group   3 Type H   : 5s2p1d contracted to 3s1p1d pattern {311/2/1}

Atom   0N    basis set group =>   1
Atom   1N    basis set group =>   1
Atom   2N    basis set group =>   1
Atom   3N    basis set group =>   1
Atom   4C    basis set group =>   2
Atom   5C    basis set group =>   2
Atom   6C    basis set group =>   2
Atom   7C    basis set group =>   2
Atom   8C    basis set group =>   2
Atom   9C    basis set group =>   2
Atom  10C    basis set group =>   2
Atom  11C    basis set group =>   2
Atom  12C    basis set group =>   2
Atom  13C    basis set group =>   2
Atom  14C    basis set group =>   2
Atom  15C    basis set group =>   2
Atom  16C    basis set group =>   2
Atom  17C    basis set group =>   2
Atom  18C    basis set group =>   2
Atom  19C    basis set group =>   2
Atom  20C    basis set group =>   2
Atom  21C    basis set group =>   2
Atom  22C    basis set group =>   2
Atom  23C    basis set group =>   2
Atom  24H    basis set group =>   3
Atom  25H    basis set group =>   3
Atom  26H    basis set group =>   3
Atom  27H    basis set group =>   3
Atom  28H    basis set group =>   3
Atom  29H    basis set group =>   3
Atom  30H    basis set group =>   3
Atom  31H    basis set group =>   3
Atom  32H    basis set group =>   3
Atom  33H    basis set group =>   3
Atom  34H    basis set group =>   3
Atom  35H    basis set group =>   3
Atom  36H    basis set group =>   3
Atom  37H    basis set group =>   3
Atom  38H    basis set group =>   3
Atom  39H    basis set group =>   3
Atom  40H    basis set group =>   3
Atom  41H    basis set group =>   3

Checking for AutoStart:
The File: tddft.gbw exists
Trying to determine its content:
     ... Fine, the file contains calculation information
     ... Fine, the calculation information was read
     ... Fine, the file contains a basis set
     ... Fine, the basis set was read
     ... Fine, the file contains a geometry
     ... Fine, the geometry was read
     ... Fine, the file contains a set of orbitals
     ... Fine, the orbitals can be read
     => possible old guess file was deleted
     => GBW file was renamed to GES file
     => GES file is set as startup file
     => Guess is set to MORead
     ... now leaving AutoStart



           ************************************************************
           *        Program running with 4 parallel MPI-processes     *
           *              working on a common directory               *
           ************************************************************
------------------------------------------------------------------------------
                             ORCA STARTUP CALCULATIONS
                           -- RI-GTO INTEGRALS CHOSEN --
------------------------------------------------------------------------------
------------------------------------------------------------------------------
                   ___                                                        
                  /   \      - P O W E R E D   B Y -                         
                 /     \                                                     
                 |  |  |   _    _      __       _____    __    __             
                 |  |  |  | |  | |    /  \     |  _  \  |  |  /  |          
                  \  \/   | |  | |   /    \    | | | |  |  | /  /          
                 / \  \   | |__| |  /  /\  \   | |_| |  |  |/  /          
                |  |  |   |  __  | /  /__\  \  |    /   |      \           
                |  |  |   | |  | | |   __   |  |    \   |  |\   \          
                \     /   | |  | | |  |  |  |  | |\  \  |  | \   \       
                 \___/    |_|  |_| |__|  |__|  |_| \__\ |__|  \__/        
                                                                              
                      - O R C A' S   B I G   F R I E N D -                    
                                      &                                       
                       - I N T E G R A L  F E E D E R -                       
                                                                              
 v1 FN, 2020, v2 2021, v3 2022-2024                                           
------------------------------------------------------------------------------


----------------------
SHARK INTEGRAL PACKAGE
----------------------

Number of atoms                             ...     42
Number of basis functions                   ...    852
Number of shells                            ...    336
Maximum angular momentum                    ...      3
Integral batch strategy                     ... SHARK/LIBINT Hybrid
RI-J (if used) integral strategy            ... SPLIT-RIJ (Revised 2003 algorithm where possible)
Printlevel                                  ...      1
Contraction scheme used                     ... SEGMENTED contraction
Prescreening option                         ... SCHWARTZ
   Thresh                                   ... 2.500e-11
   Tcut                                     ... 2.500e-12
   Tpresel                                  ... 2.500e-12 
Coulomb Range Separation                    ... NOT USED
Exchange Range Separation                   ... Long Range
   Mu parameter                             ... 2.500e-01
   Scaling (regular/separated)              ... 1.957e-01 8.043e-01
Robust (split-)RI terms used:
  metric    (central integrals)             ... YES
  density   (r.h.s.  integrals)             ... YES
  potential (l.h.s.  integrals)             ... YES
Multipole approximations                    ... NOT USED
Finite Nucleus Model                        ... NOT USED
CABS basis                                  ... NOT available
Auxiliary Coulomb fitting basis             ... AVAILABLE
   # of basis functions in Aux-J            ...   1374
   # of shells in Aux-J                     ...    450
   Maximum angular momentum in Aux-J        ...      4
Auxiliary J/K fitting basis                 ... NOT available
Auxiliary Correlation fitting basis         ... NOT available
Auxiliary 'external' fitting basis          ... NOT available

Checking pre-screening integrals            ... done (  0.0 sec) Dimension = 336
   => SHARK Basis and OBASIS are compatible. Storing Pre-screening
Shell pair information
Shell pair cut-off parameter TPreSel        ...   2.5e-12
Total number of shell pairs                 ...     56616
Shell pairs after pre-screening             ...     39301
Total number of primitive shell pairs       ...    173748
Primitive shell pairs kept                  ...     79347
          la=0 lb=0:  10148 shell pairs
          la=1 lb=0:  11400 shell pairs
          la=1 lb=1:   3217 shell pairs
          la=2 lb=0:   5542 shell pairs
          la=2 lb=1:   3204 shell pairs
          la=2 lb=2:    832 shell pairs
          la=3 lb=0:   2576 shell pairs
          la=3 lb=1:   1500 shell pairs
          la=3 lb=2:    712 shell pairs
          la=3 lb=3:    170 shell pairs

Checking whether 4 symmetric matrices of dimension 852 fit in memory
:Max Core in MB      =   3000.00
 MB in use           =     50.78
 MB left             =   2949.22
 MB needed           =     11.09
 Data fit in memory  = YES
Calculating RI/J V-Matrix + Cholesky decomp.... done (  0.3 sec)
Calculating Nuclear repulsion               ... done (  0.0 sec) ENN=   1923.382611487662 Eh

Diagonalization of the overlap matrix:
Smallest eigenvalue                        ... 9.782e-06
Time for diagonalization                   ...    0.291 sec
Threshold for overlap eigenvalues          ... 1.000e-07
Number of eigenvalues below threshold      ... 0
Time for construction of square roots      ...    0.161 sec
Total time needed                          ...    0.466 sec

-------------------
DFT GRID GENERATION
-------------------

General Integration Accuracy     IntAcc      ... 4.959
Radial Grid Type                 RadialGrid  ... OptM3 with GC (2021)
Angular Grid (max. ang.)         AngularGrid ... 6 (Lebedev-590)
Angular grid pruning method      GridPruning ... 4 (adaptive)
Weight generation scheme         WeightScheme... mBecke (2022)
Basis function cutoff            BFCut       ... 1.0000e-11
Integration weight cutoff        WCut        ... 1.0000e-14
Partially contracted basis set               ... off
Rotationally invariant grid construction     ... off
Angular grids for H and He will be reduced by one unit

Total number of grid points                  ...   492495
Total number of batches                      ...     7717
Average number of points per batch           ...       63
Average number of grid points per atom       ...    11726

--------------------
COSX GRID GENERATION
--------------------

GRIDX 1
-------
General Integration Accuracy     IntAcc      ... 4.020
Radial Grid Type                 RadialGrid  ... OptM3 with GC (2021)
Angular Grid (max. ang.)         AngularGrid ... 2 (Lebedev-110)
Angular grid pruning method      GridPruning ... 4 (adaptive)
Weight generation scheme         WeightScheme... mBecke (2022)
Basis function cutoff            BFCut       ... 1.0000e-11
Integration weight cutoff        WCut        ... 1.0000e-14
Partially contracted basis set               ... on
Rotationally invariant grid construction     ... off
Angular grids for H and He will be reduced by one unit

Total number of grid points                  ...    55174
Total number of batches                      ...      456
Average number of points per batch           ...      120
Average number of grid points per atom       ...     1314
UseSFitting                                  ... on

GRIDX 2
-------
General Integration Accuracy     IntAcc      ... 4.338
Radial Grid Type                 RadialGrid  ... OptM3 with GC (2021)
Angular Grid (max. ang.)         AngularGrid ... 3 (Lebedev-194)
Angular grid pruning method      GridPruning ... 4 (adaptive)
Weight generation scheme         WeightScheme... mBecke (2022)
Basis function cutoff            BFCut       ... 1.0000e-11
Integration weight cutoff        WCut        ... 1.0000e-14
Partially contracted basis set               ... on
Rotationally invariant grid construction     ... off
Angular grids for H and He will be reduced by one unit

Total number of grid points                  ...   120801
Total number of batches                      ...      966
Average number of points per batch           ...      125
Average number of grid points per atom       ...     2876
UseSFitting                                  ... on

GRIDX 3
-------
General Integration Accuracy     IntAcc      ... 4.871
Radial Grid Type                 RadialGrid  ... OptM3 with GC (2021)
Angular Grid (max. ang.)         AngularGrid ... 4 (Lebedev-302)
Angular grid pruning method      GridPruning ... 4 (adaptive)
Weight generation scheme         WeightScheme... mBecke (2022)
Basis function cutoff            BFCut       ... 1.0000e-11
Integration weight cutoff        WCut        ... 1.0000e-14
Partially contracted basis set               ... on
Rotationally invariant grid construction     ... off
Angular grids for H and He will be reduced by one unit

Total number of grid points                  ...   225532
Total number of batches                      ...     1785
Average number of points per batch           ...      126
Average number of grid points per atom       ...     5370
UseSFitting                                  ... on
Grids setup in  23.1 sec
Initializing property integral containers    ... done (  0.0 sec)

SHARK setup successfully completed in  25.4 seconds

Maximum memory used throughout the entire STARTUP-calculation: 156.2 MB


           ************************************************************
           *        Program running with 4 parallel MPI-processes     *
           *              working on a common directory               *
           ************************************************************
-------------------------------------------------------------------------------
                                 ORCA GUESS
                   Start orbitals & Density for SCF / CASSCF
-------------------------------------------------------------------------------

------------
SCF SETTINGS
------------
Hamiltonian:
 Density Functional     Method          .... DFT(GTOs)
 Exchange Functional    Exchange        .... WB97X-D3
 Correlation Functional Correlation     .... WB97X-D3
 Gradients option       PostSCFGGA      .... off
 Hybrid DFT is turned on
   Fraction HF Exchange ScalHFX         ....  0.195728
   Scaling of DF-GGA-X  ScalDFX         ....  0.000000
   Scaling of DF-GGA-C  ScalDFC         ....  1.000000
   Scaling of DF-LDA-C  ScalLDAC        ....  1.000000
   Perturbative correction              ....  0.000000
 Long-range corrected/Screened/Range-Separated Hybrid DFT is turned on
   Amount of maximum screened exact exchange              ....  0.804272
   Range separation parameter mu (erf(mu*r12)/r12)        ....  0.250000
 RI-approximation to the Coulomb term is turned on
   Number of AuxJ basis functions       .... 1374
   RIJ-COSX (HFX calculated with COS-X)).... on


General Settings:
 Integral files         IntName         .... tddft
 Hartree-Fock type      HFTyp           .... RHF
 Total Charge           Charge          ....    0
 Multiplicity           Mult            ....    1
 Number of Electrons    NEL             ....  166
 Basis Dimension        Dim             ....  852
 Nuclear Repulsion      ENuc            ....   1923.3826114877 Eh

Convergence Acceleration:
 AO-DIIS                CNVDIIS         .... on
   Start iteration      DIISMaxIt       ....    12
   Startup error        DIISStart       ....  0.200000
   # of expansion vecs  DIISMaxEq       ....     5
   Bias factor          DIISBfac        ....   1.050
   Max. coefficient     DIISMaxC        ....  10.000
 MO-DIIS                CNVKDIIS        .... off
 Trust-Rad. Augm. Hess. CNVTRAH         .... auto
   Auto Start mean grad. ratio tolernc. ....  1.125000
   Auto Start start iteration           ....     1
   Auto Start num. interpolation iter.  ....    10
   Max. Number of Micro iterations      ....    24
   Max. Number of Macro iterations      .... Maxiter - #DIIS iter
   Number of Davidson start vectors     ....     2
   Converg. threshold    (grad. norm)   ....   1.000e-05
   Grad. Scal. Fac. for Micro threshold ....   0.100
   Minimum threshold for Micro iter.    ....   1.000e-02
   NR start threshold (gradient norm)   ....   1.000e-04
   Initial trust radius                 ....   0.400
   Minimum AH scaling param. (alpha)    ....   1.000
   Maximum AH scaling param. (alpha)    .... 1000.000
   Quad. conv. algorithm                .... NR
   White noise on init. David. guess    .... on
   Maximum white noise                  ....   0.010
   Pseudo random numbers                .... off
   Inactive MOs                         .... canonical
   Orbital update algorithm             .... Taylor
   Preconditioner                       .... Diag
   Full preconditioner red. dimension   ....   250
 SOSCF                 CNVSOSCF           .... on
   Start iteration     SOSCFMaxIt         ....   150
   Startup grad/error  SOSCFStart         ....  0.003300
   Hessian update      SOSCFHessUp        .... L-BFGS
   Autom. constraints  SOSCFAutoConstrain .... off
 Level Shifting         CNVShift        .... on
   Level shift para.    LevelShift      ....    0.2500
   Turn off err/grad.   ShiftErr        ....    0.0010
 Zerner damping         CNVZerner       .... off
 Static damping         CNVDamp         .... on
   Fraction old density DampFac         ....    0.7000
   Max. Damping (<1)    DampMax         ....    0.9800
   Min. Damping (>=0)   DampMin         ....    0.0000
   Turn off err/grad.   DampErr         ....    0.1000

SCF Procedure:
 Maximum # iterations   MaxIter         ....   125
 SCF integral mode      SCFMode         .... Direct
   Integral package                     .... SHARK and LIBINT hybrid scheme
 Reset frequency        DirectResetFreq ....    20
 Integral Threshold     Thresh          ....  2.500e-11 Eh
 Primitive CutOff       TCut            ....  2.500e-12 Eh

Convergence Tolerance:
 Convergence Check Mode ConvCheckMode   .... Total+1el-Energy
 Convergence forced     ConvForced      .... 1
 Energy Change          TolE            ....  1.000e-08 Eh
 1-El. energy change                    ....  1.000e-05 Eh
 Orbital Gradient       TolG            ....  1.000e-05
 Orbital Rotation angle TolX            ....  1.000e-05
 DIIS Error             TolErr          ....  5.000e-07

---------------------
INITIAL GUESS: MOREAD
---------------------
Guess MOs are being read from file: tddft.ges
Input Geometry matches current geometry (good)
Input basis set matches current basis set (good)
Occupation numbers will be reassigned to an Aufbau configuration
MOs were renormalized
MOs were reorthogonalized (Cholesky)
                      ------------------
                      INITIAL GUESS DONE (   0.8 sec)
                      ------------------
             **** ENERGY FILE WAS UPDATED (tddft.en.tmp) ****
Finished Guess after   1.7 sec
Maximum memory used throughout the entire GUESS-calculation: 95.5 MB


           ************************************************************
           *        Program running with 4 parallel MPI-processes     *
           *              working on a common directory               *
           ************************************************************

-------------------------------------------------------------------------------------------
                                      ORCA LEAN-SCF
                              memory conserving SCF solver
-------------------------------------------------------------------------------------------

--------------------
CPCM SOLVATION MODEL
--------------------
CPCM parameters:
  Epsilon                                         ...       8.9990
  Refrac                                          ...       1.4242
  Rsolv                                           ...       1.3000
  Surface type                                    ... GAUSSIAN VDW
  Discretization scheme                           ... Constant charge density
    Threshold for H atoms                         ...       5.0000 (charges/Ang^2)
    Threshold for non-H atoms                     ...       5.0000 (charges/Ang^2)
  Epsilon function type                           ...         CPCM
Solvent:                                          ... DICHLOROMETHANE
Radii:
  Scheme                                          ... Element-dependent radii
  Radius for N  used is    3.5149 Bohr (=   1.8600 Ang.)
  Radius for C  used is    3.8550 Bohr (=   2.0400 Ang.)
  Radius for H  used is    2.4944 Bohr (=   1.3200 Ang.)
Calculating surface                               ...        done! (  0.0s)
Cavity surface points                             ...         3690
Cavity Volume                                     ...    2501.5510
Cavity Surface-area                               ...    1223.0827
Calculating surface distance matrix               ...        done! (  0.5s)
Performing Cholesky decomposition & store         ...        done! (  0.9s)
Overall time for CPCM initialization              ...                 1.4s

----------------------------------------D-I-I-S--------------------------------------------
Iteration    Energy (Eh)           Delta-E    RMSDP     MaxDP     DIISErr   Damp  Time(sec)
-------------------------------------------------------------------------------------------
               ***  Starting incremental Fock matrix formation  ***
                              *** Initializing SOSCF ***
---------------------------------------S-O-S-C-F--------------------------------------
Iteration    Energy (Eh)           Delta-E    RMSDP     MaxDP     MaxGrad    Time(sec)
--------------------------------------------------------------------------------------
    1    -992.0188494185435957     0.00e+00  6.45e-06  1.73e-04  6.67e-07   255.8
               *** Restarting incremental Fock matrix formation ***
    2    -992.0188494191506834    -6.07e-10  1.50e-06  4.61e-05  1.03e-06   339.8
                  *** Gradient check signals convergence ***

               *****************************************************
               *                     SUCCESS                       *
               *           SCF CONVERGED AFTER   2 CYCLES          *
               *****************************************************

Recomputing exchange energy using gridx3       ... done (  628.645 sec)
Old exchange energy                            :    -44.482913856 Eh
New exchange energy                            :    -44.482911177 Eh
Exchange energy change after final integration :      0.000002678 Eh
Total energy after final integration           :   -992.018846690 Eh
             **** ENERGY FILE WAS UPDATED (tddft.en.tmp) ****

----------------
TOTAL SCF ENERGY
----------------

Total Energy       :       -992.01884668995172 Eh          -26994.20518 eV

Components:
Nuclear Repulsion  :       1923.38261148766151 Eh           52337.90167 eV
Electronic Energy  :      -2915.38658326001814 Eh          -79331.70208 eV
One Electron Energy:      -5165.98516540999390 Eh         -140573.60297 eV
Two Electron Energy:       2250.59858214997575 Eh           61241.90090 eV
CPCM Dielectric    :         -0.01487759598982 Eh              -0.40484 eV

Virial components:
Potential Energy   :      -1979.44587840605845 Eh          -53863.46072 eV
Kinetic Energy     :        987.42703171610685 Eh           26869.25554 eV
Virial Ratio       :          2.00465028283241

DFT components:
N(Alpha)           :       83.000036148135 electrons
N(Beta)            :       83.000036148135 electrons
N(Total)           :      166.000072296271 electrons
E(XC)              :      -98.459960932858 Eh       

CPCM Solvation Model Properties:
Surface-charge          :         -0.03662286037500
Corrected charge        :         -0.00000000000000
Outlying charge corr.   :          0.00006330725993 Eh               0.00172 eV
Free-energy (cav+disp)  :  This term is not implemented in the current solvation scheme

---------------
SCF CONVERGENCE
---------------

  Last Energy change         ...    6.0709e-10  Tolerance :   1.0000e-08
  Last MAX-Density change    ...    4.6139e-05  Tolerance :   1.0000e-07
  Last RMS-Density change    ...    1.5021e-06  Tolerance :   5.0000e-09
  Last DIIS Error            ...    4.7562e-06  Tolerance :   5.0000e-07
  Last Orbital Gradient      ...    1.0349e-06  Tolerance :   1.0000e-05
  Last Orbital Rotation      ...    4.3434e-06  Tolerance :   1.0000e-05


----------------
ORBITAL ENERGIES
----------------

  NO   OCC          E(Eh)            E(eV) 
   0   2.0000     -14.459486      -393.4626 
   1   2.0000     -14.459477      -393.4624 
   2   2.0000     -14.419166      -392.3654 
   3   2.0000     -14.419163      -392.3654 
   4   2.0000     -10.323461      -280.9157 
   5   2.0000     -10.323441      -280.9151 
   6   2.0000     -10.323424      -280.9146 
   7   2.0000     -10.323403      -280.9141 
   8   2.0000     -10.315359      -280.6952 
   9   2.0000     -10.315358      -280.6952 
  10   2.0000     -10.315324      -280.6942 
  11   2.0000     -10.315323      -280.6942 
  12   2.0000     -10.281259      -279.7673 
  13   2.0000     -10.281241      -279.7668 
  14   2.0000     -10.280596      -279.7493 
  15   2.0000     -10.280579      -279.7488 
  16   2.0000     -10.278577      -279.6943 
  17   2.0000     -10.278573      -279.6942 
  18   2.0000     -10.278570      -279.6941 
  19   2.0000     -10.278566      -279.6940 
  20   2.0000     -10.275970      -279.6234 
  21   2.0000     -10.275969      -279.6233 
  22   2.0000     -10.275778      -279.6181 
  23   2.0000     -10.275778      -279.6181 
  24   2.0000      -1.108719       -30.1698 
  25   2.0000      -1.106763       -30.1165 
  26   2.0000      -1.070174       -29.1209 
  27   2.0000      -1.067300       -29.0427 
  28   2.0000      -0.937024       -25.4977 
  29   2.0000      -0.911275       -24.7970 
  30   2.0000      -0.907890       -24.7050 
  31   2.0000      -0.907553       -24.6958 
  32   2.0000      -0.905559       -24.6415 
  33   2.0000      -0.880508       -23.9598 
  34   2.0000      -0.879844       -23.9418 
  35   2.0000      -0.853892       -23.2356 
  36   2.0000      -0.840977       -22.8841 
  37   2.0000      -0.774862       -21.0851 
  38   2.0000      -0.772107       -21.0101 
  39   2.0000      -0.726943       -19.7811 
  40   2.0000      -0.709559       -19.3081 
  41   2.0000      -0.709365       -19.3028 
  42   2.0000      -0.689802       -18.7705 
  43   2.0000      -0.687978       -18.7208 
  44   2.0000      -0.687608       -18.7108 
  45   2.0000      -0.676444       -18.4070 
  46   2.0000      -0.672730       -18.3059 
  47   2.0000      -0.612722       -16.6730 
  48   2.0000      -0.606500       -16.5037 
  49   2.0000      -0.597924       -16.2703 
  50   2.0000      -0.590544       -16.0695 
  51   2.0000      -0.575784       -15.6679 
  52   2.0000      -0.574113       -15.6224 
  53   2.0000      -0.553339       -15.0571 
  54   2.0000      -0.549816       -14.9613 
  55   2.0000      -0.539563       -14.6823 
  56   2.0000      -0.539550       -14.6819 
  57   2.0000      -0.537316       -14.6211 
  58   2.0000      -0.529112       -14.3979 
  59   2.0000      -0.520053       -14.1513 
  60   2.0000      -0.511028       -13.9058 
  61   2.0000      -0.506416       -13.7803 
  62   2.0000      -0.501003       -13.6330 
  63   2.0000      -0.483424       -13.1546 
  64   2.0000      -0.474594       -12.9144 
  65   2.0000      -0.472395       -12.8545 
  66   2.0000      -0.466893       -12.7048 
  67   2.0000      -0.466142       -12.6844 
  68   2.0000      -0.465638       -12.6706 
  69   2.0000      -0.454294       -12.3620 
  70   2.0000      -0.451092       -12.2748 
  71   2.0000      -0.448503       -12.2044 
  72   2.0000      -0.447741       -12.1837 
  73   2.0000      -0.447184       -12.1685 
  74   2.0000      -0.407384       -11.0855 
  75   2.0000      -0.371581       -10.1112 
  76   2.0000      -0.369689       -10.0597 
  77   2.0000      -0.369609       -10.0576 
  78   2.0000      -0.359263        -9.7760 
  79   2.0000      -0.358539        -9.7563 
  80   2.0000      -0.343412        -9.3447 
  81   2.0000      -0.263582        -7.1724 
  82   2.0000      -0.228423        -6.2157 
  83   0.0000      -0.052068        -1.4169 
  84   0.0000       0.010121         0.2754 
  85   0.0000       0.088848         2.4177 
  86   0.0000       0.101208         2.7540 
  87   0.0000       0.117300         3.1919 
  88   0.0000       0.122036         3.3208 
  89   0.0000       0.123737         3.3670 
  90   0.0000       0.141285         3.8446 
  91   0.0000       0.148960         4.0534 
  92   0.0000       0.152570         4.1516 
  93   0.0000       0.154413         4.2018 
*Only the first 10 virtual orbitals were printed.

                    ********************************
                    * MULLIKEN POPULATION ANALYSIS *
                    ********************************

-----------------------
MULLIKEN ATOMIC CHARGES
-----------------------
   0 N :   -0.445220
   1 N :   -0.445235
   2 N :   -0.216634
   3 N :   -0.216609
   4 C :   -0.148343
   5 C :   -0.148299
   6 C :   -0.148374
   7 C :   -0.148598
   8 C :    0.199972
   9 C :    0.200021
  10 C :    0.200114
  11 C :    0.200254
  12 C :    0.260281
  13 C :    0.259950
  14 C :    0.260129
  15 C :    0.260052
  16 C :   -0.439007
  17 C :   -0.438890
  18 C :   -0.439097
  19 C :   -0.439114
  20 C :   -0.244121
  21 C :   -0.243755
  22 C :   -0.244029
  23 C :   -0.243853
  24 H :    0.127986
  25 H :    0.128185
  26 H :    0.127689
  27 H :    0.128470
  28 H :    0.128191
  29 H :    0.127971
  30 H :    0.128486
  31 H :    0.127707
  32 H :    0.164806
  33 H :    0.164829
  34 H :    0.164835
  35 H :    0.164787
  36 H :    0.228984
  37 H :    0.228983
  38 H :    0.166616
  39 H :    0.166615
  40 H :    0.166638
  41 H :    0.166625
Sum of atomic charges:   -0.0000000

--------------------------------
MULLIKEN REDUCED ORBITAL CHARGES
--------------------------------
  0 N s       :     3.626985  s :     3.626985
      pz      :     1.186087  p :     3.747791
      px      :     1.512367
      py      :     1.049337
      dz2     :     0.005540  d :     0.066802
      dxz     :     0.009546
      dyz     :     0.014431
      dx2y2   :     0.014926
      dxy     :     0.022359
      f0      :     0.000629  f :     0.003643
      f+1     :     0.000232
      f-1     :     0.000349
      f+2     :     0.000127
      f-2     :     0.000560
      f+3     :     0.000680
      f-3     :     0.001066

  1 N s       :     3.626989  s :     3.626989
      pz      :     1.186093  p :     3.747800
      px      :     1.512364
      py      :     1.049343
      dz2     :     0.005541  d :     0.066803
      dxz     :     0.009546
      dyz     :     0.014430
      dx2y2   :     0.014926
      dxy     :     0.022360
      f0      :     0.000629  f :     0.003643
      f+1     :     0.000232
      f-1     :     0.000349
      f+2     :     0.000127
      f-2     :     0.000560
      f+3     :     0.000680
      f-3     :     0.001066

  2 N s       :     3.434673  s :     3.434673
      pz      :     1.534406  p :     3.711357
      px      :     1.102662
      py      :     1.074290
      dz2     :     0.004875  d :     0.066042
      dxz     :     0.016378
      dyz     :     0.004150
      dx2y2   :     0.022698
      dxy     :     0.017941
      f0      :     0.000839  f :     0.004562
      f+1     :     0.000568
      f-1     :     0.000674
      f+2     :     0.000060
      f-2     :     0.000623
      f+3     :     0.001045
      f-3     :     0.000752

  3 N s       :     3.434670  s :     3.434670
      pz      :     1.534376  p :     3.711330
      px      :     1.102666
      py      :     1.074288
      dz2     :     0.004874  d :     0.066047
      dxz     :     0.016384
      dyz     :     0.004150
      dx2y2   :     0.022700
      dxy     :     0.017940
      f0      :     0.000840  f :     0.004562
      f+1     :     0.000568
      f-1     :     0.000674
      f+2     :     0.000060
      f-2     :     0.000623
      f+3     :     0.001045
      f-3     :     0.000752

  4 C s       :     3.127270  s :     3.127270
      pz      :     1.057208  p :     2.936724
      px      :     0.917383
      py      :     0.962134
      dz2     :     0.003519  d :     0.078781
      dxz     :     0.015748
      dyz     :     0.018014
      dx2y2   :     0.017105
      dxy     :     0.024395
      f0      :     0.000582  f :     0.005568
      f+1     :     0.000697
      f-1     :     0.000561
      f+2     :     0.000842
      f-2     :     0.000229
      f+3     :     0.001542
      f-3     :     0.001115

  5 C s       :     3.127247  s :     3.127247
      pz      :     1.057218  p :     2.936698
      px      :     0.917566
      py      :     0.961915
      dz2     :     0.003536  d :     0.078785
      dxz     :     0.015741
      dyz     :     0.018004
      dx2y2   :     0.017096
      dxy     :     0.024408
      f0      :     0.000583  f :     0.005568
      f+1     :     0.000698
      f-1     :     0.000559
      f+2     :     0.000842
      f-2     :     0.000230
      f+3     :     0.001544
      f-3     :     0.001114

  6 C s       :     3.127325  s :     3.127325
      pz      :     1.057191  p :     2.936698
      px      :     0.917600
      py      :     0.961907
      dz2     :     0.003519  d :     0.078782
      dxz     :     0.015752
      dyz     :     0.018011
      dx2y2   :     0.017098
      dxy     :     0.024402
      f0      :     0.000582  f :     0.005569
      f+1     :     0.000699
      f-1     :     0.000559
      f+2     :     0.000842
      f-2     :     0.000229
      f+3     :     0.001544
      f-3     :     0.001114

  7 C s       :     3.127546  s :     3.127546
      pz      :     1.057202  p :     2.936703
      px      :     0.917405
      py      :     0.962096
      dz2     :     0.003525  d :     0.078781
      dxz     :     0.015751
      dyz     :     0.018007
      dx2y2   :     0.017103
      dxy     :     0.024395
      f0      :     0.000582  f :     0.005569
      f+1     :     0.000697
      f-1     :     0.000561
      f+2     :     0.000842
      f-2     :     0.000229
      f+3     :     0.001542
      f-3     :     0.001115

  8 C s       :     3.118818  s :     3.118818
      pz      :     0.895079  p :     2.521056
      px      :     0.865392
      py      :     0.760585
      dz2     :     0.001569  d :     0.146485
      dxz     :     0.021521
      dyz     :     0.038546
      dx2y2   :     0.043075
      dxy     :     0.041774
      f0      :     0.002049  f :     0.013669
      f+1     :     0.000908
      f-1     :     0.000918
      f+2     :     0.001268
      f-2     :     0.001393
      f+3     :     0.002378
      f-3     :     0.004755

  9 C s       :     3.118897  s :     3.118897
      pz      :     0.895062  p :     2.520938
      px      :     0.865211
      py      :     0.760665
      dz2     :     0.001580  d :     0.146475
      dxz     :     0.021525
      dyz     :     0.038540
      dx2y2   :     0.043063
      dxy     :     0.041767
      f0      :     0.002049  f :     0.013669
      f+1     :     0.000909
      f-1     :     0.000918
      f+2     :     0.001266
      f-2     :     0.001395
      f+3     :     0.002390
      f-3     :     0.004743

 10 C s       :     3.118787  s :     3.118787
      pz      :     0.895123  p :     2.520948
      px      :     0.865223
      py      :     0.760602
      dz2     :     0.001570  d :     0.146482
      dxz     :     0.021526
      dyz     :     0.038537
      dx2y2   :     0.043075
      dxy     :     0.041774
      f0      :     0.002049  f :     0.013668
      f+1     :     0.000909
      f-1     :     0.000918
      f+2     :     0.001266
      f-2     :     0.001395
      f+3     :     0.002390
      f-3     :     0.004742

 11 C s       :     3.118622  s :     3.118622
      pz      :     0.895133  p :     2.520975
      px      :     0.865295
      py      :     0.760547
      dz2     :     0.001570  d :     0.146480
      dxz     :     0.021519
      dyz     :     0.038547
      dx2y2   :     0.043067
      dxy     :     0.041777
      f0      :     0.002049  f :     0.013669
      f+1     :     0.000908
      f-1     :     0.000918
      f+2     :     0.001268
      f-2     :     0.001392
      f+3     :     0.002378
      f-3     :     0.004755

 12 C s       :     3.100934  s :     3.100934
      pz      :     0.931987  p :     2.479396
      px      :     0.725361
      py      :     0.822048
      dz2     :     0.003854  d :     0.145383
      dxz     :     0.039752
      dyz     :     0.029896
      dx2y2   :     0.031835
      dxy     :     0.040046
      f0      :     0.002378  f :     0.014005
      f+1     :     0.001099
      f-1     :     0.000868
      f+2     :     0.000885
      f-2     :     0.002313
      f+3     :     0.003700
      f-3     :     0.002762

 13 C s       :     3.100993  s :     3.100993
      pz      :     0.932010  p :     2.479671
      px      :     0.725347
      py      :     0.822313
      dz2     :     0.003856  d :     0.145381
      dxz     :     0.039779
      dyz     :     0.029910
      dx2y2   :     0.031880
      dxy     :     0.039957
      f0      :     0.002378  f :     0.014005
      f+1     :     0.001099
      f-1     :     0.000867
      f+2     :     0.000890
      f-2     :     0.002309
      f+3     :     0.003713
      f-3     :     0.002749

 14 C s       :     3.100977  s :     3.100977
      pz      :     0.932076  p :     2.479506
      px      :     0.725129
      py      :     0.822300
      dz2     :     0.003852  d :     0.145383
      dxz     :     0.039774
      dyz     :     0.029911
      dx2y2   :     0.031885
      dxy     :     0.039961
      f0      :     0.002378  f :     0.014005
      f+1     :     0.001098
      f-1     :     0.000867
      f+2     :     0.000890
      f-2     :     0.002309
      f+3     :     0.003713
      f-3     :     0.002749

 15 C s       :     3.100970  s :     3.100970
      pz      :     0.932049  p :     2.479578
      px      :     0.725368
      py      :     0.822160
      dz2     :     0.003852  d :     0.145395
      dxz     :     0.039751
      dyz     :     0.029901
      dx2y2   :     0.031840
      dxy     :     0.040051
      f0      :     0.002378  f :     0.014005
      f+1     :     0.001099
      f-1     :     0.000868
      f+2     :     0.000885
      f-2     :     0.002313
      f+3     :     0.003700
      f-3     :     0.002762

 16 C s       :     3.337132  s :     3.337132
      pz      :     1.069426  p :     3.021579
      px      :     0.941817
      py      :     1.010336
      dz2     :     0.003023  d :     0.072958
      dxz     :     0.014251
      dyz     :     0.015676
      dx2y2   :     0.007915
      dxy     :     0.032093
      f0      :     0.001540  f :     0.007338
      f+1     :     0.000694
      f-1     :     0.000697
      f+2     :     0.000792
      f-2     :     0.000443
      f+3     :     0.001558
      f-3     :     0.001613

 17 C s       :     3.336938  s :     3.336938
      pz      :     1.069447  p :     3.021649
      px      :     0.942097
      py      :     1.010105
      dz2     :     0.003023  d :     0.072965
      dxz     :     0.014207
      dyz     :     0.015721
      dx2y2   :     0.007924
      dxy     :     0.032090
      f0      :     0.001540  f :     0.007338
      f+1     :     0.000695
      f-1     :     0.000697
      f+2     :     0.000792
      f-2     :     0.000443
      f+3     :     0.001564
      f-3     :     0.001607

 18 C s       :     3.337253  s :     3.337253
      pz      :     1.069434  p :     3.021559
      px      :     0.942049
      py      :     1.010077
      dz2     :     0.003021  d :     0.072947
      dxz     :     0.014210
      dyz     :     0.015723
      dx2y2   :     0.007918
      dxy     :     0.032075
      f0      :     0.001540  f :     0.007338
      f+1     :     0.000695
      f-1     :     0.000697
      f+2     :     0.000792
      f-2     :     0.000443
      f+3     :     0.001564
      f-3     :     0.001607

 19 C s       :     3.337246  s :     3.337246
      pz      :     1.069446  p :     3.021570
      px      :     0.941778
      py      :     1.010346
      dz2     :     0.003022  d :     0.072960
      dxz     :     0.014253
      dyz     :     0.015679
      dx2y2   :     0.007917
      dxy     :     0.032089
      f0      :     0.001540  f :     0.007338
      f+1     :     0.000694
      f-1     :     0.000697
      f+2     :     0.000792
      f-2     :     0.000442
      f+3     :     0.001558
      f-3     :     0.001613

 20 C s       :     3.270512  s :     3.270512
      pz      :     1.013367  p :     2.881153
      px      :     0.953198
      py      :     0.914588
      dz2     :     0.005130  d :     0.084569
      dxz     :     0.020565
      dyz     :     0.010913
      dx2y2   :     0.017685
      dxy     :     0.030277
      f0      :     0.001602  f :     0.007886
      f+1     :     0.000635
      f-1     :     0.000796
      f+2     :     0.001183
      f-2     :     0.000257
      f+3     :     0.001164
      f-3     :     0.002249

 21 C s       :     3.270236  s :     3.270236
      pz      :     1.013368  p :     2.881065
      px      :     0.953206
      py      :     0.914491
      dz2     :     0.005137  d :     0.084567
      dxz     :     0.020533
      dyz     :     0.010934
      dx2y2   :     0.017685
      dxy     :     0.030278
      f0      :     0.001602  f :     0.007886
      f+1     :     0.000636
      f-1     :     0.000796
      f+2     :     0.001186
      f-2     :     0.000253
      f+3     :     0.001167
      f-3     :     0.002247

 22 C s       :     3.270241  s :     3.270241
      pz      :     1.013422  p :     2.881331
      px      :     0.953377
      py      :     0.914531
      dz2     :     0.005134  d :     0.084571
      dxz     :     0.020536
      dyz     :     0.010935
      dx2y2   :     0.017688
      dxy     :     0.030278
      f0      :     0.001602  f :     0.007886
      f+1     :     0.000636
      f-1     :     0.000796
      f+2     :     0.001186
      f-2     :     0.000253
      f+3     :     0.001167
      f-3     :     0.002246

 23 C s       :     3.270151  s :     3.270151
      pz      :     1.013413  p :     2.881237
      px      :     0.953220
      py      :     0.914605
      dz2     :     0.005130  d :     0.084578
      dxz     :     0.020567
      dyz     :     0.010912
      dx2y2   :     0.017685
      dxy     :     0.030284
      f0      :     0.001602  f :     0.007886
      f+1     :     0.000635
      f-1     :     0.000796
      f+2     :     0.001183
      f-2     :     0.000257
      f+3     :     0.001165
      f-3     :     0.002249

 24 H s       :     0.850139  s :     0.850139
      pz      :     0.009843  p :     0.021875
      px      :     0.006386
      py      :     0.005646

 25 H s       :     0.849939  s :     0.849939
      pz      :     0.009720  p :     0.021875
      px      :     0.006493
      py      :     0.005662

 26 H s       :     0.850426  s :     0.850426
      pz      :     0.009955  p :     0.021885
      px      :     0.006343
      py      :     0.005587

 27 H s       :     0.849665  s :     0.849665
      pz      :     0.009607  p :     0.021865
      px      :     0.006549
      py      :     0.005708

 28 H s       :     0.849934  s :     0.849934
      pz      :     0.009827  p :     0.021875
      px      :     0.006393
      py      :     0.005655

 29 H s       :     0.850153  s :     0.850153
      pz      :     0.009736  p :     0.021875
      px      :     0.006500
      py      :     0.005640

 30 H s       :     0.849650  s :     0.849650
      pz      :     0.009715  p :     0.021865
      px      :     0.006435
      py      :     0.005715

 31 H s       :     0.850408  s :     0.850408
      pz      :     0.009848  p :     0.021885
      px      :     0.006443
      py      :     0.005594

 32 H s       :     0.812563  s :     0.812563
      pz      :     0.005230  p :     0.022631
      px      :     0.008530
      py      :     0.008870

 33 H s       :     0.812540  s :     0.812540
      pz      :     0.005230  p :     0.022631
      px      :     0.008550
      py      :     0.008850

 34 H s       :     0.812534  s :     0.812534
      pz      :     0.005230  p :     0.022630
      px      :     0.008551
      py      :     0.008850

 35 H s       :     0.812582  s :     0.812582
      pz      :     0.005230  p :     0.022631
      px      :     0.008531
      py      :     0.008870

 36 H s       :     0.729000  s :     0.729000
      pz      :     0.010517  p :     0.042016
      px      :     0.006274
      py      :     0.025224

 37 H s       :     0.729000  s :     0.729000
      pz      :     0.010518  p :     0.042016
      px      :     0.006274
      py      :     0.025224

 38 H s       :     0.811416  s :     0.811416
      pz      :     0.004677  p :     0.021967
      px      :     0.007236
      py      :     0.010054

 39 H s       :     0.811418  s :     0.811418
      pz      :     0.004676  p :     0.021967
      px      :     0.007256
      py      :     0.010036

 40 H s       :     0.811395  s :     0.811395
      pz      :     0.004677  p :     0.021967
      px      :     0.007255
      py      :     0.010035

 41 H s       :     0.811408  s :     0.811408
      pz      :     0.004678  p :     0.021967
      px      :     0.007236
      py      :     0.010054



                     *******************************
                     * LOEWDIN POPULATION ANALYSIS *
                     *******************************

----------------------
LOEWDIN ATOMIC CHARGES
----------------------
   0 N :    0.124254
   1 N :    0.124250
   2 N :    0.245557
   3 N :    0.245577
   4 C :   -0.198491
   5 C :   -0.198497
   6 C :   -0.198496
   7 C :   -0.198500
   8 C :   -0.231155
   9 C :   -0.231150
  10 C :   -0.231153
  11 C :   -0.231158
  12 C :   -0.200851
  13 C :   -0.200851
  14 C :   -0.200883
  15 C :   -0.200886
  16 C :   -0.136447
  17 C :   -0.136447
  18 C :   -0.136454
  19 C :   -0.136458
  20 C :   -0.123480
  21 C :   -0.123480
  22 C :   -0.123519
  23 C :   -0.123518
  24 H :    0.147110
  25 H :    0.147101
  26 H :    0.147228
  27 H :    0.146983
  28 H :    0.147100
  29 H :    0.147106
  30 H :    0.146983
  31 H :    0.147225
  32 H :    0.167896
  33 H :    0.167894
  34 H :    0.167895
  35 H :    0.167894
  36 H :    0.185324
  37 H :    0.185314
  38 H :    0.150799
  39 H :    0.150799
  40 H :    0.150792
  41 H :    0.150791

-------------------------------
LOEWDIN REDUCED ORBITAL CHARGES
-------------------------------
  0 N s       :     3.032569  s :     3.032569
      pz      :     1.068245  p :     3.610860
      px      :     1.421196
      py      :     1.121419
      dz2     :     0.016743  d :     0.212962
      dxz     :     0.010762
      dyz     :     0.047096
      dx2y2   :     0.061266
      dxy     :     0.077095
      f0      :     0.001118  f :     0.019355
      f+1     :     0.000750
      f-1     :     0.001795
      f+2     :     0.000290
      f-2     :     0.003484
      f+3     :     0.004207
      f-3     :     0.007710

  1 N s       :     3.032572  s :     3.032572
      pz      :     1.068251  p :     3.610863
      px      :     1.421195
      py      :     1.121418
      dz2     :     0.016743  d :     0.212959
      dxz     :     0.010762
      dyz     :     0.047095
      dx2y2   :     0.061265
      dxy     :     0.077094
      f0      :     0.001118  f :     0.019355
      f+1     :     0.000750
      f-1     :     0.001795
      f+2     :     0.000290
      f-2     :     0.003484
      f+3     :     0.004207
      f-3     :     0.007710

  2 N s       :     2.884625  s :     2.884625
      pz      :     1.346405  p :     3.616599
      px      :     1.138513
      py      :     1.131682
      dz2     :     0.013796  d :     0.235381
      dxz     :     0.049812
      dyz     :     0.011260
      dx2y2   :     0.090671
      dxy     :     0.069841
      f0      :     0.001176  f :     0.017837
      f+1     :     0.001683
      f-1     :     0.001685
      f+2     :     0.000289
      f-2     :     0.003878
      f+3     :     0.006671
      f-3     :     0.002457

  3 N s       :     2.884606  s :     2.884606
      pz      :     1.346377  p :     3.616574
      px      :     1.138518
      py      :     1.131678
      dz2     :     0.013794  d :     0.235404
      dxz     :     0.049827
      dyz     :     0.011259
      dx2y2   :     0.090681
      dxy     :     0.069843
      f0      :     0.001176  f :     0.017839
      f+1     :     0.001683
      f-1     :     0.001684
      f+2     :     0.000289
      f-2     :     0.003879
      f+3     :     0.006672
      f-3     :     0.002457

  4 C s       :     2.765145  s :     2.765145
      pz      :     1.038184  p :     3.032361
      px      :     0.993580
      py      :     1.000598
      dz2     :     0.037721  d :     0.360880
      dxz     :     0.072933
      dyz     :     0.074509
      dx2y2   :     0.088032
      dxy     :     0.087685
      f0      :     0.003866  f :     0.040104
      f+1     :     0.003931
      f-1     :     0.003684
      f+2     :     0.005340
      f-2     :     0.004167
      f+3     :     0.011605
      f-3     :     0.007512

  5 C s       :     2.765142  s :     2.765142
      pz      :     1.038174  p :     3.032358
      px      :     0.993614
      py      :     1.000570
      dz2     :     0.037798  d :     0.360892
      dxz     :     0.072984
      dyz     :     0.074376
      dx2y2   :     0.087977
      dxy     :     0.087757
      f0      :     0.003871  f :     0.040105
      f+1     :     0.003929
      f-1     :     0.003679
      f+2     :     0.005343
      f-2     :     0.004170
      f+3     :     0.011615
      f-3     :     0.007499

  6 C s       :     2.765145  s :     2.765145
      pz      :     1.038186  p :     3.032363
      px      :     0.993614
      py      :     1.000563
      dz2     :     0.037715  d :     0.360884
      dxz     :     0.073041
      dyz     :     0.074412
      dx2y2   :     0.087986
      dxy     :     0.087729
      f0      :     0.003865  f :     0.040105
      f+1     :     0.003934
      f-1     :     0.003682
      f+2     :     0.005340
      f-2     :     0.004167
      f+3     :     0.011617
      f-3     :     0.007499

  7 C s       :     2.765142  s :     2.765142
      pz      :     1.038181  p :     3.032357
      px      :     0.993580
      py      :     1.000597
      dz2     :     0.037727  d :     0.360895
      dxz     :     0.072954
      dyz     :     0.074496
      dx2y2   :     0.088032
      dxy     :     0.087686
      f0      :     0.003865  f :     0.040106
      f+1     :     0.003932
      f-1     :     0.003686
      f+2     :     0.005339
      f-2     :     0.004166
      f+3     :     0.011606
      f-3     :     0.007511

  8 C s       :     2.722558  s :     2.722558
      pz      :     0.823415  p :     2.795414
      px      :     0.973429
      py      :     0.998570
      dz2     :     0.041138  d :     0.635175
      dxz     :     0.069680
      dyz     :     0.117771
      dx2y2   :     0.213253
      dxy     :     0.193334
      f0      :     0.005233  f :     0.078007
      f+1     :     0.004305
      f-1     :     0.005978
      f+2     :     0.007010
      f-2     :     0.009945
      f+3     :     0.015193
      f-3     :     0.030344

  9 C s       :     2.722558  s :     2.722558
      pz      :     0.823425  p :     2.795412
      px      :     0.973325
      py      :     0.998662
      dz2     :     0.041150  d :     0.635173
      dxz     :     0.069698
      dyz     :     0.117750
      dx2y2   :     0.213286
      dxy     :     0.193288
      f0      :     0.005232  f :     0.078007
      f+1     :     0.004310
      f-1     :     0.005974
      f+2     :     0.006999
      f-2     :     0.009957
      f+3     :     0.015264
      f-3     :     0.030271

 10 C s       :     2.722563  s :     2.722563
      pz      :     0.823465  p :     2.795441
      px      :     0.973324
      py      :     0.998653
      dz2     :     0.041136  d :     0.635147
      dxz     :     0.069697
      dyz     :     0.117747
      dx2y2   :     0.213281
      dxy     :     0.193286
      f0      :     0.005232  f :     0.078002
      f+1     :     0.004308
      f-1     :     0.005974
      f+2     :     0.007000
      f-2     :     0.009954
      f+3     :     0.015264
      f-3     :     0.030270

 11 C s       :     2.722561  s :     2.722561
      pz      :     0.823455  p :     2.795442
      px      :     0.973424
      py      :     0.998563
      dz2     :     0.041130  d :     0.635153
      dxz     :     0.069676
      dyz     :     0.117771
      dx2y2   :     0.213243
      dxy     :     0.193333
      f0      :     0.005233  f :     0.078002
      f+1     :     0.004304
      f-1     :     0.005977
[...]
  0-1A  -> 16-1A    5.972997   48175.5   207.6   0.000001305   0.00000  -0.00065  -0.00006  -0.00000
  0-1A  -> 17-1A    6.013926   48505.6   206.2   0.103280546   0.03424  -0.00017   0.18503   0.00145
  0-1A  -> 18-1A    6.106568   49252.8   203.0   0.000001498   0.00000  -0.00000   0.00000   0.00071
  0-1A  -> 19-1A    6.372716   51399.4   194.6   0.002781317   0.00098  -0.00003   0.03126   0.00035
  0-1A  -> 20-1A    6.389943   51538.4   194.0   0.000000640   0.00000  -0.00047  -0.00001  -0.00002
  0-1A  -> 21-1A    6.465373   52146.8   191.8   0.000017588   0.00001  -0.00001  -0.00250  -0.00003
  0-1A  -> 22-1A    6.496939   52401.3   190.8   0.292189850   0.10464  -0.00030   0.32348   0.00172
  0-1A  -> 23-1A    6.715347   54162.9   184.6   0.000000002   0.00000  -0.00001   0.00001  -0.00002
  0-1A  -> 24-1A    6.733665   54310.7   184.1   0.002036909   0.00076   0.00020  -0.00062  -0.02749
  0-1A  -> 25-1A    6.832943   55111.4   181.5   0.000000023   0.00000   0.00005  -0.00008   0.00000
  0-1A  -> 26-1A    6.841595   55181.2   181.2   0.015612371   0.00589  -0.07673  -0.00009  -0.00061
  0-1A  -> 27-1A    6.938684   55964.3   178.7   0.000008107   0.00000   0.00176  -0.00001   0.00001
  0-1A  -> 28-1A    6.950355   56058.4   178.4   0.000000055   0.00000   0.00006   0.00003   0.00013
  0-1A  -> 29-1A    7.010943   56547.1   176.8   0.000000237   0.00000   0.00030   0.00002   0.00000
  0-1A  -> 30-1A    7.058787   56933.0   175.6   0.000007127   0.00000  -0.00167  -0.00002  -0.00001

------------------------------------------------------------------------------------------
                     CD SPECTRUM VIA TRANSITION ELECTRIC DIPOLE MOMENTS    
------------------------------------------------------------------------------------------
     Transition      Energy     Energy  Wavelength    R        MX        MY        MZ   
                      (eV)      (cm-1)    (nm)   (1e40*cgs)   (au)      (au)      (au)  
------------------------------------------------------------------------------------------
  0-1A  ->  1-1A    1.576684   12716.8   786.4   -0.45413  -0.00001   0.00030   0.00001
  0-1A  ->  2-1A    2.367069   19091.7   523.8   -0.20829  -0.00037  -0.00001   0.00064
  0-1A  ->  3-1A    3.616226   29166.8   342.9   -2.88037   0.00150  -0.00001   0.00016
  0-1A  ->  4-1A    4.064729   32784.3   305.0   -0.37980   0.00001  -0.00022  -0.00001
  0-1A  ->  5-1A    4.451883   35906.9   278.5    0.42789   0.00234  -0.05133  -0.29800
  0-1A  ->  6-1A    4.546124   36667.0   272.7    1.72102  -0.00002   0.44570  -0.05175
  0-1A  ->  7-1A    4.595746   37067.2   269.8    0.04559   0.00002  -0.00122  -0.00086
  0-1A  ->  8-1A    4.682970   37770.7   264.8   -0.17358   0.00068   0.00039  -0.00117
  0-1A  ->  9-1A    4.817465   38855.5   257.4    0.83715   0.00897  -0.00289  -1.16055
  0-1A  -> 10-1A    5.143569   41485.7   241.0    0.00003   0.00110  -0.00000  -0.00001
  0-1A  -> 11-1A    5.399102   43546.7   229.6    0.59735  -0.00613   0.00004   0.79427
  0-1A  -> 12-1A    5.426879   43770.7   228.5    0.00000   0.00055  -0.00002   0.00018
  0-1A  -> 13-1A    5.891438   47517.7   210.4   -0.02106   0.01893   0.00002   0.00010
  0-1A  -> 14-1A    5.927888   47811.6   209.2    0.00059   0.00021   0.00007  -0.00003
  0-1A  -> 15-1A    5.935599   47873.8   208.9   -0.00056   0.00099  -0.00008  -0.00005
  0-1A  -> 16-1A    5.972997   48175.5   207.6    0.00001  -0.00001   0.00001   0.00008
  0-1A  -> 17-1A    6.013926   48505.6   206.2    0.10931   0.00002   0.00027   0.00003
  0-1A  -> 18-1A    6.106568   49252.8   203.0    0.00655  -0.00007  -0.00344   0.00405
  0-1A  -> 19-1A    6.372716   51399.4   194.6    0.02252  -0.00002   0.00035  -0.00004
  0-1A  -> 20-1A    6.389943   51538.4   194.0    0.08197  -0.10010  -0.00010  -0.00078
  0-1A  -> 21-1A    6.465373   52146.8   191.8    0.00009  -0.00635   0.00001  -0.00001
  0-1A  -> 22-1A    6.496939   52401.3   190.8   -0.00513   0.00003  -0.00001   0.00001
  0-1A  -> 23-1A    6.715347   54162.9   184.6    0.00002  -0.00057  -0.00002  -0.00002
  0-1A  -> 24-1A    6.733665   54310.7   184.1    0.08851   0.00008   0.00001  -0.00087
  0-1A  -> 25-1A    6.832943   55111.4   181.5    0.03669   0.00016  -0.15357  -0.00102
  0-1A  -> 26-1A    6.841595   55181.2   181.2    0.02145  -0.00015  -0.00005   0.00014
  0-1A  -> 27-1A    6.938684   55964.3   178.7   -0.00004  -0.00000   0.00011  -0.00137
  0-1A  -> 28-1A    6.950355   56058.4   178.4    0.01593  -0.00106   0.00145   0.13656
  0-1A  -> 29-1A    7.010943   56547.1   176.8    0.00001   0.00002  -0.00014  -0.00008
  0-1A  -> 30-1A    7.058787   56933.0   175.6   -0.02909   0.00933   0.00000   0.00005

------------------------------------------------------------------------------------------
                     CD SPECTRUM VIA TRANSITION VELOCITY DIPOLE MOMENTS    
------------------------------------------------------------------------------------------
     Transition      Energy     Energy  Wavelength    R        MX        MY        MZ   
                      (eV)      (cm-1)    (nm)   (1e40*cgs)   (au)      (au)      (au)  
------------------------------------------------------------------------------------------
  0-1A  ->  1-1A    1.576684   12716.8   786.4   -0.45662  -0.00001   0.00030   0.00001
  0-1A  ->  2-1A    2.367069   19091.7   523.8   -0.20583  -0.00037  -0.00001   0.00064
  0-1A  ->  3-1A    3.616226   29166.8   342.9   -2.87556   0.00150  -0.00001   0.00016
  0-1A  ->  4-1A    4.064729   32784.3   305.0   -0.37940   0.00001  -0.00022  -0.00001
  0-1A  ->  5-1A    4.451883   35906.9   278.5    0.46132   0.00234  -0.05133  -0.29800
  0-1A  ->  6-1A    4.546124   36667.0   272.7    1.73675  -0.00002   0.44570  -0.05175
  0-1A  ->  7-1A    4.595746   37067.2   269.8    0.05258   0.00002  -0.00122  -0.00086
  0-1A  ->  8-1A    4.682970   37770.7   264.8   -0.17605   0.00068   0.00039  -0.00117
  0-1A  ->  9-1A    4.817465   38855.5   257.4    0.83696   0.00897  -0.00289  -1.16055
  0-1A  -> 10-1A    5.143569   41485.7   241.0    0.00003   0.00110  -0.00000  -0.00001
  0-1A  -> 11-1A    5.399102   43546.7   229.6    0.63802  -0.00613   0.00004   0.79427
  0-1A  -> 12-1A    5.426879   43770.7   228.5    0.00000   0.00055  -0.00002   0.00018
  0-1A  -> 13-1A    5.891438   47517.7   210.4   -0.02133   0.01893   0.00002   0.00010
  0-1A  -> 14-1A    5.927888   47811.6   209.2    0.00056   0.00021   0.00007  -0.00003
  0-1A  -> 15-1A    5.935599   47873.8   208.9   -0.00054   0.00099  -0.00008  -0.00005
  0-1A  -> 16-1A    5.972997   48175.5   207.6    0.00001  -0.00001   0.00001   0.00008
  0-1A  -> 17-1A    6.013926   48505.6   206.2    0.10688   0.00002   0.00027   0.00003
  0-1A  -> 18-1A    6.106568   49252.8   203.0    0.00602  -0.00007  -0.00344   0.00405
  0-1A  -> 19-1A    6.372716   51399.4   194.6    0.02229  -0.00002   0.00035  -0.00004
  0-1A  -> 20-1A    6.389943   51538.4   194.0    0.09534  -0.10010  -0.00010  -0.00078
  0-1A  -> 21-1A    6.465373   52146.8   191.8    0.00010  -0.00635   0.00001  -0.00001
  0-1A  -> 22-1A    6.496939   52401.3   190.8   -0.00506   0.00003  -0.00001   0.00001
  0-1A  -> 23-1A    6.715347   54162.9   184.6    0.00002  -0.00057  -0.00002  -0.00002
  0-1A  -> 24-1A    6.733665   54310.7   184.1    0.04539   0.00008   0.00001  -0.00087
  0-1A  -> 25-1A    6.832943   55111.4   181.5    0.02262   0.00016  -0.15357  -0.00102
  0-1A  -> 26-1A    6.841595   55181.2   181.2    0.02197  -0.00015  -0.00005   0.00014
  0-1A  -> 27-1A    6.938684   55964.3   178.7   -0.00004  -0.00000   0.00011  -0.00137
  0-1A  -> 28-1A    6.950355   56058.4   178.4    0.03258  -0.00106   0.00145   0.13656
  0-1A  -> 29-1A    7.010943   56547.1   176.8    0.00001   0.00002  -0.00014  -0.00008
  0-1A  -> 30-1A    7.058787   56933.0   175.6   -0.02824   0.00933   0.00000   0.00005

Total run time:    15352.945 sec

           *** ORCA-CIS/TD-DFT FINISHED WITHOUT ERROR ***
-----------------------
CIS/TD-DFT TOTAL ENERGY
-----------------------

    E(SCF)  =   -992.018846690 Eh
    DE(CIS) =      0.057942087 Eh (Root  1)
    ----------------------------- ---------
    E(tot)  =   -991.960904603 Eh


Maximum memory used throughout the entire CIS-calculation: 2729.5 MB
=> NOW LEAVING ORCA_CIS


-------------------------------------------------------------------------------
                          DFT DISPERSION CORRECTION                            
                                                                               
                              DFTD3 V3.1  Rev 1                                
                              USING zero damping                               
-------------------------------------------------------------------------------
The omegaB97X-D3 functional is recognized. Fit by Chai et al.
Active option DFTDOPT                   ...         3   

molecular C6(AA) [au] = 20847.553882 


            DFT-D V3
 parameters
 s6 scaling factor         :     1.0000 
 rs6 scaling factor        :     1.2810 
 s8 scaling factor         :     1.0000 
 rs8 scaling factor        :     1.0940 
 Damping factor alpha6     :    14.0000 
 Damping factor alpha8     :    16.0000 
 ad hoc parameters k1-k3   :    16.0000     1.3333    -4.0000 

 Edisp/kcal,au: -12.304668873320  -0.019608735915 
 E6   /kcal   :  -5.586832861 
 E8   /kcal   :  -6.717836012 
 % E8         :  54.595829284 

-------------------------   ----------------
Dispersion correction           -0.019608736
-------------------------   ----------------


-------------------------   --------------------
FINAL SINGLE POINT ENERGY      -991.980513338788
-------------------------   --------------------



           ************************************************************
           *        Program running with 4 parallel MPI-processes     *
           *              working on a common directory               *
           ************************************************************

------------------------------------------------------------------------------
                              ORCA PROPERTY CALCULATIONS
------------------------------------------------------------------------------

GBWName                                 ... tddft.gbw
Number of atoms                         ...     42
Number of basis functions               ...    852
Max core memory                         ...   3000 MB

Electric properties:
Dipole moment                           ... YES
Quadrupole moment                       ...  NO
Static polarizability (Dipole/Dipole)   ...  NO
Static polarizability (Dipole/Quad.)    ...  NO
Static polarizability (Quad./Quad.)     ...  NO
Static polarizability (Velocity)        ...  NO
Static hyperpolarizability              ...  NO

Atomic electric properties:
Dipole moment                           ...  NO
Quadrupole moment                       ...  NO
Static polarizability                   ...  NO

Choice of electric origin               ... Center of mass
Position of electric origin             ...    -0.003599    -0.013811     0.091660

General magnetic properties:
Magnetizability                         ...  NO

EPR properties:
g-Tensor (aka g-matrix)                 ...  NO
Zero-Field splitting spin-orbit         ...  NO
Zero-field splitting spin-spin          ...  NO
Hyperfine couplings                     ...  NO (   0 nuclei)
Quadrupole couplings                    ...  NO (   0 nuclei)
Contact density                         ...  NO (   0 nuclei)

NMR properties:
Chemical shifts                         ...  NO (   0 nuclei)
Spin-rotation constants                 ...  NO (   0 nuclei)
Spin-spin couplings                     ...  NO (   0 nuclei,    0 pairs)

Choice of magnetic origin               ... GIAO
Position of magnetic origin             ...     0.000000     0.000000     0.000000

Properties with geometric perturbations:
SCF Hessian                             ...  NO
IR spectrum                             ...  NO
VCD spectrum                            ...  NO
X-ray spectroscopy properties:
SCF XES/XAS/RIXS spectra                ...  NO

SCF SOC stabilization energy            ...  NO
Diagonal Born-Oppenheimer correction    ...  NO

-------------
DIPOLE MOMENT
-------------

Method             : SCF
Type of density    : Electron Density
Multiplicity       :   1
Irrep              :   0
Energy             :  -992.0188466899517152 Eh
Basis              : AO
                                X                 Y                 Z
Electronic contribution:      0.000005664      -0.001336604      -0.000362437
Nuclear contribution   :     -0.000113296       0.000066341       0.000274503
                        -----------------------------------------
Total Dipole Moment    :     -0.000107632      -0.001270264      -0.000087934
                        -----------------------------------------
Magnitude (a.u.)       :      0.001277845
Magnitude (Debye)      :      0.003248023



--------------------
Rotational spectrum 
--------------------
 
Rotational constants in cm-1:             0.008883             0.008130             0.004258 
Rotational constants in MHz :           266.312298           243.718156           127.657012 

Dipole components along the rotational axes: 
x,y,z [a.u.] :    -0.000109     0.001270    -0.000085 
x,y,z [Debye]:    -0.000278     0.003229    -0.000217 

 

Dipole moment calculation done in   0.0 sec 

Maximum memory used throughout the entire PROP-calculation: 86.7 MB

--------------------------------
SUGGESTED CITATIONS FOR THIS RUN
--------------------------------

Below you find a list of papers that are relevant to this ORCA run
We neither can nor want to force you to cite these papers, but we appreciate if you do
You receive ORCA, which is the product of decades of hard work by many enthusiastic individuals, for free
The only thing we kindly ask in return is that you cite our papers,
We deeply appreciate it, if you show your appreciation for ORCA by not just citing the generic ORCA reference.

Please note that relegating all ORCA citations to the supporting information does *not* help us.
SI sections are not indexed - citations you put there will not count into any citation statistics
But we need these citations in order to attract the funding resources that allow us to do what we are doing

Therefore, if you are a happy ORCA user, please consider citing a few of the papers listed below in the main body of your paper

In addition to the list printed below, the program has created the file tddft.bibtex that contains the list in bibtex format
You can import this file easily into all common literature databanks and citation aid programs

It goes without saying that in many instances, there are alternative algorithms to achieve similar
results as the ones you have gotten from ORCA. It is, of course, also the case that in some instances
ORCA just re-implements algorithms worked out by others. We are fully aware of that and we are also
fully appreciative of our colleagues work. Hence this citation list should not be read as indicating
that the listed papers, which are focused on our own work, are the only ones worth citing. It simply
meant to make it easier for users to cite ORCA specific papers. It is not a substitute for doing your
own literature research and citing the relevant literature in a scientifically appropriate manner.

List of essential papers. We consider these as the minimum necessary citations

  1. Neese, F.
     Software update: the ORCA program system, version 6.0
     WIRES Comput. Molec. Sci. 2025 15(1), e70019
     doi.org/10.1002/wcms.70019

List of papers to cite with high priority. The work reported in these papers was absolutely
necessary for this run to complete.
Our perspective: the developers of density functionals and basis sets usually get cited in chemistry papers
Good! But without the algorithms to do something with them, the functionals or basis sets would not do anything.
Hence, in our opinion, the algorithm design and method developments papers are equally worthy of getting cited

  1. Neese, F.; Olbrich, G.
     Efficient use of the resolution of the identity approximation in time-dependent density functional calculations with hybrid density functionals
     Chem. Phys. Lett. 2002 362 , 170-178
     doi.org/10.1016/s0009-2614(02)01053-9
  2. Neese, F.
     An improvement of the resolution of the identity approximation for the formation of the Coulomb matrix
     J. Comp. Chem. 2003 24(14), 1740-1747
     doi.org/10.1002/jcc.10318
  3. Neese, F.; Wennmohs, F.; Hansen, A.; Becker, U.
     Efficient, approximate and parallel Hartree-Fock and hybrid DFT calculations. A 'chain-of-spheres' algorithm for the Hartree-Fock exchange
     Chem. Phys. 2009 356(1-3), 98-109
     doi.org/10.1016/j.chemphys.2008.10.036
  4. Grimme, S.; Antony, J.; Ehrlich, S.; Krieg, H.
     A consistent and accurate ab initio parametrization of density functional dispersion correction (DFT-D) for the 94 elements H-Pu
     J. Chem. Phys. 2010 132 , 154104
     doi.org/10.1063/1.3382344
  5. Garcia-Rates, M.; Neese, F.
     Effect of the Solute Cavity on the Solvation Energy and its Derivatives within the Framework of the Gaussian Charge Scheme
     J. Comput. Chem. 2020 41 , 922-939
     doi.org/10.1002/jcc.26139
  6. Helmich-Paris, B.; de Souza, B.; Neese, F.; Izsák, R.
     An improved chain of spheres for exchange algorithm
     J. Chem. Phys. 2021 155(10), 104109
     doi.org/10.1063/5.0058766
  7. Neese, F.
     The SHARK Integral Generation and Digestion System
     J. Comp. Chem. 2022 44(3), 381
     doi.org/10.1002/jcc.26942

List of suggested additional citations. These are papers that are important in the 'surrounding' of 
of this run, or papers that preceded the highly important papers. If you like your results we are grateful for a citation.

  1. Izsak, R.; Neese, F.
     An overlap fitted chain of spheres exchange method
     J. Chem. Phys. 2011 135 , 144105
     doi.org/10.1063/1.3646921
  2. Izsak, R.; Hansen, A.; Neese, F.
     The resolution of identity and chain of spheres approximations for the LPNO-CCSD singles Fock term
     Molec. Phys. 2012 110 , 2413-2417
     doi.org/10.1080/00268976.2012.687466
  3. Neese, F.
     The ORCA program system
     WIRES Comput. Molec. Sci. 2012 2(1), 73-78
     doi.org/10.1002/wcms.81
  4. Izsak, R.; Neese, F.; Klopper, W.
     Robust fitting techniques in the chain of spheres approximation to the Fock exchange: The role of the complementary space
     J. Chem. Phys. 2013 139 , 
     doi.org/10.1063/1.4819264
  5. Neese, F.
     Software update: the ORCA program system, version 4.0
     WIRES Comput. Molec. Sci. 2018 8(1), 1-6
     doi.org/10.1002/wcms.1327
  6. Neese, F.; Wennmohs, F.; Becker, U.; Riplinger, C.
     The ORCA quantum chemistry program package
     J. Chem. Phys. 2020 152(22), 224108
     doi.org/10.1063/5.0004608
  7. Neese, F.
     Software update: The ORCA program system—Version 5.0
     WIRES Comput. Molec. Sci. 2022 12(1), e1606
     doi.org/10.1002/wcms.1606

List of optional additional citations

  1. Neese, F.
     Approximate second-order SCF convergence for spin unrestricted wavefunctions
     Chem. Phys. Lett. 2000 325(1-3), 93-98
     doi.org/10.1016/s0009-2614(00)00662-x

Timings for individual modules:

Sum of individual times          ...    16773.467 sec (= 279.558 min)
Startup calculation              ...       25.762 sec (=   0.429 min)   0.2 %
SCF iterations                   ...     1383.693 sec (=  23.062 min)   8.2 %
Property integrals               ...        9.964 sec (=   0.166 min)   0.1 %
Property calculations            ...        0.594 sec (=   0.010 min)   0.0 %
CIS module                       ...    15353.454 sec (= 255.891 min)  91.5 %
                             ****ORCA TERMINATED NORMALLY****
TOTAL RUN TIME: 0 days 4 hours 39 minutes 33 seconds 871 msec
