
                                 *****************
                                 * O   R   C   A *
                                 *****************

                                            #,                                       
                                            ###                                      
                                            ####                                     
                                            #####                                    
                                            ######                                   
                                           ########,                                 
                                     ,,################,,,,,                         
                               ,,#################################,,                 
                          ,,##########################################,,             
                       ,#########################################, ''#####,          
                    ,#############################################,,   '####,        
                  ,##################################################,,,,####,       
                ,###########''''           ''''###############################       
              ,#####''   ,,,,##########,,,,          '''####'''          '####       
            ,##' ,,,,###########################,,,                        '##       
           ' ,,###''''                  '''############,,,                           
         ,,##''                                '''############,,,,        ,,,,,,###''
      ,#''                                            '''#######################'''  
     '                                                          ''''####''''         
             ,#######,   #######,   ,#######,      ##                                
            ,#'     '#,  ##    ##  ,#'     '#,    #''#        ,####,    ,#,          
            ##       ##  ##   ,#'  ##            #'  '#       #'       ,# #          
            ##       ##  #######   ##           ,######,      #####,      #          
            '#,     ,#'  ##    ##  '#,     ,#' ,#      #,     #,   #      #          
             '#######'   ##     ##  '#######'  #'      '#     '####' #    #          



                #########################################################
                #                        -***-                          #
                #          Department of theory and spectroscopy        #
                #                                                       #
                #                      Frank Neese                      #
                #                                                       #
                #     Directorship, Architecture, Infrastructure        #
                #                    SHARK, DRIVERS                     #
                #        Core code/Algorithms in most modules           #
                #                                                       #
                #        Max Planck Institute fuer Kohlenforschung      #
                #                Kaiser Wilhelm Platz 1                 #
                #                 D-45470 Muelheim/Ruhr                 #
                #                      Germany                          #
                #                                                       #
                #                  All rights reserved                  #
                #                        -***-                          #
                #########################################################


                         Program Version 6.1.1  -  RELEASE   -
                                (GIT: $487d211c$)
                          ($2025-11-21 10:33:24 +0100$)


 With contributions from (in alphabetic order):
[Max-Planck-Institut fuer Kohlenforschung]                               
  Daniel Aravena         : Magnetic Suceptibility                        
  Michael Atanasov       : Ab Initio Ligand Field Theory (pilot matlab implementation)
  Alexander A. Auer      : GIAO ZORA, VPT2 properties, NMR spectrum      
  Ute Becker             : All parallelization in ORCA, NUMFREQ, NUMCALC 
  Giovanni Bistoni       : ED, misc. LED, open-shell LED, HFLD           
  Dmytro Bykov           : pre 5.0 version of the SCF Hessian            
  Marcos Casanova-Páez   : Triplet and SCS-CIS(D). UHF-(DLPNO)-IP/EA/STEOM-CCSD. UHF-CVS-IP/STEOM-CCSD   
  Vijay G. Chilkuri      : MRCI spin determinant printing, contributions to CSF-ICE 
  Pauline Colinet        : FMM embedding                                 
  Dipayan Datta          : RHF DLPNO-CCSD density                        
  Achintya Kumar Dutta   : EOM-CC, STEOM-CC                              
  Nicolas Foglia         : Exact transition moments, OPA infrastructure, MCD improvements    
  Dmitry Ganyushin       : Spin-Orbit,Spin-Spin,Magnetic field MRCI      
  Miquel Garcia-Rates    : C-PCM and meta-GGA Hessian, CCSD/C-PCM, Gaussian charge scheme 
  Tiago L. C. Gouveia    : GS-ROHF, GS-ROCIS                             
  Yang Guo               : DLPNO-NEVPT2, F12-NEVPT2, CIM, IAO-localization        
  Andreas Hansen         : Spin unrestricted coupled pair/coupled cluster methods 
  Ingolf Harden          : AUTO-CI MPn and infrastructure                
  Benjamin Helmich-Paris : MC-RPA, TRAH-(SCF,CASSCF), AVAS, COSX integrals, SCF dyn. polar., MC-PDFT, srDFT 
  Lee Huntington         : MR-EOM, pCC                                   
  Robert Izsak           : Overlap fitted RIJCOSX, COSX-SCS-MP3, EOM     
  Riya Kayal             : Wick's Theorem for AUTO-CI, AUTO-CI UHF-CCSDT 
  Emily Kempfer          : AUTO-CI RHF CISDT and CCSDT, approximate NEVPT4
  Christian Kollmar      : KDIIS, OOCD, Brueckner-CCSD(T), CCSD density, CASPT2, CASPT2-K, improved NEVPT2 
  Axel Koslowski         : Symmetry handling                             
  Simone Kossmann        : meta-GGA functionals, TD-DFT gradient, OOMP2, (MP2 Hessian; deprecated post 5.0) 
  Lucas Lang             : DCDCAS, Hyperfine gauge corrections, ICE-SOC+SSC
  Marvin Lechner         : AUTO-CI (C++ implementation), FIC-MRCC        
  Spencer Leger          : CASSCF response                               
  Dagmar Lenk            : GEPOL surface, SMD, ORCA-2-JSON               
  Dimitrios Liakos       : Extrapolation schemes; Compound Job, Property file
  Dimitrios Manganas     : Further ROCIS development; embedding schemes. LFT, Crystal Embedding 
  Dimitrios Pantazis     : SARC Basis sets                               
  Anastasios Papadopoulos: AUTO-CI, single reference methods and gradients 
  Taras Petrenko         : pre 6.0 DFT Hessian and TD-DFT gradient,  ECA, NRVS 
  Petra Pikulova         : Analytic Raman intensities                    
  Peter Pinski           : DLPNO-MP2, DLPNO-MP2 Gradient                 
  Shashank Vittal Rao    : ES-AILFT, MagRelax                            
  Christoph Reimann      : Effective Core Potentials                     
  Marius Retegan         : Local ZFS, SOC                                
  Christoph Riplinger    : Optimizer, TS searches, QM/MM, DLPNO-CCSD(T), (RO)-DLPNO pert. Triples 
  Michael Roemelt        : Original ROCIS implementation, recursive CI coupling coefficients
  Masaaki Saitow         : Open-shell DLPNO-CCSD energy and density      
  Barbara Sandhoefer     : DKH picture change effects                    
  Yorick L. A. Schmerwitz: GMF and freeze-and-release deltaSCF, NEB S-IDPP initial path                    
  Kantharuban Sivalingam : CASSCF convergence/infrastructure, NEVPT2, NEVPT3, NEVPT4(SD), FIC-MRCI and CEPA variants
  Bernardo de Souza      : ESD, SOC TD-DFT                               
  Georgi L. Stoychev     : AutoAux, RI-MP2 NMR, DLPNO-MP2 response, X2C  
  Van Anh Tran           : RI-MP2 g-tensors                              
  Willem Van den Heuvel  : Paramagnetic NMR                              
  Zikuan Wang            : NOTCH, Electric field optimization            
  Frank Wennmohs         : Technical directorship and infrastructure     
  Hang Xu                : AUTO-CI-Response properties                   
                                                                         
[FACCTs GmbH]                                                            
  Markus Bursch, Nicolas Foglia, Miquel Garcia-Rates, Ingolf Harden, Hagen Neugebauer, Anastasios Papadopoulos, 
  Christoph Riplinger, Bernardo de Souza, Georgi L. Stoychev                                                    
                                                                 
  APM, various basis sets, CI-OPT, improved COSX, DLPNO-Multilevel,           
  DOCKER, DRACO, updates on ESD, Fragmentator, GOAT, IRC, LR-CPCM, L-BFGS, MBIS, meta-GGA TD-DFT gradient, ML-optimized integration grids, 
  MM, NACMEs, nearIR, NEB, NEB-TS, NL-DFT gradient (VV10), 2- and 3-layer-ONIOM, interface openCOSMO-RS, QMMM,   
  Crystal-QMMM, RESP, rigid body optimization, SF, symmetry and pop. for TD-DFT, various functionals, SOLVATOR                                   
                                                                         
[Other institutions]                                                     
  V. Asgeirsson          : NEB                                           
  Christoph Bannwarth    : sTDA-DFT, sTD-DFT, PBEh-3c, B97-3c, D3        
  Giovanni Bistoni       : ETS/NOCV, ADLD/ADEX, COVALED                  
  Martin Brehm           : Molecular dynamics                            
  Ronald Cardenas        : ETS/NOCV                                      
  Martina Colucci        : COVALED                                       
  Sebastian Ehlert       : rSCAN, r2SCAN, r2SCAN-3c, D4, dhf basis sets  
  Marvin Friede          : D4 for Fr, Ra, Ac-Lr                          
  Lars Goerigk           : TD-DFT with DH, B97 family of functionals     
  Stefan Grimme          : VdW corrections, initial TS optimization, DFT functionals, gCP, sTDA/sTD-DF 
  Waldemar Hujo          : DFT-NL                                        
  H. Jonsson             : NEB                                           
  Holger Kruse           : gCP                                           
  Marcel Mueller         : wB97X-3c, vDZP basis set                      
  Hagen Neugebauer       : wr2SCAN, Native XTB                           
  Gianluca Regni         : ADLD/ADEX                                     
  Tobias Risthaus        : pre 6.0 range-separated hybrid DFT and stability analysis
  Lukas Wittmann         : regularized MP2, r2SCAN double-hybrids, wr2SCAN        
                                                                         
We gratefully acknowledge several colleagues who have allowed us to      
interface, adapt or use parts of their codes:                            
  Ed Valeev, F. Pavosevic, A. Kumar             : LibInt (2-el integral package), F12 methods 
  Garnet Chan, S. Sharma, J. Yang, R. Olivares  : DMRG                   
  Ulf Ekstrom                                   : XCFun DFT Library      
  Mihaly Kallay                                 : mrcc  (arbitrary order and MRCC methods)
  Frank Weinhold                                : gennbo (NPA and NBO analysis)           
  Simon Mueller                                 : openCOSMO-RS                            
  Christopher J. Cramer and Donald G. Truhlar   : smd solvation model                     
  S Lehtola, MJT Oliveira, MAL Marques          : LibXC Library                           
  Liviu Ungur et al                             : ANISO software                          


 Your calculation uses the libint2 library for the computation of 2-el integrals
 For citations please refer to: http://libint.valeyev.net

 Your ORCA version has been built with support for libXC version: 7.0.0
 For citations please refer to: https://libxc.gitlab.io

 This ORCA versions uses:
   CBLAS   interface :  Fast vector & matrix operations
   LAPACKE interface :  Fast linear algebra routines
   SCALAPACK package :  Parallel linear algebra routines
   Shared memory     :  Shared parallel matrices
   BLAS/LAPACK       :  OpenBLAS 0.3.29  USE64BITINT DYNAMIC_ARCH NO_AFFINITY Haswell SINGLE_THREADED
        Core in use  :  Haswell
   Copyright (c) 2011-2014, The OpenBLAS Project


  ***********************************
  * Starting time: Sat Jul  4 18:05:06 2026
  * Host name:     steezy
  * Process ID:    1141276
  * Working dir.:  /home/jannes/chlorophyll-ladder/006-core-ladder/bacteriochlorin/03_tddft_ch2cl2/camb3lyp
  ***********************************

NOTE: MaxCore=3000 MB was set to SCF,MP2,MDCI,CIPSI,MRCI,RASCI and CIS
      => If you want to overwrite this, your respective input block should be placed after the MaxCore statement


***************************************
The coordinates will be read from file: /home/jannes/chlorophyll-ladder/006-core-ladder/bacteriochlorin/01_opt/bacteriochlorin_opt_b3lypd4_tzvp.xyz
***************************************


XCFun DFT library Copyright 2009-2010 Ulf Ekstrom and contributors.
See http://admol.org/xcfun for more information.
This is free software; see the source code for copying conditions.
There is ABSOLUTELY NO WARRANTY; not even for MERCHANTABILITY or FITNESS FOR A PARTICULAR PURPOSE.
For details see the documentation.
Scientific users of this library should cite U. Ekstrom, L. Visscher, R. Bast, A. J. Thorvaldsen and K. Ruud;
J.Chem.Theor.Comp. 2010, DOI: 10.1021/ct100117s
XCFun Version 0.99 

================================================================================

----- Orbital basis set information -----
Your calculation utilizes the basis: def2-TZVP
   F. Weigend and R. Ahlrichs, Phys. Chem. Chem. Phys. 7, 3297 (2005).

----- AuxJ basis set information -----
Your calculation utilizes the auxiliary basis: def2/J
   H-Rn: F. Weigend, Phys. Chem. Chem. Phys. 8, 1057 (2006).
   Fr-Lr: K. Eichkorn, F. Weigend, O. Treutler, R. Ahlrichs; Theor. Chem. Acc. 97, 119 (1997).

================================================================================
                                        WARNINGS
                       Please study these warnings very carefully!
================================================================================

WARNING: Old DensityContainer found on disk!
         Will remove this file - 
         If you want to keep old densities, please start your calculation with a different basename. 


WARNING: CIS/ROCIS methods need fully converged wavefunctions
  ===> : Setting SCFConvForced true
         You can overwrite this default with %scf ConvForced false 


================================================================================
                                       INPUT FILE
================================================================================
NAME = tddft.inp
|  1> %pal nprocs 4 end
|  2> %maxcore 3000
|  3> ! CAM-B3LYP def2-TZVP def2/J RIJCOSX DefGrid3 TightSCF CPCM(CH2Cl2)
|  4> %tddft
|  5>   nroots 30
|  6>   tda false
|  7>   triplets false
|  8> end
|  9> * xyzfile 0 1 /home/jannes/chlorophyll-ladder/006-core-ladder/bacteriochlorin/01_opt/bacteriochlorin_opt_b3lypd4_tzvp.xyz
| 10> 
| 11>                          ****END OF INPUT****
================================================================================

                       ****************************
                       * Single Point Calculation *
                       ****************************

---------------------------------
CARTESIAN COORDINATES (ANGSTROEM)
---------------------------------
  N     -2.131412   -0.009265    0.032172
  N      2.127586   -0.005444    0.064802
  N      0.000040   -2.091714    0.051036
  N     -0.003835    2.077181    0.045782
  C     -4.387102   -0.778213    0.013758
  C      4.384652   -0.770130    0.089686
  C     -4.388540    0.755536    0.015653
  C      4.383316    0.763535    0.074833
  C     -2.902846   -1.110617    0.025018
  C      2.901084   -1.105349    0.072960
  C     -2.904906    1.090705    0.027297
  C      2.899036    1.095964    0.068653
  C     -1.127031   -2.870559    0.036698
  C      1.128578   -2.868549    0.056111
  C     -1.132389    2.853974    0.042869
  C      1.123252    2.856000    0.058324
  C     -2.444220   -2.415686    0.027064
  C      2.444908   -2.411274    0.068798
  C     -2.448734    2.396618    0.032228
  C      2.440445    2.401034    0.065913
  C     -0.684322   -4.222404    0.031297
  C      0.688446   -4.221180    0.043188
  C     -0.692255    4.206595    0.055320
  C      0.680553    4.207830    0.064664
  H     -4.874413   -1.199174   -0.868103
  H     -4.888191   -1.201433    0.886742
  H      4.866168   -1.181777    0.979204
  H      4.892941   -1.200689   -0.775400
  H     -4.876916    1.177784   -0.864978
  H     -4.890163    1.175629    0.889862
  H      4.877404    1.194980    0.947676
  H      4.877711    1.176156   -0.807129
  H     -3.197095   -3.194415    0.018208
  H      3.199257   -3.188609    0.073971
  H     -3.203105    3.173945    0.029451
  H      3.193369    3.179739    0.072597
  H     -0.000955   -1.084944    0.069219
  H     -0.002847    1.070445    0.027203
  H     -1.341762   -5.076648    0.018452
  H      1.347534   -5.074248    0.041693
  H     -1.351322    5.059677    0.058203
  H      1.337982    5.062096    0.076507

----------------------------
CARTESIAN COORDINATES (A.U.)
----------------------------
  NO LB      ZA    FRAG     MASS         X           Y           Z
   0 N     7.0000    0    14.007   -4.027786   -0.017508    0.060797
   1 N     7.0000    0    14.007    4.020555   -0.010287    0.122458
   2 N     7.0000    0    14.007    0.000076   -3.952767    0.096444
   3 N     7.0000    0    14.007   -0.007246    3.925303    0.086515
   4 C     6.0000    0    12.011   -8.290422   -1.470610    0.025999
   5 C     6.0000    0    12.011    8.285791   -1.455336    0.169482
   6 C     6.0000    0    12.011   -8.293139    1.427757    0.029579
   7 C     6.0000    0    12.011    8.283266    1.442873    0.141415
   8 C     6.0000    0    12.011   -5.485584   -2.098762    0.047278
   9 C     6.0000    0    12.011    5.482255   -2.088808    0.137874
  10 C     6.0000    0    12.011   -5.489477    2.061134    0.051585
  11 C     6.0000    0    12.011    5.478383    2.071071    0.129735
  12 C     6.0000    0    12.011   -2.129780   -5.424569    0.069348
  13 C     6.0000    0    12.011    2.132703   -5.420773    0.106034
  14 C     6.0000    0    12.011   -2.139906    5.393229    0.081011
  15 C     6.0000    0    12.011    2.122639    5.397058    0.110216
  16 C     6.0000    0    12.011   -4.618906   -4.564984    0.051143
  17 C     6.0000    0    12.011    4.620206   -4.556648    0.130009
  18 C     6.0000    0    12.011   -4.627436    4.528951    0.060901
  19 C     6.0000    0    12.011    4.611773    4.537297    0.124558
  20 C     6.0000    0    12.011   -1.293181   -7.979187    0.059142
  21 C     6.0000    0    12.011    1.300974   -7.976873    0.081614
  22 C     6.0000    0    12.011   -1.308173    7.949313    0.104540
  23 C     6.0000    0    12.011    1.286059    7.951646    0.122197
  24 H     1.0000    0     1.008   -9.211305   -2.266110   -1.640476
  25 H     1.0000    0     1.008   -9.237342   -2.270380    1.675699
  26 H     1.0000    0     1.008    9.195725   -2.233235    1.850427
  27 H     1.0000    0     1.008    9.246319   -2.268974   -1.465294
  28 H     1.0000    0     1.008   -9.216036    2.225689   -1.634572
  29 H     1.0000    0     1.008   -9.241068    2.221618    1.681595
  30 H     1.0000    0     1.008    9.216957    2.258186    1.790848
  31 H     1.0000    0     1.008    9.217539    2.222613   -1.525252
  32 H     1.0000    0     1.008   -6.041635   -6.036570    0.034408
  33 H     1.0000    0     1.008    6.045720   -6.025599    0.139786
  34 H     1.0000    0     1.008   -6.052992    5.997887    0.055654
  35 H     1.0000    0     1.008    6.034593    6.008836    0.137188
  36 H     1.0000    0     1.008   -0.001804   -2.050246    0.130805
  37 H     1.0000    0     1.008   -0.005380    2.022848    0.051406
  38 H     1.0000    0     1.008   -2.535563   -9.593475    0.034869
  39 H     1.0000    0     1.008    2.546470   -9.588939    0.078788
  40 H     1.0000    0     1.008   -2.553629    9.561403    0.109988
  41 H     1.0000    0     1.008    2.528419    9.565976    0.144577

--------------------------------
INTERNAL COORDINATES (ANGSTROEM)
--------------------------------
 N      0   0   0     0.000000000000     0.00000000     0.00000000
 N      1   0   0     4.259125255101     0.00000000     0.00000000
 N      2   1   0     2.979793073612    44.38682812     0.00000000
 N      1   2   3     2.979937588325    44.38882278   180.00431492
 C      1   2   3     2.383224331891   161.22809761   359.84573394
 C      2   1   3     2.383214003440   161.23248144   359.50233838
 C      5   1   2     1.533751430147    71.22986369   180.01419164
 C      6   2   1     1.533738243799    71.22972948   180.01356821
 C      1   2   3     1.344670180013   125.06153963   359.86560291
 C      2   1   3     1.344677722639   125.06635837   359.95346450
 C      1   2   3     1.344711972034   125.06380517   179.87564624
 C      2   1   3     1.344710848961   125.05982141   179.96244185
 C      3   2   1     1.370070404362   170.20155793     1.63404683
 C      3   2   1     1.370071299641    78.97977972   179.80758086
 C      4   1   2     1.370055693583    78.98028333   180.28705742
 C      4   1   2     1.370051411824   170.20050419   358.79325121
 C      9   1   2     1.383309867927   125.62733382     0.00000000
 C     10   2   1     1.383312771574   125.62637910     0.16888808
 C     11   1   2     1.383302371438   125.62886297     0.00000000
 C     12   2   1     1.383300910147   125.63008454     0.16389811
 C     13   3  14     1.422500103026   106.51427545   359.95175657
 C     21  13   3     1.372819871769   108.07890070     0.03216577
 C     15   4   1     1.422482985703   106.51359629   179.68364988
 C     23  15   4     1.372840900539   108.07850459     0.02922486
 H      5   1   2     1.091951320565   123.57436885   285.31314714
 H      5   1   2     1.091927252438   123.58847392    74.71153694
 H      6   2   1     1.092040481764   123.16475135   285.31648811
 H      6   2   1     1.091839600997   123.99708756    74.71334140
 H      7   5   1     1.091931643407   112.71330269   119.42108336
 H      7   5   1     1.091945227046   112.71447592   240.60097410
 H      8   6   2     1.091843399771   112.76786613   119.85885046
 H      8   6   2     1.092034883831   112.65954529   241.03998255
 H     17   9   1     1.083198875997   116.60285971   180.13059775
 H     18  10   2     1.083198729248   116.60342035   179.84122245
 H     19  11   1     1.083200322095   116.60279398   180.13536402
 H     20  12   2     1.083199329200   116.60191752   179.83097021
 H      3   2   1     1.006935583970    45.62088712   358.45420150
 H      4   1   2     1.006907456919    45.61881323     1.58342957
 H     21  13   3     1.078019246471   124.28481501   180.11702728
 H     22  21  13     1.078019347289   127.63631014   180.09222208
 H     23  15   4     1.078018952298   124.28677920   180.11924900
 H     24  23  15     1.078018487835   127.63449325   180.09388479

---------------------------
INTERNAL COORDINATES (A.U.)
---------------------------
 N      0   0   0     0.000000000000     0.00000000     0.00000000
 N      1   0   0     8.048580302209     0.00000000     0.00000000
 N      2   1   0     5.630992844881    44.38682812     0.00000000
 N      1   2   3     5.631265938112    44.38882278   180.00431492
 C      1   2   3     4.503641302972   161.22809761   359.84573394
 C      2   1   3     4.503621785027   161.23248144   359.50233838
 C      5   1   2     2.898370160487    71.22986369   180.01419164
 C      6   2   1     2.898345241901    71.22972948   180.01356821
 C      1   2   3     2.541058380676   125.06153963   359.86560291
 C      2   1   3     2.541072634173   125.06635837   359.95346450
 C      1   2   3     2.541137356150   125.06380517   179.87564624
 C      2   1   3     2.541135233849   125.05982141   179.96244185
 C      3   2   1     2.589057848435   170.20155793     1.63404683
 C      3   2   1     2.589059540267    78.97977972   179.80758086
 C      4   1   2     2.589030049091    78.98028333   180.28705742
 C      4   1   2     2.589021957739   170.20050419   358.79325121
 C      9   1   2     2.614076808732   125.62733382     0.00000000
 C     10   2   1     2.614082295830   125.62637910     0.16888808
 C     11   1   2     2.614062642421   125.62886297     0.00000000
 C     12   2   1     2.614059880982   125.63008454     0.16389811
 C     13   3  14     2.688135620194   106.51427545   359.95175657
 C     21  13   3     2.594253588848   108.07890070     0.03216577
 C     15   4   1     2.688103273141   106.51359629   179.68364988
 C     23  15   4     2.594293327464   108.07850459     0.02922486
 H      5   1   2     2.063488947441   123.57436885   285.31314714
 H      5   1   2     2.063443465274   123.58847392    74.71153694
 H      6   2   1     2.063657437689   123.16475135   285.31648811
 H      6   2   1     2.063277828053   123.99708756    74.71334140
 H      7   5   1     2.063451763002   112.71330269   119.42108336
 H      7   5   1     2.063477432359   112.71447592   240.60097410
 H      8   6   2     2.063285006698   112.76786613   119.85885046
 H      8   6   2     2.063646859130   112.65954529   241.03998255
 H     17   9   1     2.046949224206   116.60285971   180.13059775
 H     18  10   2     2.046948946890   116.60342035   179.84122245
 H     19  11   1     2.046951956936   116.60279398   180.13536402
 H     20  12   2     2.046950080635   116.60191752   179.83097021
 H      3   2   1     1.902832488203    45.62088712   358.45420150
 H      4   1   2     1.902779335779    45.61881323     1.58342957
 H     21  13   3     2.037161142927   124.28481501   180.11702728
 H     22  21  13     2.037161333444   127.63631014   180.09222208
 H     23  15   4     2.037160587019   124.28677920   180.11924900
 H     24  23  15     2.037159709312   127.63449325   180.09388479

---------------------
BASIS SET INFORMATION
---------------------
There are 3 groups of distinct atoms

 Group   1 Type N   : 11s6p2d1f contracted to 5s3p2d1f pattern {62111/411/11/1}
 Group   2 Type C   : 11s6p2d1f contracted to 5s3p2d1f pattern {62111/411/11/1}
 Group   3 Type H   : 5s1p contracted to 3s1p pattern {311/1}

Atom   0N    basis set group =>   1
Atom   1N    basis set group =>   1
Atom   2N    basis set group =>   1
Atom   3N    basis set group =>   1
Atom   4C    basis set group =>   2
Atom   5C    basis set group =>   2
Atom   6C    basis set group =>   2
Atom   7C    basis set group =>   2
Atom   8C    basis set group =>   2
Atom   9C    basis set group =>   2
Atom  10C    basis set group =>   2
Atom  11C    basis set group =>   2
Atom  12C    basis set group =>   2
Atom  13C    basis set group =>   2
Atom  14C    basis set group =>   2
Atom  15C    basis set group =>   2
Atom  16C    basis set group =>   2
Atom  17C    basis set group =>   2
Atom  18C    basis set group =>   2
Atom  19C    basis set group =>   2
Atom  20C    basis set group =>   2
Atom  21C    basis set group =>   2
Atom  22C    basis set group =>   2
Atom  23C    basis set group =>   2
Atom  24H    basis set group =>   3
Atom  25H    basis set group =>   3
Atom  26H    basis set group =>   3
Atom  27H    basis set group =>   3
Atom  28H    basis set group =>   3
Atom  29H    basis set group =>   3
Atom  30H    basis set group =>   3
Atom  31H    basis set group =>   3
Atom  32H    basis set group =>   3
Atom  33H    basis set group =>   3
Atom  34H    basis set group =>   3
Atom  35H    basis set group =>   3
Atom  36H    basis set group =>   3
Atom  37H    basis set group =>   3
Atom  38H    basis set group =>   3
Atom  39H    basis set group =>   3
Atom  40H    basis set group =>   3
Atom  41H    basis set group =>   3
---------------------------------
AUXILIARY/J BASIS SET INFORMATION
---------------------------------
There are 3 groups of distinct atoms

 Group   1 Type N   : 12s5p4d2f1g contracted to 6s4p3d1f1g pattern {711111/2111/211/2/1}
 Group   2 Type C   : 12s5p4d2f1g contracted to 6s4p3d1f1g pattern {711111/2111/211/2/1}
 Group   3 Type H   : 5s2p1d contracted to 3s1p1d pattern {311/2/1}

Atom   0N    basis set group =>   1
Atom   1N    basis set group =>   1
Atom   2N    basis set group =>   1
Atom   3N    basis set group =>   1
Atom   4C    basis set group =>   2
Atom   5C    basis set group =>   2
Atom   6C    basis set group =>   2
Atom   7C    basis set group =>   2
Atom   8C    basis set group =>   2
Atom   9C    basis set group =>   2
Atom  10C    basis set group =>   2
Atom  11C    basis set group =>   2
Atom  12C    basis set group =>   2
Atom  13C    basis set group =>   2
Atom  14C    basis set group =>   2
Atom  15C    basis set group =>   2
Atom  16C    basis set group =>   2
Atom  17C    basis set group =>   2
Atom  18C    basis set group =>   2
Atom  19C    basis set group =>   2
Atom  20C    basis set group =>   2
Atom  21C    basis set group =>   2
Atom  22C    basis set group =>   2
Atom  23C    basis set group =>   2
Atom  24H    basis set group =>   3
Atom  25H    basis set group =>   3
Atom  26H    basis set group =>   3
Atom  27H    basis set group =>   3
Atom  28H    basis set group =>   3
Atom  29H    basis set group =>   3
Atom  30H    basis set group =>   3
Atom  31H    basis set group =>   3
Atom  32H    basis set group =>   3
Atom  33H    basis set group =>   3
Atom  34H    basis set group =>   3
Atom  35H    basis set group =>   3
Atom  36H    basis set group =>   3
Atom  37H    basis set group =>   3
Atom  38H    basis set group =>   3
Atom  39H    basis set group =>   3
Atom  40H    basis set group =>   3
Atom  41H    basis set group =>   3

Checking for AutoStart:
The File: tddft.gbw exists
Trying to determine its content:
     ... Fine, the file contains calculation information
     ... Fine, the calculation information was read
     ... Fine, the file contains a basis set
     ... Fine, the basis set was read
     ... Fine, the file contains a geometry
     ... Fine, the geometry was read
     ... Fine, the file contains a set of orbitals
     ... Fine, the orbitals can be read
     => possible old guess file was deleted
     => GBW file was renamed to GES file
     => GES file is set as startup file
     => Guess is set to MORead
     ... now leaving AutoStart



           ************************************************************
           *        Program running with 4 parallel MPI-processes     *
           *              working on a common directory               *
           ************************************************************
------------------------------------------------------------------------------
                             ORCA STARTUP CALCULATIONS
                           -- RI-GTO INTEGRALS CHOSEN --
------------------------------------------------------------------------------
------------------------------------------------------------------------------
                   ___                                                        
                  /   \      - P O W E R E D   B Y -                         
                 /     \                                                     
                 |  |  |   _    _      __       _____    __    __             
                 |  |  |  | |  | |    /  \     |  _  \  |  |  /  |          
                  \  \/   | |  | |   /    \    | | | |  |  | /  /          
                 / \  \   | |__| |  /  /\  \   | |_| |  |  |/  /          
                |  |  |   |  __  | /  /__\  \  |    /   |      \           
                |  |  |   | |  | | |   __   |  |    \   |  |\   \          
                \     /   | |  | | |  |  |  |  | |\  \  |  | \   \       
                 \___/    |_|  |_| |__|  |__|  |_| \__\ |__|  \__/        
                                                                              
                      - O R C A' S   B I G   F R I E N D -                    
                                      &                                       
                       - I N T E G R A L  F E E D E R -                       
                                                                              
 v1 FN, 2020, v2 2021, v3 2022-2024                                           
------------------------------------------------------------------------------


----------------------
SHARK INTEGRAL PACKAGE
----------------------

Number of atoms                             ...     42
Number of basis functions                   ...    852
Number of shells                            ...    336
Maximum angular momentum                    ...      3
Integral batch strategy                     ... SHARK/LIBINT Hybrid
RI-J (if used) integral strategy            ... SPLIT-RIJ (Revised 2003 algorithm where possible)
Printlevel                                  ...      1
Contraction scheme used                     ... SEGMENTED contraction
Prescreening option                         ... SCHWARTZ
   Thresh                                   ... 2.500e-11
   Tcut                                     ... 2.500e-12
   Tpresel                                  ... 2.500e-12 
Coulomb Range Separation                    ... NOT USED
Exchange Range Separation                   ... Long Range
   Mu parameter                             ... 3.300e-01
   Scaling (regular/separated)              ... 1.900e-01 4.600e-01
Robust (split-)RI terms used:
  metric    (central integrals)             ... YES
  density   (r.h.s.  integrals)             ... YES
  potential (l.h.s.  integrals)             ... YES
Multipole approximations                    ... NOT USED
Finite Nucleus Model                        ... NOT USED
CABS basis                                  ... NOT available
Auxiliary Coulomb fitting basis             ... AVAILABLE
   # of basis functions in Aux-J            ...   1374
   # of shells in Aux-J                     ...    450
   Maximum angular momentum in Aux-J        ...      4
Auxiliary J/K fitting basis                 ... NOT available
Auxiliary Correlation fitting basis         ... NOT available
Auxiliary 'external' fitting basis          ... NOT available

Checking pre-screening integrals            ... done (  0.0 sec) Dimension = 336
   => SHARK Basis and OBASIS are compatible. Storing Pre-screening
Shell pair information
Shell pair cut-off parameter TPreSel        ...   2.5e-12
Total number of shell pairs                 ...     56616
Shell pairs after pre-screening             ...     39301
Total number of primitive shell pairs       ...    173748
Primitive shell pairs kept                  ...     79347
          la=0 lb=0:  10148 shell pairs
          la=1 lb=0:  11400 shell pairs
          la=1 lb=1:   3217 shell pairs
          la=2 lb=0:   5542 shell pairs
          la=2 lb=1:   3204 shell pairs
          la=2 lb=2:    832 shell pairs
          la=3 lb=0:   2576 shell pairs
          la=3 lb=1:   1500 shell pairs
          la=3 lb=2:    712 shell pairs
          la=3 lb=3:    170 shell pairs

Checking whether 4 symmetric matrices of dimension 852 fit in memory
:Max Core in MB      =   3000.00
 MB in use           =     50.78
 MB left             =   2949.22
 MB needed           =     11.09
 Data fit in memory  = YES
Calculating RI/J V-Matrix + Cholesky decomp.... done (  0.1 sec)
Calculating Nuclear repulsion               ... done (  0.0 sec) ENN=   1923.382611487662 Eh

Diagonalization of the overlap matrix:
Smallest eigenvalue                        ... 9.782e-06
Time for diagonalization                   ...    0.254 sec
Threshold for overlap eigenvalues          ... 1.000e-07
Number of eigenvalues below threshold      ... 0
Time for construction of square roots      ...    0.113 sec
Total time needed                          ...    0.377 sec

-------------------
DFT GRID GENERATION
-------------------

General Integration Accuracy     IntAcc      ... 4.959
Radial Grid Type                 RadialGrid  ... OptM3 with GC (2021)
Angular Grid (max. ang.)         AngularGrid ... 6 (Lebedev-590)
Angular grid pruning method      GridPruning ... 4 (adaptive)
Weight generation scheme         WeightScheme... mBecke (2022)
Basis function cutoff            BFCut       ... 1.0000e-11
Integration weight cutoff        WCut        ... 1.0000e-14
Partially contracted basis set               ... off
Rotationally invariant grid construction     ... off
Angular grids for H and He will be reduced by one unit

Total number of grid points                  ...   492495
Total number of batches                      ...     7717
Average number of points per batch           ...       63
Average number of grid points per atom       ...    11726

--------------------
COSX GRID GENERATION
--------------------

GRIDX 1
-------
General Integration Accuracy     IntAcc      ... 4.020
Radial Grid Type                 RadialGrid  ... OptM3 with GC (2021)
Angular Grid (max. ang.)         AngularGrid ... 2 (Lebedev-110)
Angular grid pruning method      GridPruning ... 4 (adaptive)
Weight generation scheme         WeightScheme... mBecke (2022)
Basis function cutoff            BFCut       ... 1.0000e-11
Integration weight cutoff        WCut        ... 1.0000e-14
Partially contracted basis set               ... on
Rotationally invariant grid construction     ... off
Angular grids for H and He will be reduced by one unit

Total number of grid points                  ...    55174
Total number of batches                      ...      456
Average number of points per batch           ...      120
Average number of grid points per atom       ...     1314
UseSFitting                                  ... on

GRIDX 2
-------
General Integration Accuracy     IntAcc      ... 4.338
Radial Grid Type                 RadialGrid  ... OptM3 with GC (2021)
Angular Grid (max. ang.)         AngularGrid ... 3 (Lebedev-194)
Angular grid pruning method      GridPruning ... 4 (adaptive)
Weight generation scheme         WeightScheme... mBecke (2022)
Basis function cutoff            BFCut       ... 1.0000e-11
Integration weight cutoff        WCut        ... 1.0000e-14
Partially contracted basis set               ... on
Rotationally invariant grid construction     ... off
Angular grids for H and He will be reduced by one unit

Total number of grid points                  ...   120801
Total number of batches                      ...      966
Average number of points per batch           ...      125
Average number of grid points per atom       ...     2876
UseSFitting                                  ... on

GRIDX 3
-------
General Integration Accuracy     IntAcc      ... 4.871
Radial Grid Type                 RadialGrid  ... OptM3 with GC (2021)
Angular Grid (max. ang.)         AngularGrid ... 4 (Lebedev-302)
Angular grid pruning method      GridPruning ... 4 (adaptive)
Weight generation scheme         WeightScheme... mBecke (2022)
Basis function cutoff            BFCut       ... 1.0000e-11
Integration weight cutoff        WCut        ... 1.0000e-14
Partially contracted basis set               ... on
Rotationally invariant grid construction     ... off
Angular grids for H and He will be reduced by one unit

Total number of grid points                  ...   225532
Total number of batches                      ...     1785
Average number of points per batch           ...      126
Average number of grid points per atom       ...     5370
UseSFitting                                  ... on
Grids setup in  14.0 sec
Initializing property integral containers    ... done (  0.0 sec)

SHARK setup successfully completed in  15.4 seconds

Maximum memory used throughout the entire STARTUP-calculation: 156.2 MB


           ************************************************************
           *        Program running with 4 parallel MPI-processes     *
           *              working on a common directory               *
           ************************************************************
-------------------------------------------------------------------------------
                                 ORCA GUESS
                   Start orbitals & Density for SCF / CASSCF
-------------------------------------------------------------------------------

------------
SCF SETTINGS
------------
Hamiltonian:
 Density Functional     Method          .... DFT(GTOs)
 Exchange Functional    Exchange        .... WB88
 Correlation Functional Correlation     .... LYP
 LDA part of GGA corr.  LDAOpt          .... VWN-5
 Gradients option       PostSCFGGA      .... off
 Hybrid DFT is turned on
   Fraction HF Exchange ScalHFX         ....  0.190000
   Scaling of DF-GGA-X  ScalDFX         ....  0.350000
   Scaling of DF-GGA-C  ScalDFC         ....  0.810000
   Scaling of DF-LDA-C  ScalLDAC        ....  1.000000
   Perturbative correction              ....  0.000000
 Long-range corrected/Screened/Range-Separated Hybrid DFT is turned on
   Amount of maximum screened exact exchange              ....  0.460000
   Range separation parameter mu (erf(mu*r12)/r12)        ....  0.330000
 RI-approximation to the Coulomb term is turned on
   Number of AuxJ basis functions       .... 1374
   RIJ-COSX (HFX calculated with COS-X)).... on


General Settings:
 Integral files         IntName         .... tddft
 Hartree-Fock type      HFTyp           .... RHF
 Total Charge           Charge          ....    0
 Multiplicity           Mult            ....    1
 Number of Electrons    NEL             ....  166
 Basis Dimension        Dim             ....  852
 Nuclear Repulsion      ENuc            ....   1923.3826114877 Eh

Convergence Acceleration:
 AO-DIIS                CNVDIIS         .... on
   Start iteration      DIISMaxIt       ....    12
   Startup error        DIISStart       ....  0.200000
   # of expansion vecs  DIISMaxEq       ....     5
   Bias factor          DIISBfac        ....   1.050
   Max. coefficient     DIISMaxC        ....  10.000
 MO-DIIS                CNVKDIIS        .... off
 Trust-Rad. Augm. Hess. CNVTRAH         .... auto
   Auto Start mean grad. ratio tolernc. ....  1.125000
   Auto Start start iteration           ....     1
   Auto Start num. interpolation iter.  ....    10
   Max. Number of Micro iterations      ....    24
   Max. Number of Macro iterations      .... Maxiter - #DIIS iter
   Number of Davidson start vectors     ....     2
   Converg. threshold    (grad. norm)   ....   1.000e-05
   Grad. Scal. Fac. for Micro threshold ....   0.100
   Minimum threshold for Micro iter.    ....   1.000e-02
   NR start threshold (gradient norm)   ....   1.000e-04
   Initial trust radius                 ....   0.400
   Minimum AH scaling param. (alpha)    ....   1.000
   Maximum AH scaling param. (alpha)    .... 1000.000
   Quad. conv. algorithm                .... NR
   White noise on init. David. guess    .... on
   Maximum white noise                  ....   0.010
   Pseudo random numbers                .... off
   Inactive MOs                         .... canonical
   Orbital update algorithm             .... Taylor
   Preconditioner                       .... Diag
   Full preconditioner red. dimension   ....   250
 SOSCF                 CNVSOSCF           .... on
   Start iteration     SOSCFMaxIt         ....   150
   Startup grad/error  SOSCFStart         ....  0.003300
   Hessian update      SOSCFHessUp        .... L-BFGS
   Autom. constraints  SOSCFAutoConstrain .... off
 Level Shifting         CNVShift        .... on
   Level shift para.    LevelShift      ....    0.2500
   Turn off err/grad.   ShiftErr        ....    0.0010
 Zerner damping         CNVZerner       .... off
 Static damping         CNVDamp         .... on
   Fraction old density DampFac         ....    0.7000
   Max. Damping (<1)    DampMax         ....    0.9800
   Min. Damping (>=0)   DampMin         ....    0.0000
   Turn off err/grad.   DampErr         ....    0.1000

SCF Procedure:
 Maximum # iterations   MaxIter         ....   125
 SCF integral mode      SCFMode         .... Direct
   Integral package                     .... SHARK and LIBINT hybrid scheme
 Reset frequency        DirectResetFreq ....    20
 Integral Threshold     Thresh          ....  2.500e-11 Eh
 Primitive CutOff       TCut            ....  2.500e-12 Eh

Convergence Tolerance:
 Convergence Check Mode ConvCheckMode   .... Total+1el-Energy
 Convergence forced     ConvForced      .... 1
 Energy Change          TolE            ....  1.000e-08 Eh
 1-El. energy change                    ....  1.000e-05 Eh
 Orbital Gradient       TolG            ....  1.000e-05
 Orbital Rotation angle TolX            ....  1.000e-05
 DIIS Error             TolErr          ....  5.000e-07

---------------------
INITIAL GUESS: MOREAD
---------------------
Guess MOs are being read from file: tddft.ges
Input Geometry matches current geometry (good)
Input basis set matches current basis set (good)
Occupation numbers will be reassigned to an Aufbau configuration
MOs were renormalized
MOs were reorthogonalized (Cholesky)
                      ------------------
                      INITIAL GUESS DONE (   0.9 sec)
                      ------------------
             **** ENERGY FILE WAS UPDATED (tddft.en.tmp) ****
Finished Guess after   1.8 sec
Maximum memory used throughout the entire GUESS-calculation: 95.5 MB


           ************************************************************
           *        Program running with 4 parallel MPI-processes     *
           *              working on a common directory               *
           ************************************************************

-------------------------------------------------------------------------------------------
                                      ORCA LEAN-SCF
                              memory conserving SCF solver
-------------------------------------------------------------------------------------------

--------------------
CPCM SOLVATION MODEL
--------------------
CPCM parameters:
  Epsilon                                         ...       8.9990
  Refrac                                          ...       1.4242
  Rsolv                                           ...       1.3000
  Surface type                                    ... GAUSSIAN VDW
  Discretization scheme                           ... Constant charge density
    Threshold for H atoms                         ...       5.0000 (charges/Ang^2)
    Threshold for non-H atoms                     ...       5.0000 (charges/Ang^2)
  Epsilon function type                           ...         CPCM
Solvent:                                          ... DICHLOROMETHANE
Radii:
  Scheme                                          ... Element-dependent radii
  Radius for N  used is    3.5149 Bohr (=   1.8600 Ang.)
  Radius for C  used is    3.8550 Bohr (=   2.0400 Ang.)
  Radius for H  used is    2.4944 Bohr (=   1.3200 Ang.)
Calculating surface                               ...        done! (  0.0s)
Cavity surface points                             ...         3690
Cavity Volume                                     ...    2501.5510
Cavity Surface-area                               ...    1223.0827
Calculating surface distance matrix               ...        done! (  0.4s)
Performing Cholesky decomposition & store         ...        done! (  0.8s)
Overall time for CPCM initialization              ...                 1.2s

----------------------------------------D-I-I-S--------------------------------------------
Iteration    Energy (Eh)           Delta-E    RMSDP     MaxDP     DIISErr   Damp  Time(sec)
-------------------------------------------------------------------------------------------
               ***  Starting incremental Fock matrix formation  ***
                              *** Initializing SOSCF ***
---------------------------------------S-O-S-C-F--------------------------------------
Iteration    Energy (Eh)           Delta-E    RMSDP     MaxDP     MaxGrad    Time(sec)
--------------------------------------------------------------------------------------
    1    -991.7931128250920665     0.00e+00  9.39e-06  2.18e-04  4.70e-07   267.3
               *** Restarting incremental Fock matrix formation ***
    2    -991.7931128254344912    -3.42e-10  2.09e-06  4.74e-05  7.87e-07   365.9
                  *** Gradient check signals convergence ***

               *****************************************************
               *                     SUCCESS                       *
               *           SCF CONVERGED AFTER   2 CYCLES          *
               *****************************************************

Recomputing exchange energy using gridx3       ... done (  558.003 sec)
Old exchange energy                            :    -38.904725344 Eh
New exchange energy                            :    -38.904725069 Eh
Exchange energy change after final integration :      0.000000275 Eh
Total energy after final integration           :   -991.793112553 Eh
             **** ENERGY FILE WAS UPDATED (tddft.en.tmp) ****

----------------
TOTAL SCF ENERGY
----------------

Total Energy       :       -991.79311255281812 Eh          -26988.06264 eV

Components:
Nuclear Repulsion  :       1923.38261148766151 Eh           52337.90167 eV
Electronic Energy  :      -2915.16165330200874 Eh          -79325.58142 eV
One Electron Energy:      -5165.95472783760215 Eh         -140572.77473 eV
Two Electron Energy:       2250.79307453559341 Eh           61247.19331 eV
CPCM Dielectric    :         -0.01407101336436 Eh              -0.38289 eV

Virial components:
Potential Energy   :      -1979.12746783917623 Eh          -53854.79632 eV
Kinetic Energy     :        987.33435528635812 Eh           26866.73369 eV
Virial Ratio       :          2.00451595474480

DFT components:
N(Alpha)           :       83.000036506719 electrons
N(Beta)            :       83.000036506719 electrons
N(Total)           :      166.000073013438 electrons
E(XC)              :     -103.805928564431 Eh       

CPCM Solvation Model Properties:
Surface-charge          :         -0.04044523377572
Corrected charge        :         -0.00000000000000
Outlying charge corr.   :          0.00007721180307 Eh               0.00210 eV
Free-energy (cav+disp)  :  This term is not implemented in the current solvation scheme

---------------
SCF CONVERGENCE
---------------

  Last Energy change         ...    3.4242e-10  Tolerance :   1.0000e-08
  Last MAX-Density change    ...    4.7422e-05  Tolerance :   1.0000e-07
  Last RMS-Density change    ...    2.0918e-06  Tolerance :   5.0000e-09
  Last DIIS Error            ...    2.7063e-06  Tolerance :   5.0000e-07
  Last Orbital Gradient      ...    7.8683e-07  Tolerance :   1.0000e-05
  Last Orbital Rotation      ...    1.5013e-06  Tolerance :   1.0000e-05


----------------
ORBITAL ENERGIES
----------------

  NO   OCC          E(Eh)            E(eV) 
   0   2.0000     -14.423811      -392.4918 
   1   2.0000     -14.423803      -392.4916 
   2   2.0000     -14.383940      -391.4069 
   3   2.0000     -14.383938      -391.4068 
   4   2.0000     -10.290422      -280.0166 
   5   2.0000     -10.290407      -280.0162 
   6   2.0000     -10.290376      -280.0154 
   7   2.0000     -10.290362      -280.0150 
   8   2.0000     -10.282337      -279.7966 
   9   2.0000     -10.282337      -279.7966 
  10   2.0000     -10.282294      -279.7954 
  11   2.0000     -10.282293      -279.7954 
  12   2.0000     -10.247855      -278.8583 
  13   2.0000     -10.247842      -278.8580 
  14   2.0000     -10.247184      -278.8401 
  15   2.0000     -10.247171      -278.8397 
  16   2.0000     -10.245523      -278.7949 
  17   2.0000     -10.245517      -278.7947 
  18   2.0000     -10.245517      -278.7947 
  19   2.0000     -10.245511      -278.7945 
  20   2.0000     -10.242974      -278.7255 
  21   2.0000     -10.242974      -278.7255 
  22   2.0000     -10.242773      -278.7200 
  23   2.0000     -10.242773      -278.7200 
  24   2.0000      -1.072786       -29.1920 
  25   2.0000      -1.070775       -29.1373 
  26   2.0000      -1.034567       -28.1520 
  27   2.0000      -1.031643       -28.0724 
  28   2.0000      -0.901401       -24.5284 
  29   2.0000      -0.875707       -23.8292 
  30   2.0000      -0.872405       -23.7393 
  31   2.0000      -0.872019       -23.7288 
  32   2.0000      -0.869998       -23.6738 
  33   2.0000      -0.845608       -23.0102 
  34   2.0000      -0.844919       -22.9914 
  35   2.0000      -0.818746       -22.2792 
  36   2.0000      -0.805792       -21.9267 
  37   2.0000      -0.740312       -20.1449 
  38   2.0000      -0.737691       -20.0736 
  39   2.0000      -0.692841       -18.8532 
  40   2.0000      -0.675842       -18.3906 
  41   2.0000      -0.675654       -18.3855 
  42   2.0000      -0.656443       -17.8627 
  43   2.0000      -0.654762       -17.8170 
  44   2.0000      -0.654359       -17.8060 
  45   2.0000      -0.643498       -17.5105 
  46   2.0000      -0.639457       -17.4005 
  47   2.0000      -0.580201       -15.7881 
  48   2.0000      -0.574598       -15.6356 
  49   2.0000      -0.565234       -15.3808 
  50   2.0000      -0.558333       -15.1930 
  51   2.0000      -0.543358       -14.7855 
  52   2.0000      -0.541842       -14.7443 
  53   2.0000      -0.522113       -14.2074 
  54   2.0000      -0.519782       -14.1440 
  55   2.0000      -0.509081       -13.8528 
  56   2.0000      -0.505816       -13.7640 
  57   2.0000      -0.503968       -13.7137 
  58   2.0000      -0.498487       -13.5645 
  59   2.0000      -0.489811       -13.3284 
  60   2.0000      -0.480751       -13.0819 
  61   2.0000      -0.476108       -12.9556 
  62   2.0000      -0.470821       -12.8117 
  63   2.0000      -0.453742       -12.3469 
  64   2.0000      -0.445365       -12.1190 
  65   2.0000      -0.441145       -12.0042 
  66   2.0000      -0.436835       -11.8869 
  67   2.0000      -0.435525       -11.8512 
  68   2.0000      -0.434626       -11.8268 
  69   2.0000      -0.422095       -11.4858 
  70   2.0000      -0.421804       -11.4779 
  71   2.0000      -0.419357       -11.4113 
  72   2.0000      -0.419127       -11.4050 
  73   2.0000      -0.418522       -11.3886 
  74   2.0000      -0.374834       -10.1997 
  75   2.0000      -0.341848        -9.3021 
  76   2.0000      -0.339830        -9.2472 
  77   2.0000      -0.337998        -9.1974 
  78   2.0000      -0.327938        -8.9236 
  79   2.0000      -0.327359        -8.9079 
  80   2.0000      -0.312704        -8.5091 
  81   2.0000      -0.240078        -6.5328 
  82   2.0000      -0.207977        -5.6593 
  83   0.0000      -0.071546        -1.9469 
  84   0.0000      -0.013856        -0.3770 
  85   0.0000       0.058260         1.5853 
  86   0.0000       0.069443         1.8897 
  87   0.0000       0.075660         2.0588 
  88   0.0000       0.080727         2.1967 
  89   0.0000       0.088606         2.4111 
  90   0.0000       0.098991         2.6937 
  91   0.0000       0.105649         2.8749 
  92   0.0000       0.110371         3.0033 
  93   0.0000       0.116375         3.1667 
*Only the first 10 virtual orbitals were printed.

                    ********************************
                    * MULLIKEN POPULATION ANALYSIS *
                    ********************************

-----------------------
MULLIKEN ATOMIC CHARGES
-----------------------
   0 N :   -0.372260
   1 N :   -0.372276
   2 N :   -0.203180
   3 N :   -0.203150
   4 C :   -0.190311
   5 C :   -0.190269
   6 C :   -0.190345
   7 C :   -0.190492
   8 C :    0.157164
   9 C :    0.157226
  10 C :    0.157311
  11 C :    0.157394
  12 C :    0.215232
  13 C :    0.214975
  14 C :    0.215115
  15 C :    0.215066
  16 C :   -0.349251
  17 C :   -0.349197
  18 C :   -0.349335
  19 C :   -0.349367
  20 C :   -0.240067
  21 C :   -0.239739
  22 C :   -0.239973
  23 C :   -0.239839
  24 H :    0.129589
  25 H :    0.129799
  26 H :    0.129342
  27 H :    0.130032
  28 H :    0.129804
  29 H :    0.129578
  30 H :    0.130043
  31 H :    0.129356
  32 H :    0.156897
  33 H :    0.156917
  34 H :    0.156923
  35 H :    0.156883
  36 H :    0.229827
  37 H :    0.229819
  38 H :    0.163684
  39 H :    0.163683
  40 H :    0.163702
  41 H :    0.163690
Sum of atomic charges:   -0.0000000

--------------------------------
MULLIKEN REDUCED ORBITAL CHARGES
--------------------------------
  0 N s       :     3.631652  s :     3.631652
      pz      :     1.184086  p :     3.677895
      px      :     1.490009
      py      :     1.003800
      dz2     :     0.004546  d :     0.059239
      dxz     :     0.009208
      dyz     :     0.014305
      dx2y2   :     0.013233
      dxy     :     0.017947
      f0      :     0.000600  f :     0.003474
      f+1     :     0.000217
      f-1     :     0.000301
      f+2     :     0.000121
      f-2     :     0.000547
      f+3     :     0.000660
      f-3     :     0.001028

  1 N s       :     3.631652  s :     3.631652
      pz      :     1.184093  p :     3.677910
      px      :     1.490008
      py      :     1.003809
      dz2     :     0.004546  d :     0.059240
      dxz     :     0.009208
      dyz     :     0.014305
      dx2y2   :     0.013233
      dxy     :     0.017949
      f0      :     0.000600  f :     0.003474
      f+1     :     0.000217
      f-1     :     0.000301
      f+2     :     0.000121
      f-2     :     0.000547
      f+3     :     0.000660
      f-3     :     0.001028

  2 N s       :     3.461841  s :     3.461841
      pz      :     1.536461  p :     3.676716
      px      :     1.066480
      py      :     1.073776
      dz2     :     0.004696  d :     0.060128
      dxz     :     0.016301
      dyz     :     0.004210
      dx2y2   :     0.020441
      dxy     :     0.014479
      f0      :     0.000800  f :     0.004494
      f+1     :     0.000517
      f-1     :     0.000657
      f+2     :     0.000058
      f-2     :     0.000607
      f+3     :     0.001029
      f-3     :     0.000826

  3 N s       :     3.461835  s :     3.461835
      pz      :     1.536438  p :     3.676688
      px      :     1.066479
      py      :     1.073772
      dz2     :     0.004694  d :     0.060132
      dxz     :     0.016306
      dyz     :     0.004210
      dx2y2   :     0.020442
      dxy     :     0.014479
      f0      :     0.000800  f :     0.004494
      f+1     :     0.000517
      f-1     :     0.000657
      f+2     :     0.000058
      f-2     :     0.000607
      f+3     :     0.001029
      f-3     :     0.000826

  4 C s       :     3.205739  s :     3.205739
      pz      :     1.056082  p :     2.904946
      px      :     0.909420
      py      :     0.939444
      dz2     :     0.001972  d :     0.073706
      dxz     :     0.015480
      dyz     :     0.017667
      dx2y2   :     0.015581
      dxy     :     0.023006
      f0      :     0.000574  f :     0.005921
      f+1     :     0.000837
      f-1     :     0.000664
      f+2     :     0.000823
      f-2     :     0.000268
      f+3     :     0.001566
      f-3     :     0.001190

  5 C s       :     3.205708  s :     3.205708
      pz      :     1.056085  p :     2.904930
      px      :     0.909579
      py      :     0.939266
      dz2     :     0.001989  d :     0.073710
      dxz     :     0.015472
      dyz     :     0.017658
      dx2y2   :     0.015578
      dxy     :     0.023014
      f0      :     0.000576  f :     0.005921
      f+1     :     0.000838
      f-1     :     0.000661
      f+2     :     0.000822
      f-2     :     0.000269
      f+3     :     0.001567
      f-3     :     0.001188

  6 C s       :     3.205791  s :     3.205791
      pz      :     1.056066  p :     2.904927
      px      :     0.909609
      py      :     0.939253
      dz2     :     0.001972  d :     0.073707
      dxz     :     0.015482
      dyz     :     0.017666
      dx2y2   :     0.015579
      dxy     :     0.023008
      f0      :     0.000574  f :     0.005921
      f+1     :     0.000839
      f-1     :     0.000661
      f+2     :     0.000822
      f-2     :     0.000268
      f+3     :     0.001567
      f-3     :     0.001188

  7 C s       :     3.205929  s :     3.205929
      pz      :     1.056074  p :     2.904935
      px      :     0.909441
      py      :     0.939419
      dz2     :     0.001979  d :     0.073707
      dxz     :     0.015483
      dyz     :     0.017659
      dx2y2   :     0.015579
      dxy     :     0.023007
      f0      :     0.000574  f :     0.005921
      f+1     :     0.000837
      f-1     :     0.000664
      f+2     :     0.000823
      f-2     :     0.000268
      f+3     :     0.001566
      f-3     :     0.001189

  8 C s       :     3.175792  s :     3.175792
      pz      :     0.892727  p :     2.507395
      px      :     0.847573
      py      :     0.767096
      dz2     :     0.002672  d :     0.145803
      dxz     :     0.021476
      dyz     :     0.038998
      dx2y2   :     0.040408
      dxy     :     0.042249
      f0      :     0.001938  f :     0.013846
      f+1     :     0.000855
      f-1     :     0.000881
      f+2     :     0.001256
      f-2     :     0.001393
      f+3     :     0.002784
      f-3     :     0.004738

  9 C s       :     3.175824  s :     3.175824
      pz      :     0.892705  p :     2.507307
      px      :     0.847409
      py      :     0.767193
      dz2     :     0.002683  d :     0.145797
      dxz     :     0.021480
      dyz     :     0.038992
      dx2y2   :     0.040422
      dxy     :     0.042221
      f0      :     0.001938  f :     0.013846
      f+1     :     0.000857
      f-1     :     0.000881
      f+2     :     0.001254
      f-2     :     0.001395
      f+3     :     0.002794
      f-3     :     0.004728

 10 C s       :     3.175735  s :     3.175735
      pz      :     0.892757  p :     2.507308
      px      :     0.847407
      py      :     0.767143
      dz2     :     0.002673  d :     0.145801
      dxz     :     0.021481
      dyz     :     0.038988
      dx2y2   :     0.040431
      dxy     :     0.042227
      f0      :     0.001938  f :     0.013845
      f+1     :     0.000856
      f-1     :     0.000881
      f+2     :     0.001254
      f-2     :     0.001395
      f+3     :     0.002794
      f-3     :     0.004728

 11 C s       :     3.175631  s :     3.175631
      pz      :     0.892769  p :     2.507331
      px      :     0.847499
      py      :     0.767063
      dz2     :     0.002672  d :     0.145799
      dxz     :     0.021474
      dyz     :     0.038999
      dx2y2   :     0.040402
      dxy     :     0.042252
      f0      :     0.001938  f :     0.013845
      f+1     :     0.000855
      f-1     :     0.000881
      f+2     :     0.001256
      f-2     :     0.001393
      f+3     :     0.002784
      f-3     :     0.004738

 12 C s       :     3.150339  s :     3.150339
      pz      :     0.928169  p :     2.480952
      px      :     0.728834
      py      :     0.823949
      dz2     :     0.004879  d :     0.139538
      dxz     :     0.039916
      dyz     :     0.029657
      dx2y2   :     0.027114
      dxy     :     0.037973
      f0      :     0.002256  f :     0.013940
      f+1     :     0.001061
      f-1     :     0.000784
      f+2     :     0.000875
      f-2     :     0.002286
      f+3     :     0.003617
      f-3     :     0.003062

 13 C s       :     3.150371  s :     3.150371
      pz      :     0.928173  p :     2.481177
      px      :     0.728736
      py      :     0.824268
      dz2     :     0.004881  d :     0.139536
      dxz     :     0.039942
      dyz     :     0.029672
      dx2y2   :     0.027140
      dxy     :     0.037901
      f0      :     0.002256  f :     0.013940
      f+1     :     0.001061
      f-1     :     0.000783
      f+2     :     0.000879
      f-2     :     0.002282
      f+3     :     0.003628
      f-3     :     0.003052

 14 C s       :     3.150353  s :     3.150353
      pz      :     0.928230  p :     2.481054
      px      :     0.728562
      py      :     0.824262
      dz2     :     0.004877  d :     0.139539
      dxz     :     0.039938
      dyz     :     0.029673
      dx2y2   :     0.027145
      dxy     :     0.037905
      f0      :     0.002256  f :     0.013940
      f+1     :     0.001061
      f-1     :     0.000783
      f+2     :     0.000879
      f-2     :     0.002282
      f+3     :     0.003628
      f-3     :     0.003052

 15 C s       :     3.150350  s :     3.150350
      pz      :     0.928215  p :     2.481096
      px      :     0.728833
      py      :     0.824048
      dz2     :     0.004877  d :     0.139548
      dxz     :     0.039917
      dyz     :     0.029661
      dx2y2   :     0.027118
      dxy     :     0.037976
      f0      :     0.002256  f :     0.013940
      f+1     :     0.001061
      f-1     :     0.000784
      f+2     :     0.000875
      f-2     :     0.002286
      f+3     :     0.003617
      f-3     :     0.003062

 16 C s       :     3.321997  s :     3.321997
      pz      :     1.070078  p :     2.954639
      px      :     0.908239
      py      :     0.976321
      dz2     :     0.003417  d :     0.065548
      dxz     :     0.014459
      dyz     :     0.015782
      dx2y2   :     0.007473
      dxy     :     0.024416
      f0      :     0.001467  f :     0.007068
      f+1     :     0.000572
      f-1     :     0.000572
      f+2     :     0.000795
      f-2     :     0.000421
      f+3     :     0.001595
      f-3     :     0.001647

 17 C s       :     3.321862  s :     3.321862
      pz      :     1.070100  p :     2.954713
      px      :     0.908585
      py      :     0.976027
      dz2     :     0.003418  d :     0.065554
      dxz     :     0.014414
      dyz     :     0.015827
      dx2y2   :     0.007476
      dxy     :     0.024418
      f0      :     0.001467  f :     0.007068
      f+1     :     0.000572
      f-1     :     0.000572
      f+2     :     0.000794
      f-2     :     0.000421
      f+3     :     0.001598
      f-3     :     0.001644

 18 C s       :     3.322090  s :     3.322090
      pz      :     1.070091  p :     2.954637
      px      :     0.908539
      py      :     0.976007
      dz2     :     0.003417  d :     0.065541
      dxz     :     0.014416
      dyz     :     0.015829
      dx2y2   :     0.007472
      dxy     :     0.024407
      f0      :     0.001467  f :     0.007068
      f+1     :     0.000572
      f-1     :     0.000572
      f+2     :     0.000794
      f-2     :     0.000421
      f+3     :     0.001598
      f-3     :     0.001644

 19 C s       :     3.322101  s :     3.322101
      pz      :     1.070104  p :     2.954648
      px      :     0.908210
      py      :     0.976334
      dz2     :     0.003417  d :     0.065550
      dxz     :     0.014460
      dyz     :     0.015784
      dx2y2   :     0.007476
      dxy     :     0.024413
      f0      :     0.001467  f :     0.007068
      f+1     :     0.000572
      f-1     :     0.000572
      f+2     :     0.000795
      f-2     :     0.000421
      f+3     :     0.001595
      f-3     :     0.001647

 20 C s       :     3.274984  s :     3.274984
      pz      :     1.016737  p :     2.880849
      px      :     0.941357
      py      :     0.922754
      dz2     :     0.005109  d :     0.076479
      dxz     :     0.020241
      dyz     :     0.010886
      dx2y2   :     0.013684
      dxy     :     0.026559
      f0      :     0.001515  f :     0.007755
      f+1     :     0.000518
      f-1     :     0.000713
      f+2     :     0.001168
      f-2     :     0.000251
      f+3     :     0.001347
      f-3     :     0.002243

 21 C s       :     3.274731  s :     3.274731
      pz      :     1.016741  p :     2.880775
      px      :     0.941442
      py      :     0.922592
      dz2     :     0.005116  d :     0.076477
      dxz     :     0.020209
      dyz     :     0.010908
      dx2y2   :     0.013675
      dxy     :     0.026569
      f0      :     0.001515  f :     0.007755
      f+1     :     0.000519
      f-1     :     0.000713
      f+2     :     0.001171
      f-2     :     0.000247
      f+3     :     0.001349
      f-3     :     0.002242

 22 C s       :     3.274748  s :     3.274748
      pz      :     1.016785  p :     2.880988
      px      :     0.941578
      py      :     0.922626
      dz2     :     0.005114  d :     0.076481
      dxz     :     0.020212
      dyz     :     0.010908
      dx2y2   :     0.013677
      dxy     :     0.026569
      f0      :     0.001515  f :     0.007755
      f+1     :     0.000519
      f-1     :     0.000713
      f+2     :     0.001171
      f-2     :     0.000247
      f+3     :     0.001349
      f-3     :     0.002242

 23 C s       :     3.274684  s :     3.274684
      pz      :     1.016772  p :     2.880914
      px      :     0.941371
      py      :     0.922771
      dz2     :     0.005110  d :     0.076486
      dxz     :     0.020242
      dyz     :     0.010885
      dx2y2   :     0.013684
      dxy     :     0.026564
      f0      :     0.001515  f :     0.007755
      f+1     :     0.000518
      f-1     :     0.000713
      f+2     :     0.001168
      f-2     :     0.000251
      f+3     :     0.001347
      f-3     :     0.002243

 24 H s       :     0.849076  s :     0.849076
      pz      :     0.009705  p :     0.021336
      px      :     0.006164
      py      :     0.005466

 25 H s       :     0.848865  s :     0.848865
      pz      :     0.009585  p :     0.021336
      px      :     0.006269
      py      :     0.005482

 26 H s       :     0.849315  s :     0.849315
      pz      :     0.009813  p :     0.021343
      px      :     0.006122
      py      :     0.005408

 27 H s       :     0.848639  s :     0.848639
      pz      :     0.009476  p :     0.021328
      px      :     0.006325
      py      :     0.005528

 28 H s       :     0.848861  s :     0.848861
      pz      :     0.009689  p :     0.021336
      px      :     0.006172
      py      :     0.005475

 29 H s       :     0.849086  s :     0.849086
      pz      :     0.009600  p :     0.021336
      px      :     0.006275
      py      :     0.005460

 30 H s       :     0.848629  s :     0.848629
      pz      :     0.009580  p :     0.021328
      px      :     0.006214
      py      :     0.005534

 31 H s       :     0.849301  s :     0.849301
      pz      :     0.009709  p :     0.021343
      px      :     0.006219
      py      :     0.005415

 32 H s       :     0.820854  s :     0.820854
      pz      :     0.005249  p :     0.022249
      px      :     0.008343
      py      :     0.008657

 33 H s       :     0.820835  s :     0.820835
      pz      :     0.005249  p :     0.022248
      px      :     0.008363
      py      :     0.008637

 34 H s       :     0.820829  s :     0.820829
      pz      :     0.005248  p :     0.022248
      px      :     0.008363
      py      :     0.008637

 35 H s       :     0.820868  s :     0.820868
      pz      :     0.005249  p :     0.022248
      px      :     0.008343
      py      :     0.008656

 36 H s       :     0.728612  s :     0.728612
      pz      :     0.010499  p :     0.041561
      px      :     0.006012
      py      :     0.025050

 37 H s       :     0.728619  s :     0.728619
      pz      :     0.010500  p :     0.041562
      px      :     0.006012
      py      :     0.025050

 38 H s       :     0.814342  s :     0.814342
      pz      :     0.004737  p :     0.021974
      px      :     0.007167
      py      :     0.010070

 39 H s       :     0.814342  s :     0.814342
      pz      :     0.004736  p :     0.021974
      px      :     0.007187
      py      :     0.010051

 40 H s       :     0.814324  s :     0.814324
      pz      :     0.004736  p :     0.021974
      px      :     0.007187
      py      :     0.010051

 41 H s       :     0.814335  s :     0.814335
      pz      :     0.004737  p :     0.021974
      px      :     0.007167
      py      :     0.010070



                     *******************************
                     * LOEWDIN POPULATION ANALYSIS *
                     *******************************

----------------------
LOEWDIN ATOMIC CHARGES
----------------------
   0 N :    0.127134
   1 N :    0.127131
   2 N :    0.244977
   3 N :    0.244996
   4 C :   -0.198927
   5 C :   -0.198933
   6 C :   -0.198932
   7 C :   -0.198935
   8 C :   -0.230126
   9 C :   -0.230120
  10 C :   -0.230118
  11 C :   -0.230122
  12 C :   -0.198437
  13 C :   -0.198438
  14 C :   -0.198462
  15 C :   -0.198465
  16 C :   -0.136440
  17 C :   -0.136440
  18 C :   -0.136445
  19 C :   -0.136449
  20 C :   -0.125071
  21 C :   -0.125071
  22 C :   -0.125100
  23 C :   -0.125100
  24 H :    0.146677
  25 H :    0.146669
  26 H :    0.146792
  27 H :    0.146553
  28 H :    0.146667
  29 H :    0.146674
  30 H :    0.146553
  31 H :    0.146790
  32 H :    0.166799
  33 H :    0.166797
  34 H :    0.166798
  35 H :    0.166797
  36 H :    0.186158
  37 H :    0.186148
  38 H :    0.149758
  39 H :    0.149759
  40 H :    0.149753
  41 H :    0.149752

-------------------------------
LOEWDIN REDUCED ORBITAL CHARGES
-------------------------------
  0 N s       :     3.031129  s :     3.031129
      pz      :     1.069428  p :     3.611275
      px      :     1.421671
      py      :     1.120177
      dz2     :     0.016641  d :     0.211027
      dxz     :     0.010522
      dyz     :     0.046412
      dx2y2   :     0.060831
      dxy     :     0.076620
      f0      :     0.001091  f :     0.019434
      f+1     :     0.000771
      f-1     :     0.001864
      f+2     :     0.000284
      f-2     :     0.003423
      f+3     :     0.004342
      f-3     :     0.007659

  1 N s       :     3.031132  s :     3.031132
      pz      :     1.069434  p :     3.611279
      px      :     1.421670
      py      :     1.120175
      dz2     :     0.016642  d :     0.211025
      dxz     :     0.010522
      dyz     :     0.046411
      dx2y2   :     0.060831
      dxy     :     0.076620
      f0      :     0.001091  f :     0.019434
      f+1     :     0.000771
      f-1     :     0.001864
      f+2     :     0.000284
      f-2     :     0.003423
      f+3     :     0.004343
      f-3     :     0.007659

  2 N s       :     2.884385  s :     2.884385
      pz      :     1.348972  p :     3.619492
      px      :     1.137119
      py      :     1.133401
      dz2     :     0.013700  d :     0.233305
      dxz     :     0.049023
      dyz     :     0.011281
      dx2y2   :     0.089935
      dxy     :     0.069367
      f0      :     0.001153  f :     0.017842
      f+1     :     0.001732
      f-1     :     0.001708
      f+2     :     0.000283
      f-2     :     0.003795
      f+3     :     0.006593
      f-3     :     0.002578

  3 N s       :     2.884366  s :     2.884366
      pz      :     1.348949  p :     3.619469
      px      :     1.137124
      py      :     1.133396
      dz2     :     0.013698  d :     0.233326
      dxz     :     0.049035
      dyz     :     0.011280
      dx2y2   :     0.089944
      dxy     :     0.069369
      f0      :     0.001153  f :     0.017843
      f+1     :     0.001732
      f-1     :     0.001708
      f+2     :     0.000283
      f-2     :     0.003796
      f+3     :     0.006594
      f-3     :     0.002579

  4 C s       :     2.766029  s :     2.766029
      pz      :     1.039045  p :     3.033279
      px      :     0.993557
      py      :     1.000678
      dz2     :     0.037634  d :     0.359294
      dxz     :     0.072878
      dyz     :     0.073959
      dx2y2   :     0.087852
      dxy     :     0.086970
      f0      :     0.003793  f :     0.040324
      f+1     :     0.004071
      f-1     :     0.003819
      f+2     :     0.005237
      f-2     :     0.004242
      f+3     :     0.011538
      f-3     :     0.007624

  5 C s       :     2.766026  s :     2.766026
      pz      :     1.039034  p :     3.033276
      px      :     0.993591
      py      :     1.000651
      dz2     :     0.037712  d :     0.359306
      dxz     :     0.072928
      dyz     :     0.073826
      dx2y2   :     0.087797
      dxy     :     0.087043
      f0      :     0.003799  f :     0.040325
      f+1     :     0.004069
      f-1     :     0.003813
      f+2     :     0.005240
      f-2     :     0.004244
      f+3     :     0.011547
      f-3     :     0.007612

  6 C s       :     2.766029  s :     2.766029
      pz      :     1.039046  p :     3.033281
      px      :     0.993590
      py      :     1.000644
      dz2     :     0.037628  d :     0.359297
      dxz     :     0.072985
      dyz     :     0.073862
      dx2y2   :     0.087806
      dxy     :     0.087015
      f0      :     0.003793  f :     0.040325
      f+1     :     0.004075
      f-1     :     0.003817
      f+2     :     0.005237
      f-2     :     0.004241
      f+3     :     0.011549
      f-3     :     0.007613

  7 C s       :     2.766026  s :     2.766026
      pz      :     1.039041  p :     3.033275
      px      :     0.993556
      py      :     1.000678
      dz2     :     0.037640  d :     0.359309
      dxz     :     0.072898
      dyz     :     0.073947
      dx2y2   :     0.087852
      dxy     :     0.086971
      f0      :     0.003793  f :     0.040325
      f+1     :     0.004073
      f-1     :     0.003821
      f+2     :     0.005236
      f-2     :     0.004240
      f+3     :     0.011539
      f-3     :     0.007624

  8 C s       :     2.722885  s :     2.722885
      pz      :     0.823922  p :     2.799129
      px      :     0.974618
      py      :     1.000589
      dz2     :     0.041003  d :     0.630530
      dxz     :     0.068769
      dyz     :     0.117040
      dx2y2   :     0.211736
      dxy     :     0.191982
      f0      :     0.005111  f :     0.077581
      f+1     :     0.004375
      f-1     :     0.006049
      f+2     :     0.006883
      f-2     :     0.009808
      f+3     :     0.015362
      f-3     :     0.029994

  9 C s       :     2.722886  s :     2.722886
      pz      :     0.823933  p :     2.799126
      px      :     0.974514
      py      :     1.000679
      dz2     :     0.041016  d :     0.630528
      dxz     :     0.068788
      dyz     :     0.117019
      dx2y2   :     0.211770
      dxy     :     0.191935
      f0      :     0.005110  f :     0.077581
      f+1     :     0.004380
      f-1     :     0.006046
      f+2     :     0.006872
      f-2     :     0.009819
      f+3     :     0.015431
      f-3     :     0.029923

 10 C s       :     2.722891  s :     2.722891
      pz      :     0.823963  p :     2.799148
      px      :     0.974514
      py      :     1.000671
      dz2     :     0.041002  d :     0.630503
      dxz     :     0.068788
      dyz     :     0.117015
      dx2y2   :     0.211765
      dxy     :     0.191933
      f0      :     0.005111  f :     0.077575
      f+1     :     0.004378
      f-1     :     0.006046
      f+2     :     0.006873
      f-2     :     0.009816
      f+3     :     0.015430
      f-3     :     0.029922

 11 C s       :     2.722889  s :     2.722889
      pz      :     0.823953  p :     2.799149
      px      :     0.974613
      py      :     1.000582
      dz2     :     0.040995  d :     0.630508
      dxz     :     0.068766
      dyz     :     0.117039
      dx2y2   :     0.211726
      dxy     :     0.191981
      f0      :     0.005111  f :     0.077576
      f+1     :     0.004374
      f-1     :     0.006049
      f+2     :     0.006883
      f-2     :     0.009806
[...]
  0-1A  ->  1-1A    1.750428   14118.2   708.3   0.404146461   0.03900  -0.00018   0.19747   0.00022
  0-1A  ->  2-1A    2.462097   19858.2   503.6   0.089884345   0.01220   0.11045   0.00010   0.00085
  0-1A  ->  3-1A    3.591722   28969.2   345.2   1.445012543   0.28610   0.53487   0.00048   0.00411
  0-1A  ->  4-1A    4.022615   32444.6   308.2   1.327222291   0.29430   0.00051  -0.54250  -0.00054
  0-1A  ->  5-1A    4.318254   34829.1   287.1   0.000000713   0.00000  -0.00001  -0.00012  -0.00040
  0-1A  ->  6-1A    4.491351   36225.2   276.1   0.000007492   0.00000  -0.00023  -0.00134   0.00006
  0-1A  ->  7-1A    4.539905   36616.8   273.1   0.026328308   0.00659  -0.08117  -0.00005  -0.00045
  0-1A  ->  8-1A    4.543815   36648.3   272.9   0.001716768   0.00043   0.00051   0.00060   0.02072
  0-1A  ->  9-1A    4.635270   37386.0   267.5   0.000000059   0.00000   0.00000  -0.00003  -0.00012
  0-1A  -> 10-1A    5.020460   40492.7   247.0   0.000000003   0.00000   0.00001  -0.00002   0.00001
  0-1A  -> 11-1A    5.176434   41750.8   239.5   0.000000027   0.00000   0.00000   0.00009   0.00001
  0-1A  -> 12-1A    5.197997   41924.7   238.5   0.000000444   0.00000  -0.00005   0.00002   0.00035
  0-1A  -> 13-1A    5.550643   44769.0   223.4   0.000000086   0.00000  -0.00016   0.00001  -0.00000
  0-1A  -> 14-1A    5.796456   46751.6   213.9   0.000001370   0.00000  -0.00041  -0.00052  -0.00001
  0-1A  -> 15-1A    5.807407   46839.9   213.5   0.099436115   0.03183  -0.00017   0.17841   0.00132
  0-1A  -> 16-1A    5.809626   46857.8   213.4   0.000000141   0.00000   0.00021  -0.00001  -0.00001
  0-1A  -> 17-1A    5.823153   46966.9   212.9   0.000000467   0.00000   0.00034  -0.00019   0.00001
  0-1A  -> 18-1A    5.842649   47124.1   212.2   0.000005489   0.00000  -0.00132  -0.00011  -0.00001
  0-1A  -> 19-1A    5.917763   47730.0   209.5   0.000001823   0.00000   0.00000  -0.00001  -0.00077
  0-1A  -> 20-1A    6.088867   49110.0   203.6   0.002713004   0.00091   0.00004  -0.03017  -0.00031
  0-1A  -> 21-1A    6.215540   50131.7   199.5   0.000003562   0.00000  -0.00001  -0.00110  -0.00003
  0-1A  -> 22-1A    6.254433   50445.4   198.2   0.246166971   0.08487  -0.00027   0.29132   0.00162
  0-1A  -> 23-1A    6.296404   50783.9   196.9   0.000001244   0.00000  -0.00001   0.00066  -0.00000
  0-1A  -> 24-1A    6.298569   50801.4   196.8   0.000015816   0.00001   0.00000  -0.00234  -0.00003
  0-1A  -> 25-1A    6.331011   51063.0   195.8   0.002330274   0.00081   0.00021   0.00040  -0.02851
  0-1A  -> 26-1A    6.517911   52570.5   190.2   0.000001694   0.00000   0.00078   0.00001   0.00001
  0-1A  -> 27-1A    6.570816   52997.2   188.7   0.016452800   0.00596  -0.07719  -0.00008  -0.00059
  0-1A  -> 28-1A    6.577175   53048.5   188.5   0.000000815   0.00000   0.00054   0.00002  -0.00005
  0-1A  -> 29-1A    6.613787   53343.8   187.5   0.002365964   0.00086   0.00022  -0.00142  -0.02933
  0-1A  -> 30-1A    6.649780   53634.1   186.4   0.000006639   0.00000   0.00156  -0.00003   0.00002

------------------------------------------------------------------------------------------
                     CD SPECTRUM VIA TRANSITION ELECTRIC DIPOLE MOMENTS    
------------------------------------------------------------------------------------------
     Transition      Energy     Energy  Wavelength    R        MX        MY        MZ   
                      (eV)      (cm-1)    (nm)   (1e40*cgs)   (au)      (au)      (au)  
------------------------------------------------------------------------------------------
  0-1A  ->  1-1A    1.750428   14118.2   708.3   -0.48855   0.00000  -0.00034  -0.00001
  0-1A  ->  2-1A    2.462097   19858.2   503.6   -0.22093  -0.00038  -0.00001   0.00053
  0-1A  ->  3-1A    3.591722   28969.2   345.2   -2.84890  -0.00149   0.00001  -0.00014
  0-1A  ->  4-1A    4.022615   32444.6   308.2   -0.41115   0.00000   0.00024   0.00001
  0-1A  ->  5-1A    4.318254   34829.1   287.1    0.38607   0.00268  -0.02556  -0.34482
  0-1A  ->  6-1A    4.491351   36225.2   276.1    1.63305   0.00001  -0.42927   0.05184
  0-1A  ->  7-1A    4.539905   36616.8   273.1   -0.13900   0.00062   0.00107  -0.00058
  0-1A  ->  8-1A    4.543815   36648.3   272.9    0.29341  -0.00006   0.00080   0.00582
  0-1A  ->  9-1A    4.635270   37386.0   267.5    0.38251   0.00807  -0.00928  -1.04353
  0-1A  -> 10-1A    5.020460   40492.7   247.0    0.00003   0.00091   0.00000   0.00001
  0-1A  -> 11-1A    5.176434   41750.8   239.5    0.00000   0.00083  -0.00002  -0.00021
  0-1A  -> 12-1A    5.197997   41924.7   238.5    0.69494  -0.00661  -0.00016   0.85614
  0-1A  -> 13-1A    5.550643   44769.0   223.4    0.00000  -0.00001   0.00001   0.00008
  0-1A  -> 14-1A    5.796456   46751.6   213.9   -0.01813   0.01980   0.00007   0.00008
  0-1A  -> 15-1A    5.807407   46839.9   213.5    0.07631   0.00013   0.00019   0.00004
  0-1A  -> 16-1A    5.809626   46857.8   213.4   -0.00698  -0.01469   0.00005  -0.00005
  0-1A  -> 17-1A    5.823153   46966.9   212.9    0.03072   0.05228   0.00005   0.00043
  0-1A  -> 18-1A    5.842649   47124.1   212.2   -0.00024   0.00008  -0.00005   0.00004
  0-1A  -> 19-1A    5.917763   47730.0   209.5    0.14775   0.00063   0.00336  -0.07816
  0-1A  -> 20-1A    6.088867   49110.0   203.6    0.02654   0.00003  -0.00041   0.00003
  0-1A  -> 21-1A    6.215540   50131.7   199.5    0.00002  -0.00390   0.00002   0.00000
  0-1A  -> 22-1A    6.254433   50445.4   198.2    0.51089   0.00006   0.00084   0.00001
  0-1A  -> 23-1A    6.296404   50783.9   196.9   -0.00024  -0.00297  -0.00023  -0.00001
  0-1A  -> 24-1A    6.298569   50801.4   196.8   -0.61784  -0.00012   0.13104  -0.00051
  0-1A  -> 25-1A    6.331011   51063.0   195.8    0.05797   0.00004  -0.00009  -0.00055
  0-1A  -> 26-1A    6.517911   52570.5   190.2    0.00001   0.00001   0.00005  -0.00011
  0-1A  -> 27-1A    6.570816   52997.2   188.7    0.00095  -0.00001   0.00002   0.00011
  0-1A  -> 28-1A    6.577175   53048.5   188.5   -0.00165  -0.00008   0.00033   0.01054
  0-1A  -> 29-1A    6.613787   53343.8   187.5   -0.07461   0.00001  -0.00000   0.00108
  0-1A  -> 30-1A    6.649780   53634.1   186.4   -0.00007  -0.00002   0.00007  -0.00022

------------------------------------------------------------------------------------------
                     CD SPECTRUM VIA TRANSITION VELOCITY DIPOLE MOMENTS    
------------------------------------------------------------------------------------------
     Transition      Energy     Energy  Wavelength    R        MX        MY        MZ   
                      (eV)      (cm-1)    (nm)   (1e40*cgs)   (au)      (au)      (au)  
------------------------------------------------------------------------------------------
  0-1A  ->  1-1A    1.750428   14118.2   708.3   -0.49130   0.00000  -0.00034  -0.00001
  0-1A  ->  2-1A    2.462097   19858.2   503.6   -0.21896  -0.00038  -0.00001   0.00053
  0-1A  ->  3-1A    3.591722   28969.2   345.2   -2.84478  -0.00149   0.00001  -0.00014
  0-1A  ->  4-1A    4.022615   32444.6   308.2   -0.41126   0.00000   0.00024   0.00001
  0-1A  ->  5-1A    4.318254   34829.1   287.1    0.41367   0.00268  -0.02556  -0.34482
  0-1A  ->  6-1A    4.491351   36225.2   276.1    1.65348   0.00001  -0.42927   0.05184
  0-1A  ->  7-1A    4.539905   36616.8   273.1   -0.14184   0.00062   0.00107  -0.00058
  0-1A  ->  8-1A    4.543815   36648.3   272.9    0.34171  -0.00006   0.00080   0.00582
  0-1A  ->  9-1A    4.635270   37386.0   267.5    0.34609   0.00807  -0.00928  -1.04353
  0-1A  -> 10-1A    5.020460   40492.7   247.0    0.00003   0.00091   0.00000   0.00001
  0-1A  -> 11-1A    5.176434   41750.8   239.5   -0.00000   0.00083  -0.00002  -0.00021
  0-1A  -> 12-1A    5.197997   41924.7   238.5    0.74515  -0.00661  -0.00016   0.85614
  0-1A  -> 13-1A    5.550643   44769.0   223.4    0.00000  -0.00001   0.00001   0.00008
  0-1A  -> 14-1A    5.796456   46751.6   213.9   -0.01811   0.01980   0.00007   0.00008
  0-1A  -> 15-1A    5.807407   46839.9   213.5    0.07499   0.00013   0.00019   0.00004
  0-1A  -> 16-1A    5.809626   46857.8   213.4   -0.00688  -0.01469   0.00005  -0.00005
  0-1A  -> 17-1A    5.823153   46966.9   212.9    0.03865   0.05228   0.00005   0.00043
  0-1A  -> 18-1A    5.842649   47124.1   212.2   -0.00023   0.00008  -0.00005   0.00004
  0-1A  -> 19-1A    5.917763   47730.0   209.5    0.13058   0.00063   0.00336  -0.07816
  0-1A  -> 20-1A    6.088867   49110.0   203.6    0.02607   0.00003  -0.00041   0.00003
  0-1A  -> 21-1A    6.215540   50131.7   199.5    0.00003  -0.00390   0.00002   0.00000
  0-1A  -> 22-1A    6.254433   50445.4   198.2    0.50229   0.00006   0.00084   0.00001
  0-1A  -> 23-1A    6.296404   50783.9   196.9   -0.00025  -0.00297  -0.00023  -0.00001
  0-1A  -> 24-1A    6.298569   50801.4   196.8   -0.62537  -0.00012   0.13104  -0.00051
  0-1A  -> 25-1A    6.331011   51063.0   195.8    0.03165   0.00004  -0.00009  -0.00055
  0-1A  -> 26-1A    6.517911   52570.5   190.2    0.00001   0.00001   0.00005  -0.00011
  0-1A  -> 27-1A    6.570816   52997.2   188.7    0.00098  -0.00001   0.00002   0.00011
  0-1A  -> 28-1A    6.577175   53048.5   188.5   -0.00106  -0.00008   0.00033   0.01054
  0-1A  -> 29-1A    6.613787   53343.8   187.5   -0.06156   0.00001  -0.00000   0.00108
  0-1A  -> 30-1A    6.649780   53634.1   186.4   -0.00006  -0.00002   0.00007  -0.00022

Total run time:    14991.373 sec

           *** ORCA-CIS/TD-DFT FINISHED WITHOUT ERROR ***
-----------------------
CIS/TD-DFT TOTAL ENERGY
-----------------------

    E(SCF)  =   -991.793112553 Eh
    DE(CIS) =      0.064327040 Eh (Root  1)
    ----------------------------- ---------
    E(tot)  =   -991.728785513 Eh


Maximum memory used throughout the entire CIS-calculation: 2729.5 MB
=> NOW LEAVING ORCA_CIS

-------------------------   --------------------
FINAL SINGLE POINT ENERGY      -991.728785512831
-------------------------   --------------------



           ************************************************************
           *        Program running with 4 parallel MPI-processes     *
           *              working on a common directory               *
           ************************************************************

------------------------------------------------------------------------------
                              ORCA PROPERTY CALCULATIONS
------------------------------------------------------------------------------

GBWName                                 ... tddft.gbw
Number of atoms                         ...     42
Number of basis functions               ...    852
Max core memory                         ...   3000 MB

Electric properties:
Dipole moment                           ... YES
Quadrupole moment                       ...  NO
Static polarizability (Dipole/Dipole)   ...  NO
Static polarizability (Dipole/Quad.)    ...  NO
Static polarizability (Quad./Quad.)     ...  NO
Static polarizability (Velocity)        ...  NO
Static hyperpolarizability              ...  NO

Atomic electric properties:
Dipole moment                           ...  NO
Quadrupole moment                       ...  NO
Static polarizability                   ...  NO

Choice of electric origin               ... Center of mass
Position of electric origin             ...    -0.003599    -0.013811     0.091660

General magnetic properties:
Magnetizability                         ...  NO

EPR properties:
g-Tensor (aka g-matrix)                 ...  NO
Zero-Field splitting spin-orbit         ...  NO
Zero-field splitting spin-spin          ...  NO
Hyperfine couplings                     ...  NO (   0 nuclei)
Quadrupole couplings                    ...  NO (   0 nuclei)
Contact density                         ...  NO (   0 nuclei)

NMR properties:
Chemical shifts                         ...  NO (   0 nuclei)
Spin-rotation constants                 ...  NO (   0 nuclei)
Spin-spin couplings                     ...  NO (   0 nuclei,    0 pairs)

Choice of magnetic origin               ... GIAO
Position of magnetic origin             ...     0.000000     0.000000     0.000000

Properties with geometric perturbations:
SCF Hessian                             ...  NO
IR spectrum                             ...  NO
VCD spectrum                            ...  NO
X-ray spectroscopy properties:
SCF XES/XAS/RIXS spectra                ...  NO

SCF SOC stabilization energy            ...  NO
Diagonal Born-Oppenheimer correction    ...  NO

-------------
DIPOLE MOMENT
-------------

Method             : SCF
Type of density    : Electron Density
Multiplicity       :   1
Irrep              :   0
Energy             :  -991.7931125528181155 Eh
Basis              : AO
                                X                 Y                 Z
Electronic contribution:     -0.000000557      -0.001010859      -0.000362843
Nuclear contribution   :     -0.000113296       0.000066341       0.000274503
                        -----------------------------------------
Total Dipole Moment    :     -0.000113853      -0.000944519      -0.000088340
                        -----------------------------------------
Magnitude (a.u.)       :      0.000955448
Magnitude (Debye)      :      0.002428557



--------------------
Rotational spectrum 
--------------------
 
Rotational constants in cm-1:             0.008883             0.008130             0.004258 
Rotational constants in MHz :           266.312298           243.718156           127.657012 

Dipole components along the rotational axes: 
x,y,z [a.u.] :    -0.000115     0.000945    -0.000086 
x,y,z [Debye]:    -0.000293     0.002401    -0.000219 

 

Dipole moment calculation done in   0.0 sec 

Maximum memory used throughout the entire PROP-calculation: 86.7 MB

--------------------------------
SUGGESTED CITATIONS FOR THIS RUN
--------------------------------

Below you find a list of papers that are relevant to this ORCA run
We neither can nor want to force you to cite these papers, but we appreciate if you do
You receive ORCA, which is the product of decades of hard work by many enthusiastic individuals, for free
The only thing we kindly ask in return is that you cite our papers,
We deeply appreciate it, if you show your appreciation for ORCA by not just citing the generic ORCA reference.

Please note that relegating all ORCA citations to the supporting information does *not* help us.
SI sections are not indexed - citations you put there will not count into any citation statistics
But we need these citations in order to attract the funding resources that allow us to do what we are doing

Therefore, if you are a happy ORCA user, please consider citing a few of the papers listed below in the main body of your paper

In addition to the list printed below, the program has created the file tddft.bibtex that contains the list in bibtex format
You can import this file easily into all common literature databanks and citation aid programs

It goes without saying that in many instances, there are alternative algorithms to achieve similar
results as the ones you have gotten from ORCA. It is, of course, also the case that in some instances
ORCA just re-implements algorithms worked out by others. We are fully aware of that and we are also
fully appreciative of our colleagues work. Hence this citation list should not be read as indicating
that the listed papers, which are focused on our own work, are the only ones worth citing. It simply
meant to make it easier for users to cite ORCA specific papers. It is not a substitute for doing your
own literature research and citing the relevant literature in a scientifically appropriate manner.

List of essential papers. We consider these as the minimum necessary citations

  1. Neese, F.
     Software update: the ORCA program system, version 6.0
     WIRES Comput. Molec. Sci. 2025 15(1), e70019
     doi.org/10.1002/wcms.70019

List of papers to cite with high priority. The work reported in these papers was absolutely
necessary for this run to complete.
Our perspective: the developers of density functionals and basis sets usually get cited in chemistry papers
Good! But without the algorithms to do something with them, the functionals or basis sets would not do anything.
Hence, in our opinion, the algorithm design and method developments papers are equally worthy of getting cited

  1. Neese, F.; Olbrich, G.
     Efficient use of the resolution of the identity approximation in time-dependent density functional calculations with hybrid density functionals
     Chem. Phys. Lett. 2002 362 , 170-178
     doi.org/10.1016/s0009-2614(02)01053-9
  2. Neese, F.
     An improvement of the resolution of the identity approximation for the formation of the Coulomb matrix
     J. Comp. Chem. 2003 24(14), 1740-1747
     doi.org/10.1002/jcc.10318
  3. Neese, F.; Wennmohs, F.; Hansen, A.; Becker, U.
     Efficient, approximate and parallel Hartree-Fock and hybrid DFT calculations. A 'chain-of-spheres' algorithm for the Hartree-Fock exchange
     Chem. Phys. 2009 356(1-3), 98-109
     doi.org/10.1016/j.chemphys.2008.10.036
  4. Garcia-Rates, M.; Neese, F.
     Effect of the Solute Cavity on the Solvation Energy and its Derivatives within the Framework of the Gaussian Charge Scheme
     J. Comput. Chem. 2020 41 , 922-939
     doi.org/10.1002/jcc.26139
  5. Helmich-Paris, B.; de Souza, B.; Neese, F.; Izsák, R.
     An improved chain of spheres for exchange algorithm
     J. Chem. Phys. 2021 155(10), 104109
     doi.org/10.1063/5.0058766
  6. Neese, F.
     The SHARK Integral Generation and Digestion System
     J. Comp. Chem. 2022 44(3), 381
     doi.org/10.1002/jcc.26942

List of suggested additional citations. These are papers that are important in the 'surrounding' of 
of this run, or papers that preceded the highly important papers. If you like your results we are grateful for a citation.

  1. Izsak, R.; Neese, F.
     An overlap fitted chain of spheres exchange method
     J. Chem. Phys. 2011 135 , 144105
     doi.org/10.1063/1.3646921
  2. Izsak, R.; Hansen, A.; Neese, F.
     The resolution of identity and chain of spheres approximations for the LPNO-CCSD singles Fock term
     Molec. Phys. 2012 110 , 2413-2417
     doi.org/10.1080/00268976.2012.687466
  3. Neese, F.
     The ORCA program system
     WIRES Comput. Molec. Sci. 2012 2(1), 73-78
     doi.org/10.1002/wcms.81
  4. Izsak, R.; Neese, F.; Klopper, W.
     Robust fitting techniques in the chain of spheres approximation to the Fock exchange: The role of the complementary space
     J. Chem. Phys. 2013 139 , 
     doi.org/10.1063/1.4819264
  5. Neese, F.
     Software update: the ORCA program system, version 4.0
     WIRES Comput. Molec. Sci. 2018 8(1), 1-6
     doi.org/10.1002/wcms.1327
  6. Neese, F.; Wennmohs, F.; Becker, U.; Riplinger, C.
     The ORCA quantum chemistry program package
     J. Chem. Phys. 2020 152(22), 224108
     doi.org/10.1063/5.0004608
  7. Neese, F.
     Software update: The ORCA program system—Version 5.0
     WIRES Comput. Molec. Sci. 2022 12(1), e1606
     doi.org/10.1002/wcms.1606

List of optional additional citations

  1. Neese, F.
     Approximate second-order SCF convergence for spin unrestricted wavefunctions
     Chem. Phys. Lett. 2000 325(1-3), 93-98
     doi.org/10.1016/s0009-2614(00)00662-x

Timings for individual modules:

Sum of individual times          ...    16355.567 sec (= 272.593 min)
Startup calculation              ...       15.623 sec (=   0.260 min)   0.1 %
SCF iterations                   ...     1336.579 sec (=  22.276 min)   8.2 %
Property integrals               ...        9.736 sec (=   0.162 min)   0.1 %
Property calculations            ...        0.635 sec (=   0.011 min)   0.0 %
CIS module                       ...    14992.994 sec (= 249.883 min)  91.7 %
                             ****ORCA TERMINATED NORMALLY****
TOTAL RUN TIME: 0 days 4 hours 32 minutes 35 seconds 952 msec
