
                                 *****************
                                 * O   R   C   A *
                                 *****************

                                            #,                                       
                                            ###                                      
                                            ####                                     
                                            #####                                    
                                            ######                                   
                                           ########,                                 
                                     ,,################,,,,,                         
                               ,,#################################,,                 
                          ,,##########################################,,             
                       ,#########################################, ''#####,          
                    ,#############################################,,   '####,        
                  ,##################################################,,,,####,       
                ,###########''''           ''''###############################       
              ,#####''   ,,,,##########,,,,          '''####'''          '####       
            ,##' ,,,,###########################,,,                        '##       
           ' ,,###''''                  '''############,,,                           
         ,,##''                                '''############,,,,        ,,,,,,###''
      ,#''                                            '''#######################'''  
     '                                                          ''''####''''         
             ,#######,   #######,   ,#######,      ##                                
            ,#'     '#,  ##    ##  ,#'     '#,    #''#        ,####,    ,#,          
            ##       ##  ##   ,#'  ##            #'  '#       #'       ,# #          
            ##       ##  #######   ##           ,######,      #####,      #          
            '#,     ,#'  ##    ##  '#,     ,#' ,#      #,     #,   #      #          
             '#######'   ##     ##  '#######'  #'      '#     '####' #    #          



                #########################################################
                #                        -***-                          #
                #          Department of theory and spectroscopy        #
                #                                                       #
                #                      Frank Neese                      #
                #                                                       #
                #     Directorship, Architecture, Infrastructure        #
                #                    SHARK, DRIVERS                     #
                #        Core code/Algorithms in most modules           #
                #                                                       #
                #        Max Planck Institute fuer Kohlenforschung      #
                #                Kaiser Wilhelm Platz 1                 #
                #                 D-45470 Muelheim/Ruhr                 #
                #                      Germany                          #
                #                                                       #
                #                  All rights reserved                  #
                #                        -***-                          #
                #########################################################


                         Program Version 6.1.1  -  RELEASE   -
                                (GIT: $487d211c$)
                          ($2025-11-21 10:33:24 +0100$)


 With contributions from (in alphabetic order):
[Max-Planck-Institut fuer Kohlenforschung]                               
  Daniel Aravena         : Magnetic Suceptibility                        
  Michael Atanasov       : Ab Initio Ligand Field Theory (pilot matlab implementation)
  Alexander A. Auer      : GIAO ZORA, VPT2 properties, NMR spectrum      
  Ute Becker             : All parallelization in ORCA, NUMFREQ, NUMCALC 
  Giovanni Bistoni       : ED, misc. LED, open-shell LED, HFLD           
  Dmytro Bykov           : pre 5.0 version of the SCF Hessian            
  Marcos Casanova-Páez   : Triplet and SCS-CIS(D). UHF-(DLPNO)-IP/EA/STEOM-CCSD. UHF-CVS-IP/STEOM-CCSD   
  Vijay G. Chilkuri      : MRCI spin determinant printing, contributions to CSF-ICE 
  Pauline Colinet        : FMM embedding                                 
  Dipayan Datta          : RHF DLPNO-CCSD density                        
  Achintya Kumar Dutta   : EOM-CC, STEOM-CC                              
  Nicolas Foglia         : Exact transition moments, OPA infrastructure, MCD improvements    
  Dmitry Ganyushin       : Spin-Orbit,Spin-Spin,Magnetic field MRCI      
  Miquel Garcia-Rates    : C-PCM and meta-GGA Hessian, CCSD/C-PCM, Gaussian charge scheme 
  Tiago L. C. Gouveia    : GS-ROHF, GS-ROCIS                             
  Yang Guo               : DLPNO-NEVPT2, F12-NEVPT2, CIM, IAO-localization        
  Andreas Hansen         : Spin unrestricted coupled pair/coupled cluster methods 
  Ingolf Harden          : AUTO-CI MPn and infrastructure                
  Benjamin Helmich-Paris : MC-RPA, TRAH-(SCF,CASSCF), AVAS, COSX integrals, SCF dyn. polar., MC-PDFT, srDFT 
  Lee Huntington         : MR-EOM, pCC                                   
  Robert Izsak           : Overlap fitted RIJCOSX, COSX-SCS-MP3, EOM     
  Riya Kayal             : Wick's Theorem for AUTO-CI, AUTO-CI UHF-CCSDT 
  Emily Kempfer          : AUTO-CI RHF CISDT and CCSDT, approximate NEVPT4
  Christian Kollmar      : KDIIS, OOCD, Brueckner-CCSD(T), CCSD density, CASPT2, CASPT2-K, improved NEVPT2 
  Axel Koslowski         : Symmetry handling                             
  Simone Kossmann        : meta-GGA functionals, TD-DFT gradient, OOMP2, (MP2 Hessian; deprecated post 5.0) 
  Lucas Lang             : DCDCAS, Hyperfine gauge corrections, ICE-SOC+SSC
  Marvin Lechner         : AUTO-CI (C++ implementation), FIC-MRCC        
  Spencer Leger          : CASSCF response                               
  Dagmar Lenk            : GEPOL surface, SMD, ORCA-2-JSON               
  Dimitrios Liakos       : Extrapolation schemes; Compound Job, Property file
  Dimitrios Manganas     : Further ROCIS development; embedding schemes. LFT, Crystal Embedding 
  Dimitrios Pantazis     : SARC Basis sets                               
  Anastasios Papadopoulos: AUTO-CI, single reference methods and gradients 
  Taras Petrenko         : pre 6.0 DFT Hessian and TD-DFT gradient,  ECA, NRVS 
  Petra Pikulova         : Analytic Raman intensities                    
  Peter Pinski           : DLPNO-MP2, DLPNO-MP2 Gradient                 
  Shashank Vittal Rao    : ES-AILFT, MagRelax                            
  Christoph Reimann      : Effective Core Potentials                     
  Marius Retegan         : Local ZFS, SOC                                
  Christoph Riplinger    : Optimizer, TS searches, QM/MM, DLPNO-CCSD(T), (RO)-DLPNO pert. Triples 
  Michael Roemelt        : Original ROCIS implementation, recursive CI coupling coefficients
  Masaaki Saitow         : Open-shell DLPNO-CCSD energy and density      
  Barbara Sandhoefer     : DKH picture change effects                    
  Yorick L. A. Schmerwitz: GMF and freeze-and-release deltaSCF, NEB S-IDPP initial path                    
  Kantharuban Sivalingam : CASSCF convergence/infrastructure, NEVPT2, NEVPT3, NEVPT4(SD), FIC-MRCI and CEPA variants
  Bernardo de Souza      : ESD, SOC TD-DFT                               
  Georgi L. Stoychev     : AutoAux, RI-MP2 NMR, DLPNO-MP2 response, X2C  
  Van Anh Tran           : RI-MP2 g-tensors                              
  Willem Van den Heuvel  : Paramagnetic NMR                              
  Zikuan Wang            : NOTCH, Electric field optimization            
  Frank Wennmohs         : Technical directorship and infrastructure     
  Hang Xu                : AUTO-CI-Response properties                   
                                                                         
[FACCTs GmbH]                                                            
  Markus Bursch, Nicolas Foglia, Miquel Garcia-Rates, Ingolf Harden, Hagen Neugebauer, Anastasios Papadopoulos, 
  Christoph Riplinger, Bernardo de Souza, Georgi L. Stoychev                                                    
                                                                 
  APM, various basis sets, CI-OPT, improved COSX, DLPNO-Multilevel,           
  DOCKER, DRACO, updates on ESD, Fragmentator, GOAT, IRC, LR-CPCM, L-BFGS, MBIS, meta-GGA TD-DFT gradient, ML-optimized integration grids, 
  MM, NACMEs, nearIR, NEB, NEB-TS, NL-DFT gradient (VV10), 2- and 3-layer-ONIOM, interface openCOSMO-RS, QMMM,   
  Crystal-QMMM, RESP, rigid body optimization, SF, symmetry and pop. for TD-DFT, various functionals, SOLVATOR                                   
                                                                         
[Other institutions]                                                     
  V. Asgeirsson          : NEB                                           
  Christoph Bannwarth    : sTDA-DFT, sTD-DFT, PBEh-3c, B97-3c, D3        
  Giovanni Bistoni       : ETS/NOCV, ADLD/ADEX, COVALED                  
  Martin Brehm           : Molecular dynamics                            
  Ronald Cardenas        : ETS/NOCV                                      
  Martina Colucci        : COVALED                                       
  Sebastian Ehlert       : rSCAN, r2SCAN, r2SCAN-3c, D4, dhf basis sets  
  Marvin Friede          : D4 for Fr, Ra, Ac-Lr                          
  Lars Goerigk           : TD-DFT with DH, B97 family of functionals     
  Stefan Grimme          : VdW corrections, initial TS optimization, DFT functionals, gCP, sTDA/sTD-DF 
  Waldemar Hujo          : DFT-NL                                        
  H. Jonsson             : NEB                                           
  Holger Kruse           : gCP                                           
  Marcel Mueller         : wB97X-3c, vDZP basis set                      
  Hagen Neugebauer       : wr2SCAN, Native XTB                           
  Gianluca Regni         : ADLD/ADEX                                     
  Tobias Risthaus        : pre 6.0 range-separated hybrid DFT and stability analysis
  Lukas Wittmann         : regularized MP2, r2SCAN double-hybrids, wr2SCAN        
                                                                         
We gratefully acknowledge several colleagues who have allowed us to      
interface, adapt or use parts of their codes:                            
  Ed Valeev, F. Pavosevic, A. Kumar             : LibInt (2-el integral package), F12 methods 
  Garnet Chan, S. Sharma, J. Yang, R. Olivares  : DMRG                   
  Ulf Ekstrom                                   : XCFun DFT Library      
  Mihaly Kallay                                 : mrcc  (arbitrary order and MRCC methods)
  Frank Weinhold                                : gennbo (NPA and NBO analysis)           
  Simon Mueller                                 : openCOSMO-RS                            
  Christopher J. Cramer and Donald G. Truhlar   : smd solvation model                     
  S Lehtola, MJT Oliveira, MAL Marques          : LibXC Library                           
  Liviu Ungur et al                             : ANISO software                          


 Your calculation uses the libint2 library for the computation of 2-el integrals
 For citations please refer to: http://libint.valeyev.net

 Your ORCA version has been built with support for libXC version: 7.0.0
 For citations please refer to: https://libxc.gitlab.io

 This ORCA versions uses:
   CBLAS   interface :  Fast vector & matrix operations
   LAPACKE interface :  Fast linear algebra routines
   SCALAPACK package :  Parallel linear algebra routines
   Shared memory     :  Shared parallel matrices
   BLAS/LAPACK       :  OpenBLAS 0.3.29  USE64BITINT DYNAMIC_ARCH NO_AFFINITY Haswell SINGLE_THREADED
        Core in use  :  Haswell
   Copyright (c) 2011-2014, The OpenBLAS Project


  ***********************************
  * Starting time: Sat Jul  4 18:05:06 2026
  * Host name:     steezy
  * Process ID:    1141237
  * Working dir.:  /home/jannes/chlorophyll-ladder/006-core-ladder/chlorin/03_tddft_ch2cl2/m062x
  ***********************************

NOTE: MaxCore=3000 MB was set to SCF,MP2,MDCI,CIPSI,MRCI,RASCI and CIS
      => If you want to overwrite this, your respective input block should be placed after the MaxCore statement


***************************************
The coordinates will be read from file: /home/jannes/chlorophyll-ladder/006-core-ladder/chlorin/01_opt/chlorin_opt_b3lypd4_tzvp.xyz
***************************************


XCFun DFT library Copyright 2009-2010 Ulf Ekstrom and contributors.
See http://admol.org/xcfun for more information.
This is free software; see the source code for copying conditions.
There is ABSOLUTELY NO WARRANTY; not even for MERCHANTABILITY or FITNESS FOR A PARTICULAR PURPOSE.
For details see the documentation.
Scientific users of this library should cite U. Ekstrom, L. Visscher, R. Bast, A. J. Thorvaldsen and K. Ruud;
J.Chem.Theor.Comp. 2010, DOI: 10.1021/ct100117s
XCFun Version 0.99 

================================================================================

----- Orbital basis set information -----
Your calculation utilizes the basis: def2-TZVP
   F. Weigend and R. Ahlrichs, Phys. Chem. Chem. Phys. 7, 3297 (2005).

----- AuxJ basis set information -----
Your calculation utilizes the auxiliary basis: def2/J
   H-Rn: F. Weigend, Phys. Chem. Chem. Phys. 8, 1057 (2006).
   Fr-Lr: K. Eichkorn, F. Weigend, O. Treutler, R. Ahlrichs; Theor. Chem. Acc. 97, 119 (1997).

================================================================================
                                        WARNINGS
                       Please study these warnings very carefully!
================================================================================

WARNING: Old DensityContainer found on disk!
         Will remove this file - 
         If you want to keep old densities, please start your calculation with a different basename. 

WARNING: Functional chosen is sensitive to the integration grid.
         DEFGRID3 seems to be a minimum grid for robust results!

WARNING: CIS/ROCIS methods need fully converged wavefunctions
  ===> : Setting SCFConvForced true
         You can overwrite this default with %scf ConvForced false 


================================================================================
                                       INPUT FILE
================================================================================
NAME = tddft.inp
|  1> %pal nprocs 4 end
|  2> %maxcore 3000
|  3> ! M062X def2-TZVP def2/J RIJCOSX DefGrid3 TightSCF CPCM(CH2Cl2)
|  4> %tddft
|  5>   nroots 30
|  6>   tda false
|  7>   triplets false
|  8> end
|  9> * xyzfile 0 1 /home/jannes/chlorophyll-ladder/006-core-ladder/chlorin/01_opt/chlorin_opt_b3lypd4_tzvp.xyz
| 10> 
| 11>                          ****END OF INPUT****
================================================================================

                       ****************************
                       * Single Point Calculation *
                       ****************************

---------------------------------
CARTESIAN COORDINATES (ANGSTROEM)
---------------------------------
  N      1.618227    1.329539    0.010388
  N     -1.347453    1.611774   -0.002562
  N      1.299801   -1.633340    0.016623
  N     -1.594487   -1.292971    0.004403
  C      2.883781    3.350039   -0.011841
  C      3.851475    2.163431    0.042672
  C      1.523344    2.671646   -0.001121
  C      2.913786    0.967045    0.025095
  C      0.347597    3.398417   -0.007862
  C      3.389899   -0.330654    0.029706
  C     -0.962451    2.916936   -0.005688
  C      2.655655   -1.517560    0.022965
  C     -2.719608    1.507344   -0.001102
  C      0.922713   -2.956749    0.011975
  C     -2.159571    3.698056   -0.005314
  C      3.181168   -2.846885    0.021102
  C     -3.225682    2.840557   -0.002326
  C      2.127534   -3.719625    0.014237
  C     -3.433390    0.324889    0.000791
  C     -0.378790   -3.419108    0.006952
  C     -2.915388   -0.973209    0.002604
  C     -1.546550   -2.651173    0.004333
  C     -3.736898   -2.165706    0.001564
  C     -2.879748   -3.216467    0.002261
  H      3.006350    3.950792   -0.915543
  H      2.991185    4.026676    0.837789
  H      4.461299    2.159809    0.948624
  H      4.539467    2.135032   -0.804231
  H      0.441481    4.477104   -0.014399
  H      4.465522   -0.454657    0.038870
  H     -0.727891    0.815001   -0.008146
  H      0.642943   -0.867003    0.022426
  H     -2.180284    4.775793   -0.006376
  H      4.232912   -3.083014    0.023985
  H     -4.273839    3.092971   -0.000559
  H      2.164848   -4.797103    0.010566
  H     -4.511820    0.421664    0.000686
  H     -0.499907   -4.495064    0.005089
  H     -4.816074   -2.182825    0.000119
  H     -3.113257   -4.270204    0.001847

----------------------------
CARTESIAN COORDINATES (A.U.)
----------------------------
  NO LB      ZA    FRAG     MASS         X           Y           Z
   0 N     7.0000    0    14.007    3.058005    2.512465    0.019630
   1 N     7.0000    0    14.007   -2.546317    3.045812   -0.004842
   2 N     7.0000    0    14.007    2.456268   -3.086566    0.031414
   3 N     7.0000    0    14.007   -3.013143   -2.443361    0.008320
   4 C     6.0000    0    12.011    5.449556    6.330657   -0.022376
   5 C     6.0000    0    12.011    7.278233    4.088291    0.080639
   6 C     6.0000    0    12.011    2.878702    5.048679   -0.002119
   7 C     6.0000    0    12.011    5.506257    1.827451    0.047422
   8 C     6.0000    0    12.011    0.656864    6.422078   -0.014857
   9 C     6.0000    0    12.011    6.405982   -0.624846    0.056137
  10 C     6.0000    0    12.011   -1.818769    5.512210   -0.010750
  11 C     6.0000    0    12.011    5.018461   -2.867773    0.043397
  12 C     6.0000    0    12.011   -5.139315    2.848467   -0.002082
  13 C     6.0000    0    12.011    1.743676   -5.587446    0.022630
  14 C     6.0000    0    12.011   -4.080998    6.988313   -0.010042
  15 C     6.0000    0    12.011    6.011537   -5.379833    0.039877
  16 C     6.0000    0    12.011   -6.095656    5.367875   -0.004396
  17 C     6.0000    0    12.011    4.020456   -7.029073    0.026903
  18 C     6.0000    0    12.011   -6.488167    0.613952    0.001495
  19 C     6.0000    0    12.011   -0.715809   -6.461177    0.013137
  20 C     6.0000    0    12.011   -5.509286   -1.839098    0.004922
  21 C     6.0000    0    12.011   -2.922556   -5.009990    0.008188
  22 C     6.0000    0    12.011   -7.061713   -4.092591    0.002955
  23 C     6.0000    0    12.011   -5.441934   -6.078243    0.004272
  24 H     1.0000    0     1.008    5.681179    7.465915   -1.730125
  25 H     1.0000    0     1.008    5.652521    7.609315    1.583193
  26 H     1.0000    0     1.008    8.430634    4.081448    1.792639
  27 H     1.0000    0     1.008    8.578349    4.034626   -1.519777
  28 H     1.0000    0     1.008    0.834279    8.460500   -0.027211
  29 H     1.0000    0     1.008    8.438614   -0.859177    0.073454
  30 H     1.0000    0     1.008   -1.375514    1.540128   -0.015393
  31 H     1.0000    0     1.008    1.214987   -1.638398    0.042380
  32 H     1.0000    0     1.008   -4.120140    9.024942   -0.012049
  33 H     1.0000    0     1.008    7.999044   -5.826052    0.045325
  34 H     1.0000    0     1.008   -8.076386    5.844869   -0.001056
  35 H     1.0000    0     1.008    4.090969   -9.065210    0.019967
  36 H     1.0000    0     1.008   -8.526105    0.796830    0.001296
  37 H     1.0000    0     1.008   -0.944687   -8.494440    0.009617
  38 H     1.0000    0     1.008   -9.101061   -4.124942    0.000224
  39 H     1.0000    0     1.008   -5.883202   -8.069517    0.003490

--------------------------------
INTERNAL COORDINATES (ANGSTROEM)
--------------------------------
 N      0   0   0     0.000000000000     0.00000000     0.00000000
 N      1   0   0     2.979107177231     0.00000000     0.00000000
 N      1   2   0     2.979947476934    89.30270164     0.00000000
 N      3   1   2     2.914258339345    89.42644009     0.00000000
 C      1   2   3     2.384228044724   116.62082965   179.40054417
 C      5   1   2     1.532137048104    71.25200580   178.57442373
 C      1   2   3     1.345506053350    80.51805744   179.66763356
 C      1   2   3     1.345396342678   169.79818117   357.97022523
 C      7   1   2     1.382252298681   125.76656227     0.17933523
 C      8   1   7     1.382291464764   125.77894989   180.51229001
 C      2   1   3     1.360765532472    79.00182392   180.05957653
 C      3   1   2     1.360803573136    78.98578119   180.04479993
 C      2   1   3     1.376124714725   170.20659592     1.67778072
 C      3   1   2     1.376091434139   170.22494378     1.58550169
 C     11   2   1     1.429421146210   106.68913671   180.33444041
 C     12   3   1     1.429430588850   106.68868640   180.33209544
 C     15  11   2     1.368176069028   108.06500929     0.00000000
 C     16  12   3     1.368162905847   108.06552163   359.97694271
 C     13   2  11     1.381190206413   125.46928608   179.93536477
 C     14   3  12     1.381199138498   125.46211356   179.90588073
 C      4   3   1     1.359055651912   173.09697396   358.52859573
 C      4   3   1     1.359047366731    81.27152327   179.84264952
 C     21   4  22     1.448077190214   110.95462463     0.00000000
 C     23  21   4     1.356026040736   106.23152882     0.00000000
 H      5   1   2     1.092064297682   122.24060148   284.00745698
 H      5   1   2     1.091441479244   124.77447848    73.14241516
 H      6   5   1     1.092083663892   112.62948738   242.06014622
 H      6   5   1     1.091505582205   112.99487653   120.72109284
 H      9   7   1     1.082784308159   116.74849562   179.84380395
 H     10   8   1     1.082785443229   116.72449600   179.81241072
 H      2   1   3     1.009324809386    46.69870077   359.20679780
 H      3   1   2     1.009340734249    46.73724690   359.18425706
 H     15  11   2     1.077936930670   124.22541381   179.93656368
 H     16  12   3     1.077928105275   124.22340859   179.93499516
 H     17  15  11     1.078122825118   127.64953771   179.95286184
 H     18  16  12     1.078129368274   127.65243145   179.96019912
 H     19  13   2     1.082763583588   115.98919081   180.06319439
 H     20  14   3     1.082753468896   115.98031610   180.08105506
 H     23  21   4     1.079313067754   125.47173418   179.99943943
 H     24  23  21     1.079299692791   128.29953999   179.99981198

---------------------------
INTERNAL COORDINATES (A.U.)
---------------------------
 N      0   0   0     0.000000000000     0.00000000     0.00000000
 N      1   0   0     5.629696688565     0.00000000     0.00000000
 N      1   2   0     5.631284624876    89.30270164     0.00000000
 N      3   1   2     5.507150144858    89.42644009     0.00000000
 C      1   2   3     4.505538045342   116.62082965   179.40054417
 C      5   1   2     2.895319420551    71.25200580   178.57442373
 C      1   2   3     2.542637952364    80.51805744   179.66763356
 C      1   2   3     2.542430629240   169.79818117   357.97022523
 C      7   1   2     2.612078292490   125.76656227     0.17933523
 C      8   1   7     2.612152305660   125.77894989   180.51229001
 C      2   1   3     2.571474188851    79.00182392   180.05957653
 C      3   1   2     2.571546075289    78.98578119   180.04479993
 C      2   1   3     2.600498836950   170.20659592     1.67778072
 C      3   1   2     2.600435945757   170.22494378     1.58550169
 C     11   2   1     2.701214496373   106.68913671   180.33444041
 C     12   3   1     2.701232340376   106.68868640   180.33209544
 C     15  11   2     2.585478073448   108.06500929     0.00000000
 C     16  12   3     2.585453198641   108.06552163   359.97694271
 C     13   2  11     2.610071228975   125.46928608   179.93536477
 C     14   3  12     2.610088108170   125.46211356   179.90588073
 C      4   3   1     2.568242982872   173.09697396   358.52859573
 C      4   3   1     2.568227326149    81.27152327   179.84264952
 C     21   4  22     2.736469310283   110.95462463     0.00000000
 C     23  21   4     2.562517847457   106.23152882     0.00000000
 H      5   1   2     2.063702443253   122.24060148   284.00745698
 H      5   1   2     2.062525486972   124.77447848    73.14241516
 H      6   5   1     2.063739040086   112.62948738   242.06014622
 H      6   5   1     2.062646624014   112.99487653   120.72109284
 H      9   7   1     2.046165804527   116.74849562   179.84380395
 H     10   8   1     2.046167949498   116.72449600   179.81241072
 H      2   1   3     1.907347469912    46.69870077   359.20679780
 H      3   1   2     1.907377563542    46.73724690   359.18425706
 H     15  11   2     2.037005588605   124.22541381   179.93656368
 H     16  12   3     2.036988911026   124.22340859   179.93499516
 H     17  15  11     2.037356878203   127.64953771   179.95286184
 H     18  16  12     2.037369242976   127.65243145   179.96019912
 H     19  13   2     2.046126640764   115.98919081   180.06319439
 H     20  14   3     2.046107526767   115.98031610   180.08105506
 H     23  21   4     2.039606110817   125.47173418   179.99943943
 H     24  23  21     2.039580835801   128.29953999   179.99981198

---------------------
BASIS SET INFORMATION
---------------------
There are 3 groups of distinct atoms

 Group   1 Type N   : 11s6p2d1f contracted to 5s3p2d1f pattern {62111/411/11/1}
 Group   2 Type C   : 11s6p2d1f contracted to 5s3p2d1f pattern {62111/411/11/1}
 Group   3 Type H   : 5s1p contracted to 3s1p pattern {311/1}

Atom   0N    basis set group =>   1
Atom   1N    basis set group =>   1
Atom   2N    basis set group =>   1
Atom   3N    basis set group =>   1
Atom   4C    basis set group =>   2
Atom   5C    basis set group =>   2
Atom   6C    basis set group =>   2
Atom   7C    basis set group =>   2
Atom   8C    basis set group =>   2
Atom   9C    basis set group =>   2
Atom  10C    basis set group =>   2
Atom  11C    basis set group =>   2
Atom  12C    basis set group =>   2
Atom  13C    basis set group =>   2
Atom  14C    basis set group =>   2
Atom  15C    basis set group =>   2
Atom  16C    basis set group =>   2
Atom  17C    basis set group =>   2
Atom  18C    basis set group =>   2
Atom  19C    basis set group =>   2
Atom  20C    basis set group =>   2
Atom  21C    basis set group =>   2
Atom  22C    basis set group =>   2
Atom  23C    basis set group =>   2
Atom  24H    basis set group =>   3
Atom  25H    basis set group =>   3
Atom  26H    basis set group =>   3
Atom  27H    basis set group =>   3
Atom  28H    basis set group =>   3
Atom  29H    basis set group =>   3
Atom  30H    basis set group =>   3
Atom  31H    basis set group =>   3
Atom  32H    basis set group =>   3
Atom  33H    basis set group =>   3
Atom  34H    basis set group =>   3
Atom  35H    basis set group =>   3
Atom  36H    basis set group =>   3
Atom  37H    basis set group =>   3
Atom  38H    basis set group =>   3
Atom  39H    basis set group =>   3
---------------------------------
AUXILIARY/J BASIS SET INFORMATION
---------------------------------
There are 3 groups of distinct atoms

 Group   1 Type N   : 12s5p4d2f1g contracted to 6s4p3d1f1g pattern {711111/2111/211/2/1}
 Group   2 Type C   : 12s5p4d2f1g contracted to 6s4p3d1f1g pattern {711111/2111/211/2/1}
 Group   3 Type H   : 5s2p1d contracted to 3s1p1d pattern {311/2/1}

Atom   0N    basis set group =>   1
Atom   1N    basis set group =>   1
Atom   2N    basis set group =>   1
Atom   3N    basis set group =>   1
Atom   4C    basis set group =>   2
Atom   5C    basis set group =>   2
Atom   6C    basis set group =>   2
Atom   7C    basis set group =>   2
Atom   8C    basis set group =>   2
Atom   9C    basis set group =>   2
Atom  10C    basis set group =>   2
Atom  11C    basis set group =>   2
Atom  12C    basis set group =>   2
Atom  13C    basis set group =>   2
Atom  14C    basis set group =>   2
Atom  15C    basis set group =>   2
Atom  16C    basis set group =>   2
Atom  17C    basis set group =>   2
Atom  18C    basis set group =>   2
Atom  19C    basis set group =>   2
Atom  20C    basis set group =>   2
Atom  21C    basis set group =>   2
Atom  22C    basis set group =>   2
Atom  23C    basis set group =>   2
Atom  24H    basis set group =>   3
Atom  25H    basis set group =>   3
Atom  26H    basis set group =>   3
Atom  27H    basis set group =>   3
Atom  28H    basis set group =>   3
Atom  29H    basis set group =>   3
Atom  30H    basis set group =>   3
Atom  31H    basis set group =>   3
Atom  32H    basis set group =>   3
Atom  33H    basis set group =>   3
Atom  34H    basis set group =>   3
Atom  35H    basis set group =>   3
Atom  36H    basis set group =>   3
Atom  37H    basis set group =>   3
Atom  38H    basis set group =>   3
Atom  39H    basis set group =>   3

Checking for AutoStart:
The File: tddft.gbw exists
Trying to determine its content:
     ... Fine, the file contains calculation information
     ... Fine, the calculation information was read
     ... Fine, the file contains a basis set
     ... Fine, the basis set was read
     ... Fine, the file contains a geometry
     ... Fine, the geometry was read
     ... Fine, the file contains a set of orbitals
     ... Fine, the orbitals can be read
     => possible old guess file was deleted
     => GBW file was renamed to GES file
     => GES file is set as startup file
     => Guess is set to MORead
     ... now leaving AutoStart



           ************************************************************
           *        Program running with 4 parallel MPI-processes     *
           *              working on a common directory               *
           ************************************************************
------------------------------------------------------------------------------
                             ORCA STARTUP CALCULATIONS
                           -- RI-GTO INTEGRALS CHOSEN --
------------------------------------------------------------------------------
------------------------------------------------------------------------------
                   ___                                                        
                  /   \      - P O W E R E D   B Y -                         
                 /     \                                                     
                 |  |  |   _    _      __       _____    __    __             
                 |  |  |  | |  | |    /  \     |  _  \  |  |  /  |          
                  \  \/   | |  | |   /    \    | | | |  |  | /  /          
                 / \  \   | |__| |  /  /\  \   | |_| |  |  |/  /          
                |  |  |   |  __  | /  /__\  \  |    /   |      \           
                |  |  |   | |  | | |   __   |  |    \   |  |\   \          
                \     /   | |  | | |  |  |  |  | |\  \  |  | \   \       
                 \___/    |_|  |_| |__|  |__|  |_| \__\ |__|  \__/        
                                                                              
                      - O R C A' S   B I G   F R I E N D -                    
                                      &                                       
                       - I N T E G R A L  F E E D E R -                       
                                                                              
 v1 FN, 2020, v2 2021, v3 2022-2024                                           
------------------------------------------------------------------------------


----------------------
SHARK INTEGRAL PACKAGE
----------------------

Number of atoms                             ...     40
Number of basis functions                   ...    840
Number of shells                            ...    328
Maximum angular momentum                    ...      3
Integral batch strategy                     ... SHARK/LIBINT Hybrid
RI-J (if used) integral strategy            ... SPLIT-RIJ (Revised 2003 algorithm where possible)
Printlevel                                  ...      1
Contraction scheme used                     ... SEGMENTED contraction
Prescreening option                         ... SCHWARTZ
   Thresh                                   ... 2.500e-11
   Tcut                                     ... 2.500e-12
   Tpresel                                  ... 2.500e-12 
Coulomb Range Separation                    ... NOT USED
Exchange Range Separation                   ... NOT USED
Multipole approximations                    ... NOT USED
Finite Nucleus Model                        ... NOT USED
CABS basis                                  ... NOT available
Auxiliary Coulomb fitting basis             ... AVAILABLE
   # of basis functions in Aux-J            ...   1352
   # of shells in Aux-J                     ...    440
   Maximum angular momentum in Aux-J        ...      4
Auxiliary J/K fitting basis                 ... NOT available
Auxiliary Correlation fitting basis         ... NOT available
Auxiliary 'external' fitting basis          ... NOT available

Checking pre-screening integrals            ... done (  0.0 sec) Dimension = 328
   => SHARK Basis and OBASIS are compatible. Storing Pre-screening
Shell pair information
Shell pair cut-off parameter TPreSel        ...   2.5e-12
Total number of shell pairs                 ...     53956
Shell pairs after pre-screening             ...     37824
Total number of primitive shell pairs       ...    166752
Primitive shell pairs kept                  ...     76791
          la=0 lb=0:   9536 shell pairs
          la=1 lb=0:  10889 shell pairs
          la=1 lb=1:   3113 shell pairs
          la=2 lb=0:   5384 shell pairs
          la=2 lb=1:   3181 shell pairs
          la=2 lb=2:    840 shell pairs
          la=3 lb=0:   2501 shell pairs
          la=3 lb=1:   1492 shell pairs
          la=3 lb=2:    718 shell pairs
          la=3 lb=3:    170 shell pairs

Checking whether 4 symmetric matrices of dimension 840 fit in memory
:Max Core in MB      =   3000.00
 MB in use           =     49.17
 MB left             =   2950.83
 MB needed           =     10.78
 Data fit in memory  = YES
Calculating RI/J V-Matrix + Cholesky decomp.... done (  0.2 sec)
Calculating Nuclear repulsion               ... done (  0.0 sec) ENN=   1892.562551637881 Eh

Diagonalization of the overlap matrix:
Smallest eigenvalue                        ... 1.002e-05
Time for diagonalization                   ...    0.275 sec
Threshold for overlap eigenvalues          ... 1.000e-07
Number of eigenvalues below threshold      ... 0
Time for construction of square roots      ...    0.170 sec
Total time needed                          ...    0.457 sec

-------------------
DFT GRID GENERATION
-------------------

General Integration Accuracy     IntAcc      ... 4.959
Radial Grid Type                 RadialGrid  ... OptM3 with GC (2021)
Angular Grid (max. ang.)         AngularGrid ... 6 (Lebedev-590)
Angular grid pruning method      GridPruning ... 4 (adaptive)
Weight generation scheme         WeightScheme... mBecke (2022)
Basis function cutoff            BFCut       ... 1.0000e-11
Integration weight cutoff        WCut        ... 1.0000e-14
Partially contracted basis set               ... off
Rotationally invariant grid construction     ... off
Angular grids for H and He will be reduced by one unit

Total number of grid points                  ...   475615
Total number of batches                      ...     7453
Average number of points per batch           ...       63
Average number of grid points per atom       ...    11890

--------------------
COSX GRID GENERATION
--------------------

GRIDX 1
-------
General Integration Accuracy     IntAcc      ... 4.020
Radial Grid Type                 RadialGrid  ... OptM3 with GC (2021)
Angular Grid (max. ang.)         AngularGrid ... 2 (Lebedev-110)
Angular grid pruning method      GridPruning ... 4 (adaptive)
Weight generation scheme         WeightScheme... mBecke (2022)
Basis function cutoff            BFCut       ... 1.0000e-11
Integration weight cutoff        WCut        ... 1.0000e-14
Partially contracted basis set               ... on
Rotationally invariant grid construction     ... off
Angular grids for H and He will be reduced by one unit

Total number of grid points                  ...    53828
Total number of batches                      ...      442
Average number of points per batch           ...      121
Average number of grid points per atom       ...     1346
UseSFitting                                  ... on

GRIDX 2
-------
General Integration Accuracy     IntAcc      ... 4.338
Radial Grid Type                 RadialGrid  ... OptM3 with GC (2021)
Angular Grid (max. ang.)         AngularGrid ... 3 (Lebedev-194)
Angular grid pruning method      GridPruning ... 4 (adaptive)
Weight generation scheme         WeightScheme... mBecke (2022)
Basis function cutoff            BFCut       ... 1.0000e-11
Integration weight cutoff        WCut        ... 1.0000e-14
Partially contracted basis set               ... on
Rotationally invariant grid construction     ... off
Angular grids for H and He will be reduced by one unit

Total number of grid points                  ...   117983
Total number of batches                      ...      942
Average number of points per batch           ...      125
Average number of grid points per atom       ...     2950
UseSFitting                                  ... on

GRIDX 3
-------
General Integration Accuracy     IntAcc      ... 4.871
Radial Grid Type                 RadialGrid  ... OptM3 with GC (2021)
Angular Grid (max. ang.)         AngularGrid ... 4 (Lebedev-302)
Angular grid pruning method      GridPruning ... 4 (adaptive)
Weight generation scheme         WeightScheme... mBecke (2022)
Basis function cutoff            BFCut       ... 1.0000e-11
Integration weight cutoff        WCut        ... 1.0000e-14
Partially contracted basis set               ... on
Rotationally invariant grid construction     ... off
Angular grids for H and He will be reduced by one unit

Total number of grid points                  ...   218991
Total number of batches                      ...     1733
Average number of points per batch           ...      126
Average number of grid points per atom       ...     5475
UseSFitting                                  ... on
Grids setup in  20.8 sec
Initializing property integral containers    ... done (  0.0 sec)

SHARK setup successfully completed in  22.6 seconds

Maximum memory used throughout the entire STARTUP-calculation: 151.3 MB


           ************************************************************
           *        Program running with 4 parallel MPI-processes     *
           *              working on a common directory               *
           ************************************************************
-------------------------------------------------------------------------------
                                 ORCA GUESS
                   Start orbitals & Density for SCF / CASSCF
-------------------------------------------------------------------------------

------------
SCF SETTINGS
------------
Hamiltonian:
 Density Functional     Method          .... DFT(GTOs)
 Exchange Functional    Exchange        .... M062X
 Correlation Functional Correlation     .... M062X
 Gradients option       PostSCFGGA      .... off
 Hybrid DFT is turned on
   Fraction HF Exchange ScalHFX         ....  0.540000
   Scaling of DF-GGA-X  ScalDFX         ....  0.460000
   Scaling of DF-GGA-C  ScalDFC         ....  1.000000
   Scaling of DF-LDA-C  ScalLDAC        ....  1.000000
   Perturbative correction              ....  0.000000
 RI-approximation to the Coulomb term is turned on
   Number of AuxJ basis functions       .... 1352
   RIJ-COSX (HFX calculated with COS-X)).... on


General Settings:
 Integral files         IntName         .... tddft
 Hartree-Fock type      HFTyp           .... RHF
 Total Charge           Charge          ....    0
 Multiplicity           Mult            ....    1
 Number of Electrons    NEL             ....  164
 Basis Dimension        Dim             ....  840
 Nuclear Repulsion      ENuc            ....   1892.5625516379 Eh

Convergence Acceleration:
 AO-DIIS                CNVDIIS         .... on
   Start iteration      DIISMaxIt       ....    12
   Startup error        DIISStart       ....  0.200000
   # of expansion vecs  DIISMaxEq       ....     5
   Bias factor          DIISBfac        ....   1.050
   Max. coefficient     DIISMaxC        ....  10.000
 MO-DIIS                CNVKDIIS        .... off
 Trust-Rad. Augm. Hess. CNVTRAH         .... auto
   Auto Start mean grad. ratio tolernc. ....  1.125000
   Auto Start start iteration           ....     1
   Auto Start num. interpolation iter.  ....    10
   Max. Number of Micro iterations      ....    24
   Max. Number of Macro iterations      .... Maxiter - #DIIS iter
   Number of Davidson start vectors     ....     2
   Converg. threshold    (grad. norm)   ....   1.000e-05
   Grad. Scal. Fac. for Micro threshold ....   0.100
   Minimum threshold for Micro iter.    ....   1.000e-02
   NR start threshold (gradient norm)   ....   1.000e-04
   Initial trust radius                 ....   0.400
   Minimum AH scaling param. (alpha)    ....   1.000
   Maximum AH scaling param. (alpha)    .... 1000.000
   Quad. conv. algorithm                .... NR
   White noise on init. David. guess    .... on
   Maximum white noise                  ....   0.010
   Pseudo random numbers                .... off
   Inactive MOs                         .... canonical
   Orbital update algorithm             .... Taylor
   Preconditioner                       .... Diag
   Full preconditioner red. dimension   ....   250
 SOSCF                 CNVSOSCF           .... on
   Start iteration     SOSCFMaxIt         ....   150
   Startup grad/error  SOSCFStart         ....  0.003300
   Hessian update      SOSCFHessUp        .... L-BFGS
   Autom. constraints  SOSCFAutoConstrain .... off
 Level Shifting         CNVShift        .... on
   Level shift para.    LevelShift      ....    0.2500
   Turn off err/grad.   ShiftErr        ....    0.0010
 Zerner damping         CNVZerner       .... off
 Static damping         CNVDamp         .... on
   Fraction old density DampFac         ....    0.7000
   Max. Damping (<1)    DampMax         ....    0.9800
   Min. Damping (>=0)   DampMin         ....    0.0000
   Turn off err/grad.   DampErr         ....    0.1000

SCF Procedure:
 Maximum # iterations   MaxIter         ....   125
 SCF integral mode      SCFMode         .... Direct
   Integral package                     .... SHARK and LIBINT hybrid scheme
 Reset frequency        DirectResetFreq ....    20
 Integral Threshold     Thresh          ....  2.500e-11 Eh
 Primitive CutOff       TCut            ....  2.500e-12 Eh

Convergence Tolerance:
 Convergence Check Mode ConvCheckMode   .... Total+1el-Energy
 Convergence forced     ConvForced      .... 1
 Energy Change          TolE            ....  1.000e-08 Eh
 1-El. energy change                    ....  1.000e-05 Eh
 Orbital Gradient       TolG            ....  1.000e-05
 Orbital Rotation angle TolX            ....  1.000e-05
 DIIS Error             TolErr          ....  5.000e-07

---------------------
INITIAL GUESS: MOREAD
---------------------
Guess MOs are being read from file: tddft.ges
Input Geometry matches current geometry (good)
Input basis set matches current basis set (good)
Occupation numbers will be reassigned to an Aufbau configuration
MOs were renormalized
MOs were reorthogonalized (Cholesky)
                      ------------------
                      INITIAL GUESS DONE (   0.8 sec)
                      ------------------
             **** ENERGY FILE WAS UPDATED (tddft.en.tmp) ****
Finished Guess after   1.4 sec
Maximum memory used throughout the entire GUESS-calculation: 93.0 MB


           ************************************************************
           *        Program running with 4 parallel MPI-processes     *
           *              working on a common directory               *
           ************************************************************

-------------------------------------------------------------------------------------------
                                      ORCA LEAN-SCF
                              memory conserving SCF solver
-------------------------------------------------------------------------------------------

--------------------
CPCM SOLVATION MODEL
--------------------
CPCM parameters:
  Epsilon                                         ...       8.9990
  Refrac                                          ...       1.4242
  Rsolv                                           ...       1.3000
  Surface type                                    ... GAUSSIAN VDW
  Discretization scheme                           ... Constant charge density
    Threshold for H atoms                         ...       5.0000 (charges/Ang^2)
    Threshold for non-H atoms                     ...       5.0000 (charges/Ang^2)
  Epsilon function type                           ...         CPCM
Solvent:                                          ... DICHLOROMETHANE
Radii:
  Scheme                                          ... Element-dependent radii
  Radius for N  used is    3.5149 Bohr (=   1.8600 Ang.)
  Radius for C  used is    3.8550 Bohr (=   2.0400 Ang.)
  Radius for H  used is    2.4944 Bohr (=   1.3200 Ang.)
Calculating surface                               ...        done! (  0.0s)
Cavity surface points                             ...         3539
Cavity Volume                                     ...    2470.9683
Cavity Surface-area                               ...    1207.5649
Calculating surface distance matrix               ...        done! (  0.5s)
Performing Cholesky decomposition & store         ...        done! (  1.1s)
Overall time for CPCM initialization              ...                 1.6s

----------------------------------------D-I-I-S--------------------------------------------
Iteration    Energy (Eh)           Delta-E    RMSDP     MaxDP     DIISErr   Damp  Time(sec)
-------------------------------------------------------------------------------------------
               ***  Starting incremental Fock matrix formation  ***
                              *** Initializing SOSCF ***
---------------------------------------S-O-S-C-F--------------------------------------
Iteration    Energy (Eh)           Delta-E    RMSDP     MaxDP     MaxGrad    Time(sec)
--------------------------------------------------------------------------------------
    1    -990.7269560475606340     0.00e+00  2.84e-06  5.41e-05  3.42e-07   115.2
               *** Restarting incremental Fock matrix formation ***
    2    -990.7269560473732781     1.87e-10  6.19e-07  1.21e-05  2.85e-07   134.1
                  *** Gradient check signals convergence ***

               *****************************************************
               *                     SUCCESS                       *
               *           SCF CONVERGED AFTER   2 CYCLES          *
               *****************************************************

Recomputing exchange energy using gridx3       ... done (  208.273 sec)
Old exchange energy                            :    -73.418128158 Eh
New exchange energy                            :    -73.418133282 Eh
Exchange energy change after final integration :     -0.000005124 Eh
Total energy after final integration           :   -990.726961134 Eh
             **** ENERGY FILE WAS UPDATED (tddft.en.tmp) ****

----------------
TOTAL SCF ENERGY
----------------

Total Energy       :       -990.72696113394613 Eh          -26959.05118 eV

Components:
Nuclear Repulsion  :       1892.56255163788092 Eh           51499.24520 eV
Electronic Energy  :      -2883.27133533501228 Eh          -78457.80175 eV
One Electron Energy:      -5102.10213841665609 Eh         -138835.25743 eV
Two Electron Energy:       2218.83080308164381 Eh           60377.45568 eV
CPCM Dielectric    :         -0.01817231238094 Eh              -0.49449 eV

Virial components:
Potential Energy   :      -1976.53952119742257 Eh          -53784.37472 eV
Kinetic Energy     :        985.81256006347644 Eh           26825.32353 eV
Virial Ratio       :          2.00498512726411

DFT components:
N(Alpha)           :       81.999987514542 electrons
N(Beta)            :       81.999987514542 electrons
N(Total)           :      163.999975029085 electrons
E(XC)              :      -68.589340415596 Eh       

CPCM Solvation Model Properties:
Surface-charge          :         -0.03647341228693
Corrected charge        :          0.00000000000000
Outlying charge corr.   :          0.00006321360358 Eh               0.00172 eV
Free-energy (cav+disp)  :  This term is not implemented in the current solvation scheme

---------------
SCF CONVERGENCE
---------------

  Last Energy change         ...   -1.8736e-10  Tolerance :   1.0000e-08
  Last MAX-Density change    ...    1.2075e-05  Tolerance :   1.0000e-07
  Last RMS-Density change    ...    6.1911e-07  Tolerance :   5.0000e-09
  Last DIIS Error            ...    1.6231e-06  Tolerance :   5.0000e-07
  Last Orbital Gradient      ...    2.8463e-07  Tolerance :   1.0000e-05
  Last Orbital Rotation      ...    1.1925e-06  Tolerance :   1.0000e-05


----------------
ORBITAL ENERGIES
----------------

  NO   OCC          E(Eh)            E(eV) 
   0   2.0000     -14.790503      -402.4700 
   1   2.0000     -14.790489      -402.4697 
   2   2.0000     -14.749622      -401.3576 
   3   2.0000     -14.730107      -400.8266 
   4   2.0000     -10.597289      -288.3669 
   5   2.0000     -10.597283      -288.3667 
   6   2.0000     -10.587040      -288.0880 
   7   2.0000     -10.587007      -288.0871 
   8   2.0000     -10.586976      -288.0863 
   9   2.0000     -10.586969      -288.0861 
  10   2.0000     -10.567572      -287.5583 
  11   2.0000     -10.567538      -287.5573 
  12   2.0000     -10.556898      -287.2678 
  13   2.0000     -10.556873      -287.2671 
  14   2.0000     -10.552142      -287.1384 
  15   2.0000     -10.552137      -287.1382 
  16   2.0000     -10.546958      -286.9973 
  17   2.0000     -10.546954      -286.9972 
  18   2.0000     -10.540626      -286.8250 
  19   2.0000     -10.540619      -286.8248 
  20   2.0000     -10.539782      -286.8021 
  21   2.0000     -10.539417      -286.7921 
  22   2.0000     -10.534106      -286.6476 
  23   2.0000     -10.533119      -286.6207 
  24   2.0000      -1.107465       -30.1356 
  25   2.0000      -1.105572       -30.0841 
  26   2.0000      -1.064998       -28.9801 
  27   2.0000      -1.056376       -28.7455 
  28   2.0000      -0.925185       -25.1756 
  29   2.0000      -0.899968       -24.4894 
  30   2.0000      -0.895576       -24.3699 
  31   2.0000      -0.893809       -24.3218 
  32   2.0000      -0.892035       -24.2735 
  33   2.0000      -0.865651       -23.5556 
  34   2.0000      -0.855734       -23.2857 
  35   2.0000      -0.838459       -22.8156 
  36   2.0000      -0.820487       -22.3266 
  37   2.0000      -0.751759       -20.4564 
  38   2.0000      -0.750210       -20.4143 
  39   2.0000      -0.698198       -18.9989 
  40   2.0000      -0.688078       -18.7236 
  41   2.0000      -0.679568       -18.4920 
  42   2.0000      -0.667841       -18.1729 
  43   2.0000      -0.663123       -18.0445 
  44   2.0000      -0.658265       -17.9123 
  45   2.0000      -0.652835       -17.7645 
  46   2.0000      -0.631699       -17.1894 
  47   2.0000      -0.592316       -16.1177 
  48   2.0000      -0.579840       -15.7783 
  49   2.0000      -0.574997       -15.6465 
  50   2.0000      -0.567841       -15.4517 
  51   2.0000      -0.547964       -14.9109 
  52   2.0000      -0.529161       -14.3992 
  53   2.0000      -0.517070       -14.0702 
  54   2.0000      -0.516956       -14.0671 
  55   2.0000      -0.514783       -14.0079 
  56   2.0000      -0.512530       -13.9467 
  57   2.0000      -0.504760       -13.7352 
  58   2.0000      -0.492318       -13.3967 
  59   2.0000      -0.489152       -13.3105 
  60   2.0000      -0.478607       -13.0236 
  61   2.0000      -0.477605       -12.9963 
  62   2.0000      -0.476828       -12.9752 
  63   2.0000      -0.457881       -12.4596 
  64   2.0000      -0.444040       -12.0829 
  65   2.0000      -0.441735       -12.0202 
  66   2.0000      -0.440893       -11.9973 
  67   2.0000      -0.435587       -11.8529 
  68   2.0000      -0.432641       -11.7728 
  69   2.0000      -0.426019       -11.5926 
  70   2.0000      -0.420501       -11.4424 
  71   2.0000      -0.418058       -11.3759 
  72   2.0000      -0.388267       -10.5653 
  73   2.0000      -0.346109        -9.4181 
  74   2.0000      -0.346084        -9.4174 
  75   2.0000      -0.343831        -9.3561 
  76   2.0000      -0.332854        -9.0574 
  77   2.0000      -0.332504        -9.0479 
  78   2.0000      -0.325296        -8.8518 
  79   2.0000      -0.302046        -8.2191 
  80   2.0000      -0.241790        -6.5794 
  81   2.0000      -0.227307        -6.1853 
  82   0.0000      -0.078017        -2.1230 
  83   0.0000      -0.055920        -1.5217 
  84   0.0000       0.025676         0.6987 
  85   0.0000       0.061413         1.6711 
  86   0.0000       0.068162         1.8548 
  87   0.0000       0.084931         2.3111 
  88   0.0000       0.091764         2.4970 
  89   0.0000       0.092324         2.5123 
  90   0.0000       0.098605         2.6832 
  91   0.0000       0.098748         2.6871 
  92   0.0000       0.101981         2.7751 
*Only the first 10 virtual orbitals were printed.

                    ********************************
                    * MULLIKEN POPULATION ANALYSIS *
                    ********************************

-----------------------
MULLIKEN ATOMIC CHARGES
-----------------------
   0 N :   -0.424002
   1 N :   -0.274550
   2 N :   -0.274808
   3 N :   -0.514666
   4 C :   -0.307922
   5 C :   -0.308131
   6 C :    0.222936
   7 C :    0.223320
   8 C :   -0.361465
   9 C :   -0.360992
  10 C :    0.234541
  11 C :    0.233597
  12 C :    0.204694
  13 C :    0.205100
  14 C :   -0.232718
  15 C :   -0.232599
  16 C :   -0.221924
  17 C :   -0.222126
  18 C :   -0.318629
  19 C :   -0.318459
  20 C :    0.241287
  21 C :    0.240897
  22 C :   -0.247495
  23 C :   -0.247149
  24 H :    0.169919
  25 H :    0.170839
  26 H :    0.169943
  27 H :    0.170876
  28 H :    0.182943
  29 H :    0.182983
  30 H :    0.276918
  31 H :    0.277052
  32 H :    0.183058
  33 H :    0.182967
  34 H :    0.183873
  35 H :    0.183949
  36 H :    0.187624
  37 H :    0.187647
  38 H :    0.175356
  39 H :    0.175314
Sum of atomic charges:    0.0000000

--------------------------------
MULLIKEN REDUCED ORBITAL CHARGES
--------------------------------
  0 N s       :     3.642263  s :     3.642263
      pz      :     1.201396  p :     3.722415
      px      :     1.308665
      py      :     1.212354
      dz2     :     0.004710  d :     0.055893
      dxz     :     0.010890
      dyz     :     0.011244
      dx2y2   :     0.016642
      dxy     :     0.012407
      f0      :     0.000607  f :     0.003431
      f+1     :     0.000317
      f-1     :     0.000349
      f+2     :     0.000422
      f-2     :     0.000140
      f+3     :     0.000842
      f-3     :     0.000753

  1 N s       :     3.471837  s :     3.471837
      pz      :     1.525312  p :     3.745506
      px      :     1.115477
      py      :     1.104717
      dz2     :     0.004505  d :     0.052728
      dxz     :     0.010893
      dyz     :     0.008578
      dx2y2   :     0.013540
      dxy     :     0.015212
      f0      :     0.000897  f :     0.004479
      f+1     :     0.000695
      f-1     :     0.000724
      f+2     :     0.000496
      f-2     :     0.000070
      f+3     :     0.000751
      f-3     :     0.000846

  2 N s       :     3.472212  s :     3.472212
      pz      :     1.525320  p :     3.745385
      px      :     1.103091
      py      :     1.116974
      dz2     :     0.004510  d :     0.052732
      dxz     :     0.010866
      dyz     :     0.008602
      dx2y2   :     0.013211
      dxy     :     0.015542
      f0      :     0.000897  f :     0.004480
      f+1     :     0.000702
      f-1     :     0.000717
      f+2     :     0.000487
      f-2     :     0.000079
      f+3     :     0.000714
      f-3     :     0.000884

  3 N s       :     3.656178  s :     3.656178
      pz      :     1.279563  p :     3.799119
      px      :     1.306095
      py      :     1.213460
      dz2     :     0.005077  d :     0.055887
      dxz     :     0.010672
      dyz     :     0.011458
      dx2y2   :     0.016683
      dxy     :     0.011996
      f0      :     0.000640  f :     0.003482
      f+1     :     0.000363
      f-1     :     0.000388
      f+2     :     0.000550
      f-2     :     0.000128
      f+3     :     0.000722
      f-3     :     0.000691

  4 C s       :     3.283683  s :     3.283683
      pz      :     1.093817  p :     2.945295
      px      :     0.891591
      py      :     0.959886
      dz2     :     0.003461  d :     0.073813
      dxz     :     0.014896
      dyz     :     0.017345
      dx2y2   :     0.022160
      dxy     :     0.015952
      f0      :     0.000481  f :     0.005131
      f+1     :     0.000305
      f-1     :     0.001005
      f+2     :     0.000430
      f-2     :     0.000714
      f+3     :     0.001065
      f-3     :     0.001131

  5 C s       :     3.284216  s :     3.284216
      pz      :     1.093823  p :     2.944936
      px      :     0.956204
      py      :     0.894909
      dz2     :     0.003468  d :     0.073846
      dxz     :     0.016694
      dyz     :     0.015553
      dx2y2   :     0.020525
      dxy     :     0.017606
      f0      :     0.000483  f :     0.005133
      f+1     :     0.001021
      f-1     :     0.000288
      f+2     :     0.000454
      f-2     :     0.000691
      f+3     :     0.000843
      f-3     :     0.001353

  6 C s       :     3.142627  s :     3.142627
      pz      :     0.855093  p :     2.495703
      px      :     0.852883
      py      :     0.787727
      dz2     :     0.001402  d :     0.126329
      dxz     :     0.025782
      dyz     :     0.036418
      dx2y2   :     0.033489
      dxy     :     0.029238
      f0      :     0.001725  f :     0.012406
      f+1     :     0.000885
      f-1     :     0.001163
      f+2     :     0.001382
      f-2     :     0.000979
      f+3     :     0.004621
      f-3     :     0.001650

  7 C s       :     3.142352  s :     3.142352
      pz      :     0.855035  p :     2.495580
      px      :     0.784568
      py      :     0.855976
      dz2     :     0.001392  d :     0.126341
      dxz     :     0.032224
      dyz     :     0.029994
      dx2y2   :     0.037502
      dxy     :     0.025230
      f0      :     0.001725  f :     0.012408
      f+1     :     0.001135
      f-1     :     0.000914
      f+2     :     0.001151
      f-2     :     0.001211
      f+3     :     0.003042
      f-3     :     0.003230

  8 C s       :     3.209675  s :     3.209675
      pz      :     1.097934  p :     3.093948
      px      :     0.895437
      py      :     1.100577
      dz2     :     0.004055  d :     0.051120
      dxz     :     0.022267
      dyz     :     0.003401
      dx2y2   :     0.011806
      dxy     :     0.009590
      f0      :     0.001341  f :     0.006721
      f+1     :     0.000884
      f-1     :     0.000765
      f+2     :     0.000437
      f-2     :     0.000576
      f+3     :     0.001656
      f-3     :     0.001061

  9 C s       :     3.209117  s :     3.209117
      pz      :     1.097940  p :     3.094077
      px      :     1.091144
      py      :     0.904993
      dz2     :     0.004051  d :     0.051076
      dxz     :     0.003187
      dyz     :     0.022479
      dx2y2   :     0.011237
      dxy     :     0.010122
      f0      :     0.001341  f :     0.006722
      f+1     :     0.000768
      f-1     :     0.000881
      f+2     :     0.000445
      f-2     :     0.000568
      f+3     :     0.001089
      f-3     :     0.001628

 10 C s       :     3.124647  s :     3.124647
      pz      :     0.893665  p :     2.517268
      px      :     0.872740
      py      :     0.750863
      dz2     :     0.003684  d :     0.111233
      dxz     :     0.037530
      dyz     :     0.034690
      dx2y2   :     0.020868
      dxy     :     0.014460
      f0      :     0.002103  f :     0.012312
      f+1     :     0.001059
      f-1     :     0.001147
      f+2     :     0.001732
      f-2     :     0.001062
      f+3     :     0.003147
      f-3     :     0.002062

 11 C s       :     3.125166  s :     3.125166
      pz      :     0.893631  p :     2.517704
      px      :     0.744767
      py      :     0.879307
      dz2     :     0.003695  d :     0.111220
      dxz     :     0.037383
      dyz     :     0.034832
      dx2y2   :     0.028593
      dxy     :     0.006719
      f0      :     0.002102  f :     0.012312
      f+1     :     0.001215
      f-1     :     0.000991
      f+2     :     0.002216
      f-2     :     0.000578
      f+3     :     0.001465
      f-3     :     0.003745

 12 C s       :     3.115809  s :     3.115809
      pz      :     0.967335  p :     2.564170
      px      :     0.735471
      py      :     0.861363
      dz2     :     0.003872  d :     0.103108
      dxz     :     0.035230
      dyz     :     0.030375
      dx2y2   :     0.027914
      dxy     :     0.005717
      f0      :     0.002220  f :     0.012220
      f+1     :     0.001211
      f-1     :     0.001013
      f+2     :     0.002207
      f-2     :     0.000474
      f+3     :     0.001370
      f-3     :     0.003725

 13 C s       :     3.115487  s :     3.115487
      pz      :     0.967274  p :     2.564129
      px      :     0.855601
      py      :     0.741255
      dz2     :     0.003864  d :     0.103064
      dxz     :     0.032257
      dyz     :     0.033354
      dx2y2   :     0.020097
      dxy     :     0.013491
      f0      :     0.002220  f :     0.012220
      f+1     :     0.001069
      f-1     :     0.001154
      f+2     :     0.001726
      f-2     :     0.000956
      f+3     :     0.003152
      f-3     :     0.001943

 14 C s       :     3.243438  s :     3.243438
      pz      :     1.016918  p :     2.917383
      px      :     0.881682
      py      :     1.018783
      dz2     :     0.005560  d :     0.064937
      dxz     :     0.020352
      dyz     :     0.007788
      dx2y2   :     0.017497
      dxy     :     0.013740
      f0      :     0.001355  f :     0.006961
      f+1     :     0.000622
      f-1     :     0.001026
      f+2     :     0.000089
      f-2     :     0.001038
      f+3     :     0.001758
      f-3     :     0.001074

 15 C s       :     3.243768  s :     3.243768
      pz      :     1.016798  p :     2.916952
      px      :     1.020213
      py      :     0.879942
      dz2     :     0.005558  d :     0.064919
      dxz     :     0.009407
      dyz     :     0.018733
      dx2y2   :     0.020717
      dxy     :     0.010505
      f0      :     0.001355  f :     0.006960
      f+1     :     0.000980
      f-1     :     0.000668
      f+2     :     0.000355
      f-2     :     0.000771
      f+3     :     0.001582
      f-3     :     0.001249

 16 C s       :     3.259184  s :     3.259184
      pz      :     0.974732  p :     2.887409
      px      :     1.025770
      py      :     0.886907
      dz2     :     0.005552  d :     0.068380
      dxz     :     0.010069
      dyz     :     0.022191
      dx2y2   :     0.020416
      dxy     :     0.010153
      f0      :     0.001287  f :     0.006950
      f+1     :     0.000954
      f-1     :     0.000643
      f+2     :     0.000455
      f-2     :     0.000775
      f+3     :     0.001616
      f-3     :     0.001220

 17 C s       :     3.258997  s :     3.258997
      pz      :     0.974793  p :     2.887791
      px      :     0.887712
      py      :     1.025286
      dz2     :     0.005554  d :     0.068386
      dxz     :     0.024364
      dyz     :     0.007890
      dx2y2   :     0.017343
      dxy     :     0.013236
      f0      :     0.001287  f :     0.006952
      f+1     :     0.000598
      f-1     :     0.001000
      f+2     :     0.000119
      f-2     :     0.001111
      f+3     :     0.001723
      f-3     :     0.001114

 18 C s       :     3.230851  s :     3.230851
      pz      :     0.977523  p :     3.016830
      px      :     1.110122
      py      :     0.929185
      dz2     :     0.004280  d :     0.064511
      dxz     :     0.003179
      dyz     :     0.030675
      dx2y2   :     0.014061
      dxy     :     0.012317
      f0      :     0.001125  f :     0.006437
      f+1     :     0.000692
      f-1     :     0.000821
      f+2     :     0.000398
      f-2     :     0.000631
      f+3     :     0.001087
      f-3     :     0.001683

 19 C s       :     3.231007  s :     3.231007
      pz      :     0.977554  p :     3.016510
      px      :     0.924104
      py      :     1.114852
      dz2     :     0.004275  d :     0.064505
      dxz     :     0.030367
      dyz     :     0.003474
      dx2y2   :     0.014736
      dxy     :     0.011652
      f0      :     0.001125  f :     0.006437
      f+1     :     0.000814
      f-1     :     0.000700
      f+2     :     0.000429
      f-2     :     0.000600
      f+3     :     0.001604
      f-3     :     0.001165

 20 C s       :     3.111047  s :     3.111047
      pz      :     0.945811  p :     2.519892
      px      :     0.783596
      py      :     0.790485
      dz2     :     0.002801  d :     0.115064
      dxz     :     0.033079
      dyz     :     0.027573
      dx2y2   :     0.030456
      dxy     :     0.021156
      f0      :     0.001981  f :     0.012710
      f+1     :     0.001197
      f-1     :     0.001043
      f+2     :     0.001392
      f-2     :     0.000919
      f+3     :     0.002627
      f-3     :     0.003551

 21 C s       :     3.111256  s :     3.111256
      pz      :     0.945742  p :     2.520107
      px      :     0.792268
      py      :     0.782098
      dz2     :     0.002803  d :     0.115031
      dxz     :     0.026630
      dyz     :     0.034004
      dx2y2   :     0.026896
      dxy     :     0.024698
      f0      :     0.001981  f :     0.012709
      f+1     :     0.000995
      f-1     :     0.001244
      f+2     :     0.001806
      f-2     :     0.000505
      f+3     :     0.004646
      f-3     :     0.001531

 22 C s       :     3.241037  s :     3.241037
      pz      :     1.007304  p :     2.933695
      px      :     1.023541
      py      :     0.902850
      dz2     :     0.005132  d :     0.065770
      dxz     :     0.007275
      dyz     :     0.021751
      dx2y2   :     0.017688
      dxy     :     0.013923
      f0      :     0.001273  f :     0.006994
      f+1     :     0.000982
      f-1     :     0.000562
      f+2     :     0.000068
      f-2     :     0.001130
      f+3     :     0.001139
      f-3     :     0.001839

 23 C s       :     3.240951  s :     3.240951
      pz      :     1.007241  p :     2.933441
      px      :     0.898561
      py      :     1.027639
      dz2     :     0.005134  d :     0.065764
      dxz     :     0.019974
      dyz     :     0.009045
      dx2y2   :     0.021194
      dxy     :     0.010418
      f0      :     0.001273  f :     0.006993
      f+1     :     0.000605
      f-1     :     0.000939
      f+2     :     0.000354
      f-2     :     0.000844
      f+3     :     0.001322
      f-3     :     0.001655

 24 H s       :     0.810496  s :     0.810496
      pz      :     0.009307  p :     0.019585
      px      :     0.003690
      py      :     0.006588

 25 H s       :     0.809606  s :     0.809606
      pz      :     0.008595  p :     0.019555
      px      :     0.003669
      py      :     0.007290

 26 H s       :     0.810471  s :     0.810471
      pz      :     0.009337  p :     0.019586
      px      :     0.006709
      py      :     0.003540

 27 H s       :     0.809571  s :     0.809571
      pz      :     0.008559  p :     0.019553
      px      :     0.007445
      py      :     0.003549

 28 H s       :     0.796300  s :     0.796300
      pz      :     0.004756  p :     0.020756
      px      :     0.002708
      py      :     0.013293

 29 H s       :     0.796259  s :     0.796259
      pz      :     0.004757  p :     0.020758
      px      :     0.013249
      py      :     0.002752

 30 H s       :     0.683077  s :     0.683077
      pz      :     0.009679  p :     0.040005
      px      :     0.012353
      py      :     0.017973

 31 H s       :     0.682938  s :     0.682938
      pz      :     0.009676  p :     0.040010
      px      :     0.014020
      py      :     0.016314

 32 H s       :     0.796505  s :     0.796505
      pz      :     0.004069  p :     0.020438
      px      :     0.002651
      py      :     0.013718

 33 H s       :     0.796598  s :     0.796598
      pz      :     0.004068  p :     0.020435
      px      :     0.013164
      py      :     0.003203

 34 H s       :     0.795784  s :     0.795784
      pz      :     0.003826  p :     0.020343
      px      :     0.013200
      py      :     0.003317

 35 H s       :     0.795705  s :     0.795705
      pz      :     0.003826  p :     0.020346
      px      :     0.002696
      py      :     0.013823

 36 H s       :     0.791783  s :     0.791783
      pz      :     0.004120  p :     0.020592
      px      :     0.013705
      py      :     0.002767

 37 H s       :     0.791762  s :     0.791762
      pz      :     0.004120  p :     0.020591
      px      :     0.002813
      py      :     0.013658

 38 H s       :     0.804474  s :     0.804474
      pz      :     0.004023  p :     0.020170
      px      :     0.013339
      py      :     0.002808

 39 H s       :     0.804518  s :     0.804518
      pz      :     0.004023  p :     0.020167
      px      :     0.003349
      py      :     0.012795



                     *******************************
                     * LOEWDIN POPULATION ANALYSIS *
                     *******************************

----------------------
LOEWDIN ATOMIC CHARGES
----------------------
   0 N :    0.119647
   1 N :    0.247950
   2 N :    0.247935
   3 N :    0.076740
   4 C :   -0.197591
   5 C :   -0.197621
   6 C :   -0.218018
   7 C :   -0.218121
   8 C :   -0.141809
   9 C :   -0.141803
  10 C :   -0.185484
  11 C :   -0.185474
  12 C :   -0.204351
  13 C :   -0.204358
  14 C :   -0.115338
  15 C :   -0.115239
  16 C :   -0.100769
  17 C :   -0.100815
  18 C :   -0.086731
  19 C :   -0.086713
  20 C :   -0.252703
  21 C :   -0.252607
  22 C :   -0.133184
  23 C :   -0.133101
  24 H :    0.152603
  25 H :    0.151643
  26 H :    0.152621
  27 H :    0.151653
  28 H :    0.168703
  29 H :    0.168719
  30 H :    0.191072
  31 H :    0.191099
  32 H :    0.152816
  33 H :    0.152838
  34 H :    0.154659
  35 H :    0.154640
  36 H :    0.171854
  37 H :    0.171841
  38 H :    0.146391
  39 H :    0.146404

-------------------------------
LOEWDIN REDUCED ORBITAL CHARGES
-------------------------------
  0 N s       :     3.035676  s :     3.035676
      pz      :     1.079428  p :     3.617605
      px      :     1.299511
      py      :     1.238666
      dz2     :     0.016705  d :     0.207973
      dxz     :     0.023505
      dyz     :     0.029553
      dx2y2   :     0.076142
      dxy     :     0.062068
      f0      :     0.001122  f :     0.019099
      f+1     :     0.001202
      f-1     :     0.001423
      f+2     :     0.002968
      f-2     :     0.000409
      f+3     :     0.007007
      f-3     :     0.004969

  1 N s       :     2.888453  s :     2.888453
      pz      :     1.334549  p :     3.612790
      px      :     1.137637
      py      :     1.140604
      dz2     :     0.013799  d :     0.233005
      dxz     :     0.034891
      dyz     :     0.025710
      dx2y2   :     0.070908
      dxy     :     0.087697
      f0      :     0.001201  f :     0.017802
      f+1     :     0.001667
      f-1     :     0.001747
      f+2     :     0.003588
      f-2     :     0.000414
      f+3     :     0.003308
      f-3     :     0.005878

  2 N s       :     2.888460  s :     2.888460
      pz      :     1.334564  p :     3.612818
      px      :     1.141145
      py      :     1.137108
      dz2     :     0.013801  d :     0.232985
      dxz     :     0.033226
      dyz     :     0.027367
      dx2y2   :     0.069435
      dxy     :     0.089156
      f0      :     0.001201  f :     0.017802
      f+1     :     0.001753
      f-1     :     0.001660
      f+2     :     0.003554
      f-2     :     0.000448
      f+3     :     0.003321
      f-3     :     0.005866

  3 N s       :     3.044602  s :     3.044602
      pz      :     1.148380  p :     3.658174
      px      :     1.284720
      py      :     1.225074
      dz2     :     0.016266  d :     0.201398
      dxz     :     0.025161
      dyz     :     0.031767
      dx2y2   :     0.070870
      dxy     :     0.057334
      f0      :     0.001082  f :     0.019087
      f+1     :     0.001186
      f-1     :     0.001378
      f+2     :     0.003717
      f-2     :     0.000319
      f+3     :     0.006521
      f-3     :     0.004884

  4 C s       :     2.767808  s :     2.767808
      pz      :     1.041121  p :     3.033341
      px      :     0.985950
      py      :     1.006269
      dz2     :     0.037952  d :     0.356292
      dxz     :     0.046508
      dyz     :     0.096202
      dx2y2   :     0.090509
      dxy     :     0.085122
      f0      :     0.003735  f :     0.040149
      f+1     :     0.003296
      f-1     :     0.004388
      f+2     :     0.004184
      f-2     :     0.005300
      f+3     :     0.009335
      f-3     :     0.009911

  5 C s       :     2.767803  s :     2.767803
      pz      :     1.041129  p :     3.033318
      px      :     1.004389
      py      :     0.987799
      dz2     :     0.038007  d :     0.356348
      dxz     :     0.094964
      dyz     :     0.047685
      dx2y2   :     0.085138
      dxy     :     0.090555
      f0      :     0.003740  f :     0.040152
      f+1     :     0.004419
      f-1     :     0.003253
      f+2     :     0.004301
      f-2     :     0.005196
      f+3     :     0.007526
      f-3     :     0.011718

  6 C s       :     2.726502  s :     2.726502
      pz      :     0.795033  p :     2.771699
      px      :     1.010529
      py      :     0.966137
      dz2     :     0.041482  d :     0.642271
      dxz     :     0.085236
      dyz     :     0.110299
      dx2y2   :     0.191004
      dxy     :     0.214251
      f0      :     0.004891  f :     0.077546
      f+1     :     0.004077
      f-1     :     0.006252
      f+2     :     0.010484
      f-2     :     0.006615
      f+3     :     0.032563
      f-3     :     0.012663

  7 C s       :     2.726480  s :     2.726480
      pz      :     0.794988  p :     2.771706
      px      :     0.961181
      py      :     1.015537
      dz2     :     0.041502  d :     0.642373
      dxz     :     0.099391
      dyz     :     0.096194
      dx2y2   :     0.195762
      dxy     :     0.209524
      f0      :     0.004891  f :     0.077562
      f+1     :     0.005906
      f-1     :     0.004428
      f+2     :     0.009451
      f-2     :     0.007652
      f+3     :     0.021483
      f-3     :     0.023751

  8 C s       :     2.751103  s :     2.751103
      pz      :     0.968188  p :     2.991702
      px      :     1.026269
      py      :     0.997246
      dz2     :     0.024547  d :     0.359417
      dxz     :     0.073010
      dyz     :     0.011685
      dx2y2   :     0.154457
      dxy     :     0.095718
      f0      :     0.003089  f :     0.039586
      f+1     :     0.004963
      f-1     :     0.003078
      f+2     :     0.002225
      f-2     :     0.005189
      f+3     :     0.012370
      f-3     :     0.008672

  9 C s       :     2.751090  s :     2.751090
      pz      :     0.968194  p :     2.991705
      px      :     0.993489
      py      :     1.030022
      dz2     :     0.024547  d :     0.359422
      dxz     :     0.011593
      dyz     :     0.073101
      dx2y2   :     0.150514
      dxy     :     0.099668
      f0      :     0.003089  f :     0.039586
      f+1     :     0.003077
      f-1     :     0.004964
      f+2     :     0.002086
      f-2     :     0.005327
      f+3     :     0.008673
      f-3     :     0.012370

 10 C s       :     2.701039  s :     2.701039
      pz      :     0.826093  p :     2.768929
      px      :     1.028819
      py      :     0.914018
      dz2     :     0.040273  d :     0.634903
      dxz     :     0.103180
      dyz     :     0.121266
      dx2y2   :     0.186421
      dxy     :     0.183763
      f0      :     0.005256  f :     0.080613
      f+1     :     0.004885
      f-1     :     0.006121
      f+2     :     0.013201
      f-2     :     0.008541
      f+3     :     0.025444
      f-3     :     0.017166

 11 C s       :     2.701040  s :     2.701040
      pz      :     0.826078  p :     2.768922
      px      :     0.912287
      py      :     1.030557
      dz2     :     0.040277  d :     0.634903
      dxz     :     0.128263
      dyz     :     0.096184
      dx2y2   :     0.196527
      dxy     :     0.173652
      f0      :     0.005255  f :     0.080608
      f+1     :     0.006462
      f-1     :     0.004545
      f+2     :     0.016294
      f-2     :     0.005445
      f+3     :     0.013361
      f-3     :     0.029246

 12 C s       :     2.697134  s :     2.697134
      pz      :     0.878758  p :     2.808737
      px      :     0.898472
      py      :     1.031506
      dz2     :     0.040635  d :     0.619048
      dxz     :     0.122455
      dyz     :     0.084346
      dx2y2   :     0.200481
      dxy     :     0.171130
      f0      :     0.005377  f :     0.079431
      f+1     :     0.006435
      f-1     :     0.004759
      f+2     :     0.015945
      f-2     :     0.004317
      f+3     :     0.013679
      f-3     :     0.028919

 13 C s       :     2.697133  s :     2.697133
      pz      :     0.878702  p :     2.808688
      px      :     1.030223
      py      :     0.899762
      dz2     :     0.040642  d :     0.619099
      dxz     :     0.088896
      dyz     :     0.117935
      dx2y2   :     0.189380
      dxy     :     0.182246
      f0      :     0.005377  f :     0.079438
      f+1     :     0.005092
      f-1     :     0.006102
      f+2     :     0.012651
      f-2     :     0.007613
      f+3     :     0.025646
      f-3     :     0.016956

 14 C s       :     2.761781  s :     2.761781
      pz      :     0.919386  p :     2.943644
      px      :     1.020862
      py      :     1.003396
      dz2     :     0.026038  d :     0.363852
      dxz     :     0.068680
      dyz     :     0.018051
      dx2y2   :     0.149651
      dxy     :     0.101432
      f0      :     0.002887  f :     0.046061
      f+1     :     0.003924
      f-1     :     0.003877
[...]
  0-1A  ->  1-1A    2.181086   17591.6   568.5   0.192676061   0.02317   0.09626  -0.11789   0.00079
  0-1A  ->  2-1A    2.606188   21020.3   475.7   0.003084593   0.00044  -0.01634  -0.01327  -0.00003
  0-1A  ->  3-1A    3.398613   27411.7   364.8   1.624592670   0.30436  -0.42738  -0.34886  -0.00079
  0-1A  ->  4-1A    3.521037   28399.1   352.1   1.316227928   0.25547   0.31952  -0.39163   0.00185
  0-1A  ->  5-1A    4.262842   34382.1   290.8   0.072884797   0.01713  -0.10141  -0.08272  -0.00019
  0-1A  ->  6-1A    4.464738   36010.5   277.7   0.220600674   0.05429  -0.14735   0.18050  -0.00064
  0-1A  ->  7-1A    4.668835   37656.7   265.6   0.010052069   0.00259   0.03212  -0.03943  -0.00077
  0-1A  ->  8-1A    4.691508   37839.6   264.3   0.001425392   0.00037   0.00972  -0.01185   0.01156
  0-1A  ->  9-1A    4.751522   38323.6   260.9   0.002317473   0.00061   0.00606  -0.00706  -0.02281
  0-1A  -> 10-1A    4.786149   38602.9   259.0   0.056708418   0.01496   0.09466   0.07746   0.00020
  0-1A  -> 11-1A    4.989961   40246.8   248.5   0.065042114   0.01789  -0.08436   0.10380   0.00048
  0-1A  -> 12-1A    5.131881   41391.4   241.6   0.015569203   0.00440  -0.05175  -0.04155  -0.00023
  0-1A  -> 13-1A    5.231416   42194.2   237.0   0.000000317   0.00000  -0.00023  -0.00020  -0.00002
  0-1A  -> 14-1A    5.320889   42915.9   233.0   0.000026172   0.00001   0.00209   0.00182  -0.00008
  0-1A  -> 15-1A    5.384360   43427.8   230.3   0.023633137   0.00701  -0.06344  -0.05468  -0.00014
  0-1A  -> 16-1A    5.401112   43562.9   229.6   0.145913230   0.04344   0.13241  -0.16096   0.00167
  0-1A  -> 17-1A    5.593527   45114.8   221.7   0.004671934   0.00144  -0.02948  -0.02391   0.00004
  0-1A  -> 18-1A    5.738566   46284.7   216.1   0.103059754   0.03260  -0.11416   0.13988  -0.00066
  0-1A  -> 19-1A    5.801645   46793.4   213.7   0.001213376   0.00039  -0.01557  -0.01207   0.00009
  0-1A  -> 20-1A    6.012863   48497.0   206.2   0.025598675   0.00848   0.05814  -0.07138  -0.00315
  0-1A  -> 21-1A    6.163634   49713.1   201.2   0.002613448   0.00089   0.01878  -0.02313   0.00050
  0-1A  -> 22-1A    6.185393   49888.6   200.4   0.000003558   0.00000   0.00088   0.00064   0.00016
  0-1A  -> 23-1A    6.220242   50169.6   199.3   0.000090712   0.00003  -0.00437  -0.00347  -0.00005
  0-1A  -> 24-1A    6.414633   51737.5   193.3   0.001755053   0.00062  -0.00229   0.00274   0.02465
  0-1A  -> 25-1A    6.544225   52782.7   189.5   0.072145533   0.02603  -0.10200   0.12499   0.00100
  0-1A  -> 26-1A    6.677376   53856.7   185.7   0.011739531   0.00432  -0.04127   0.05116   0.00065
  0-1A  -> 27-1A    6.736150   54330.7   184.1   0.000040482   0.00002  -0.00291  -0.00256   0.00017
  0-1A  -> 28-1A    6.806404   54897.4   182.2   0.093565725   0.03511   0.14540   0.11817   0.00027
  0-1A  -> 29-1A    6.919543   55809.9   179.2   0.000000342   0.00000   0.00027   0.00024   0.00001
  0-1A  -> 30-1A    6.943193   56000.6   178.6   0.000215591   0.00008   0.00065  -0.00100   0.00901

------------------------------------------------------------------------------------------
                     CD SPECTRUM VIA TRANSITION ELECTRIC DIPOLE MOMENTS    
------------------------------------------------------------------------------------------
     Transition      Energy     Energy  Wavelength    R        MX        MY        MZ   
                      (eV)      (cm-1)    (nm)   (1e40*cgs)   (au)      (au)      (au)  
------------------------------------------------------------------------------------------
  0-1A  ->  1-1A    2.181086   17591.6   568.5    0.42671  -0.00315   0.00200   0.83600
  0-1A  ->  2-1A    2.606188   21020.3   475.7   -0.07152   0.00055   0.00044  -0.00073
  0-1A  ->  3-1A    3.398613   27411.7   364.8  -11.71296   0.00428   0.00396  -0.00023
  0-1A  ->  4-1A    3.521037   28399.1   352.1    0.34948   0.00067  -0.00028  -0.11832
  0-1A  ->  5-1A    4.262842   34382.1   290.8   -0.14513   0.00027   0.00027   0.00010
  0-1A  ->  6-1A    4.464738   36010.5   277.7    3.90843  -0.00197   0.00366  -0.69056
  0-1A  ->  7-1A    4.668835   37656.7   265.6  -16.39783  -0.07879   0.09687  -0.14716
  0-1A  ->  8-1A    4.691508   37839.6   264.3   14.65047   0.25026  -0.30664  -0.04719
  0-1A  ->  9-1A    4.751522   38323.6   260.9    6.46091   0.13454  -0.16494  -0.02994
  0-1A  -> 10-1A    4.786149   38602.9   259.0   -1.12034  -0.00304  -0.00190   0.00080
  0-1A  -> 11-1A    4.989961   40246.8   248.5   -0.14629   0.00137  -0.00379   0.86031
  0-1A  -> 12-1A    5.131881   41391.4   241.6   -0.12845   0.00062   0.00055   0.00345
  0-1A  -> 13-1A    5.231416   42194.2   237.0   -0.04852   0.06984   0.05715   0.00026
  0-1A  -> 14-1A    5.320889   42915.9   233.0   -0.08260  -0.00976  -0.00756   0.00025
  0-1A  -> 15-1A    5.384360   43427.8   230.3   -0.19947   0.00071   0.00076  -0.00140
  0-1A  -> 16-1A    5.401112   43562.9   229.6    1.04312   0.00209  -0.00220  -0.09417
  0-1A  -> 17-1A    5.593527   45114.8   221.7    0.06912  -0.00066  -0.00048   0.00013
  0-1A  -> 18-1A    5.738566   46284.7   216.1   -0.21964   0.00084  -0.00067  -0.15418
  0-1A  -> 19-1A    5.801645   46793.4   213.7    0.12529  -0.00226  -0.00181   0.00023
  0-1A  -> 20-1A    6.012863   48497.0   206.2    3.21884   0.00226  -0.00184  -0.40003
  0-1A  -> 21-1A    6.163634   49713.1   201.2   -0.15185  -0.00028   0.00027  -0.16587
  0-1A  -> 22-1A    6.185393   49888.6   200.4    0.14348   0.06472   0.05263  -0.00042
  0-1A  -> 23-1A    6.220242   50169.6   199.3   -0.00390   0.00037   0.00021   0.00008
  0-1A  -> 24-1A    6.414633   51737.5   193.3   -1.12419   0.06163  -0.07532  -0.00476
  0-1A  -> 25-1A    6.544225   52782.7   189.5    0.75219  -0.00129   0.00102   0.14043
  0-1A  -> 26-1A    6.677376   53856.7   185.7    0.04007   0.00057  -0.00077   0.15136
  0-1A  -> 27-1A    6.736150   54330.7   184.1    0.53249  -0.05951  -0.04760  -0.00030
  0-1A  -> 28-1A    6.806404   54897.4   182.2   -0.43474  -0.00078  -0.00109  -0.00026
  0-1A  -> 29-1A    6.919543   55809.9   179.2    0.00822   0.01172   0.00966   0.00005
  0-1A  -> 30-1A    6.943193   56000.6   178.6   -0.15258  -0.05114   0.06327  -0.00008

------------------------------------------------------------------------------------------
                     CD SPECTRUM VIA TRANSITION VELOCITY DIPOLE MOMENTS    
------------------------------------------------------------------------------------------
     Transition      Energy     Energy  Wavelength    R        MX        MY        MZ   
                      (eV)      (cm-1)    (nm)   (1e40*cgs)   (au)      (au)      (au)  
------------------------------------------------------------------------------------------
  0-1A  ->  1-1A    2.181086   17591.6   568.5    0.72013  -0.00315   0.00200   0.83600
  0-1A  ->  2-1A    2.606188   21020.3   475.7   -0.07285   0.00055   0.00044  -0.00073
  0-1A  ->  3-1A    3.398613   27411.7   364.8  -12.12148   0.00428   0.00396  -0.00023
  0-1A  ->  4-1A    3.521037   28399.1   352.1    0.37071   0.00067  -0.00028  -0.11832
  0-1A  ->  5-1A    4.262842   34382.1   290.8   -0.14873   0.00027   0.00027   0.00010
  0-1A  ->  6-1A    4.464738   36010.5   277.7    3.99972  -0.00197   0.00366  -0.69056
  0-1A  ->  7-1A    4.668835   37656.7   265.6  -17.13901  -0.07879   0.09687  -0.14716
  0-1A  ->  8-1A    4.691508   37839.6   264.3   15.09608   0.25026  -0.30664  -0.04719
  0-1A  ->  9-1A    4.751522   38323.6   260.9    7.18925   0.13454  -0.16494  -0.02994
  0-1A  -> 10-1A    4.786149   38602.9   259.0   -1.16643  -0.00304  -0.00190   0.00080
  0-1A  -> 11-1A    4.989961   40246.8   248.5   -0.24814   0.00137  -0.00379   0.86031
  0-1A  -> 12-1A    5.131881   41391.4   241.6   -0.13912   0.00062   0.00055   0.00345
  0-1A  -> 13-1A    5.231416   42194.2   237.0   -0.06676   0.06984   0.05715   0.00026
  0-1A  -> 14-1A    5.320889   42915.9   233.0   -0.08234  -0.00976  -0.00756   0.00025
  0-1A  -> 15-1A    5.384360   43427.8   230.3   -0.20617   0.00071   0.00076  -0.00140
  0-1A  -> 16-1A    5.401112   43562.9   229.6    1.12628   0.00209  -0.00220  -0.09417
  0-1A  -> 17-1A    5.593527   45114.8   221.7    0.07064  -0.00066  -0.00048   0.00013
  0-1A  -> 18-1A    5.738566   46284.7   216.1   -0.19895   0.00084  -0.00067  -0.15418
  0-1A  -> 19-1A    5.801645   46793.4   213.7    0.12624  -0.00226  -0.00181   0.00023
  0-1A  -> 20-1A    6.012863   48497.0   206.2    3.25065   0.00226  -0.00184  -0.40003
  0-1A  -> 21-1A    6.163634   49713.1   201.2   -0.19617  -0.00028   0.00027  -0.16587
  0-1A  -> 22-1A    6.185393   49888.6   200.4    0.18802   0.06472   0.05263  -0.00042
  0-1A  -> 23-1A    6.220242   50169.6   199.3   -0.00478   0.00037   0.00021   0.00008
  0-1A  -> 24-1A    6.414633   51737.5   193.3   -0.93046   0.06163  -0.07532  -0.00476
  0-1A  -> 25-1A    6.544225   52782.7   189.5    0.78232  -0.00129   0.00102   0.14043
  0-1A  -> 26-1A    6.677376   53856.7   185.7    0.06919   0.00057  -0.00077   0.15136
  0-1A  -> 27-1A    6.736150   54330.7   184.1    0.56145  -0.05951  -0.04760  -0.00030
  0-1A  -> 28-1A    6.806404   54897.4   182.2   -0.45548  -0.00078  -0.00109  -0.00026
  0-1A  -> 29-1A    6.919543   55809.9   179.2    0.01016   0.01172   0.00966   0.00005
  0-1A  -> 30-1A    6.943193   56000.6   178.6   -0.17969  -0.05114   0.06327  -0.00008

Total run time:    16309.300 sec

           *** ORCA-CIS/TD-DFT FINISHED WITHOUT ERROR ***
-----------------------
CIS/TD-DFT TOTAL ENERGY
-----------------------

    E(SCF)  =   -990.726961134 Eh
    DE(CIS) =      0.080153422 Eh (Root  1)
    ----------------------------- ---------
    E(tot)  =   -990.646807712 Eh


Maximum memory used throughout the entire CIS-calculation: 2730.8 MB
=> NOW LEAVING ORCA_CIS

-------------------------   --------------------
FINAL SINGLE POINT ENERGY      -990.646807711734
-------------------------   --------------------



           ************************************************************
           *        Program running with 4 parallel MPI-processes     *
           *              working on a common directory               *
           ************************************************************

------------------------------------------------------------------------------
                              ORCA PROPERTY CALCULATIONS
------------------------------------------------------------------------------

GBWName                                 ... tddft.gbw
Number of atoms                         ...     40
Number of basis functions               ...    840
Max core memory                         ...   3000 MB

Electric properties:
Dipole moment                           ... YES
Quadrupole moment                       ...  NO
Static polarizability (Dipole/Dipole)   ...  NO
Static polarizability (Dipole/Quad.)    ...  NO
Static polarizability (Quad./Quad.)     ...  NO
Static polarizability (Velocity)        ...  NO
Static hyperpolarizability              ...  NO

Atomic electric properties:
Dipole moment                           ...  NO
Quadrupole moment                       ...  NO
Static polarizability                   ...  NO

Choice of electric origin               ... Center of mass
Position of electric origin             ...     0.027872     0.039055     0.014275

General magnetic properties:
Magnetizability                         ...  NO

EPR properties:
g-Tensor (aka g-matrix)                 ...  NO
Zero-Field splitting spin-orbit         ...  NO
Zero-field splitting spin-spin          ...  NO
Hyperfine couplings                     ...  NO (   0 nuclei)
Quadrupole couplings                    ...  NO (   0 nuclei)
Contact density                         ...  NO (   0 nuclei)

NMR properties:
Chemical shifts                         ...  NO (   0 nuclei)
Spin-rotation constants                 ...  NO (   0 nuclei)
Spin-spin couplings                     ...  NO (   0 nuclei,    0 pairs)

Choice of magnetic origin               ... GIAO
Position of magnetic origin             ...     0.000000     0.000000     0.000000

Properties with geometric perturbations:
SCF Hessian                             ...  NO
IR spectrum                             ...  NO
VCD spectrum                            ...  NO
X-ray spectroscopy properties:
SCF XES/XAS/RIXS spectra                ...  NO

SCF SOC stabilization energy            ...  NO
Diagonal Born-Oppenheimer correction    ...  NO

-------------
DIPOLE MOMENT
-------------

Method             : SCF
Type of density    : Electron Density
Multiplicity       :   1
Irrep              :   0
Energy             :  -990.7269611339461335 Eh
Basis              : AO
                                X                 Y                 Z
Electronic contribution:     -5.113059470      -4.173132580      -0.015042161
Nuclear contribution   :      6.179261674       5.041669180       0.018645980
                        -----------------------------------------
Total Dipole Moment    :      1.066202204       0.868536600       0.003603819
                        -----------------------------------------
Magnitude (a.u.)       :      1.375193060
Magnitude (Debye)      :      3.495462969



--------------------
Rotational spectrum 
--------------------
 
Rotational constants in cm-1:             0.008875             0.008531             0.004357 
Rotational constants in MHz :           266.075502           255.748443           130.616067 

Dipole components along the rotational axes: 
x,y,z [a.u.] :     1.375185    -0.004568     0.001503 
x,y,z [Debye]:     3.495442    -0.011612     0.003821 

 

Dipole moment calculation done in   0.0 sec 

Maximum memory used throughout the entire PROP-calculation: 84.4 MB

--------------------------------
SUGGESTED CITATIONS FOR THIS RUN
--------------------------------

Below you find a list of papers that are relevant to this ORCA run
We neither can nor want to force you to cite these papers, but we appreciate if you do
You receive ORCA, which is the product of decades of hard work by many enthusiastic individuals, for free
The only thing we kindly ask in return is that you cite our papers,
We deeply appreciate it, if you show your appreciation for ORCA by not just citing the generic ORCA reference.

Please note that relegating all ORCA citations to the supporting information does *not* help us.
SI sections are not indexed - citations you put there will not count into any citation statistics
But we need these citations in order to attract the funding resources that allow us to do what we are doing

Therefore, if you are a happy ORCA user, please consider citing a few of the papers listed below in the main body of your paper

In addition to the list printed below, the program has created the file tddft.bibtex that contains the list in bibtex format
You can import this file easily into all common literature databanks and citation aid programs

It goes without saying that in many instances, there are alternative algorithms to achieve similar
results as the ones you have gotten from ORCA. It is, of course, also the case that in some instances
ORCA just re-implements algorithms worked out by others. We are fully aware of that and we are also
fully appreciative of our colleagues work. Hence this citation list should not be read as indicating
that the listed papers, which are focused on our own work, are the only ones worth citing. It simply
meant to make it easier for users to cite ORCA specific papers. It is not a substitute for doing your
own literature research and citing the relevant literature in a scientifically appropriate manner.

List of essential papers. We consider these as the minimum necessary citations

  1. Neese, F.
     Software update: the ORCA program system, version 6.0
     WIRES Comput. Molec. Sci. 2025 15(1), e70019
     doi.org/10.1002/wcms.70019

List of papers to cite with high priority. The work reported in these papers was absolutely
necessary for this run to complete.
Our perspective: the developers of density functionals and basis sets usually get cited in chemistry papers
Good! But without the algorithms to do something with them, the functionals or basis sets would not do anything.
Hence, in our opinion, the algorithm design and method developments papers are equally worthy of getting cited

  1. Neese, F.; Olbrich, G.
     Efficient use of the resolution of the identity approximation in time-dependent density functional calculations with hybrid density functionals
     Chem. Phys. Lett. 2002 362 , 170-178
     doi.org/10.1016/s0009-2614(02)01053-9
  2. Neese, F.
     An improvement of the resolution of the identity approximation for the formation of the Coulomb matrix
     J. Comp. Chem. 2003 24(14), 1740-1747
     doi.org/10.1002/jcc.10318
  3. Neese, F.; Wennmohs, F.; Hansen, A.; Becker, U.
     Efficient, approximate and parallel Hartree-Fock and hybrid DFT calculations. A 'chain-of-spheres' algorithm for the Hartree-Fock exchange
     Chem. Phys. 2009 356(1-3), 98-109
     doi.org/10.1016/j.chemphys.2008.10.036
  4. Garcia-Rates, M.; Neese, F.
     Effect of the Solute Cavity on the Solvation Energy and its Derivatives within the Framework of the Gaussian Charge Scheme
     J. Comput. Chem. 2020 41 , 922-939
     doi.org/10.1002/jcc.26139
  5. Helmich-Paris, B.; de Souza, B.; Neese, F.; Izsák, R.
     An improved chain of spheres for exchange algorithm
     J. Chem. Phys. 2021 155(10), 104109
     doi.org/10.1063/5.0058766
  6. Neese, F.
     The SHARK Integral Generation and Digestion System
     J. Comp. Chem. 2022 44(3), 381
     doi.org/10.1002/jcc.26942

List of suggested additional citations. These are papers that are important in the 'surrounding' of 
of this run, or papers that preceded the highly important papers. If you like your results we are grateful for a citation.

  1. Izsak, R.; Neese, F.
     An overlap fitted chain of spheres exchange method
     J. Chem. Phys. 2011 135 , 144105
     doi.org/10.1063/1.3646921
  2. Izsak, R.; Hansen, A.; Neese, F.
     The resolution of identity and chain of spheres approximations for the LPNO-CCSD singles Fock term
     Molec. Phys. 2012 110 , 2413-2417
     doi.org/10.1080/00268976.2012.687466
  3. Neese, F.
     The ORCA program system
     WIRES Comput. Molec. Sci. 2012 2(1), 73-78
     doi.org/10.1002/wcms.81
  4. Izsak, R.; Neese, F.; Klopper, W.
     Robust fitting techniques in the chain of spheres approximation to the Fock exchange: The role of the complementary space
     J. Chem. Phys. 2013 139 , 
     doi.org/10.1063/1.4819264
  5. Neese, F.
     Software update: the ORCA program system, version 4.0
     WIRES Comput. Molec. Sci. 2018 8(1), 1-6
     doi.org/10.1002/wcms.1327
  6. Neese, F.; Wennmohs, F.; Becker, U.; Riplinger, C.
     The ORCA quantum chemistry program package
     J. Chem. Phys. 2020 152(22), 224108
     doi.org/10.1063/5.0004608
  7. Neese, F.
     Software update: The ORCA program system—Version 5.0
     WIRES Comput. Molec. Sci. 2022 12(1), e1606
     doi.org/10.1002/wcms.1606

List of optional additional citations

  1. Neese, F.
     Approximate second-order SCF convergence for spin unrestricted wavefunctions
     Chem. Phys. Lett. 2000 325(1-3), 93-98
     doi.org/10.1016/s0009-2614(00)00662-x

Timings for individual modules:

Sum of individual times          ...    16845.358 sec (= 280.756 min)
Startup calculation              ...       22.881 sec (=   0.381 min)   0.1 %
SCF iterations                   ...      510.099 sec (=   8.502 min)   3.0 %
Property integrals               ...        2.160 sec (=   0.036 min)   0.0 %
Property calculations            ...        0.476 sec (=   0.008 min)   0.0 %
CIS module                       ...    16309.743 sec (= 271.829 min)  96.8 %
                             ****ORCA TERMINATED NORMALLY****
TOTAL RUN TIME: 0 days 4 hours 40 minutes 45 seconds 658 msec
