
                                 *****************
                                 * O   R   C   A *
                                 *****************

                                            #,                                       
                                            ###                                      
                                            ####                                     
                                            #####                                    
                                            ######                                   
                                           ########,                                 
                                     ,,################,,,,,                         
                               ,,#################################,,                 
                          ,,##########################################,,             
                       ,#########################################, ''#####,          
                    ,#############################################,,   '####,        
                  ,##################################################,,,,####,       
                ,###########''''           ''''###############################       
              ,#####''   ,,,,##########,,,,          '''####'''          '####       
            ,##' ,,,,###########################,,,                        '##       
           ' ,,###''''                  '''############,,,                           
         ,,##''                                '''############,,,,        ,,,,,,###''
      ,#''                                            '''#######################'''  
     '                                                          ''''####''''         
             ,#######,   #######,   ,#######,      ##                                
            ,#'     '#,  ##    ##  ,#'     '#,    #''#        ,####,    ,#,          
            ##       ##  ##   ,#'  ##            #'  '#       #'       ,# #          
            ##       ##  #######   ##           ,######,      #####,      #          
            '#,     ,#'  ##    ##  '#,     ,#' ,#      #,     #,   #      #          
             '#######'   ##     ##  '#######'  #'      '#     '####' #    #          



                #########################################################
                #                        -***-                          #
                #          Department of theory and spectroscopy        #
                #                                                       #
                #                      Frank Neese                      #
                #                                                       #
                #     Directorship, Architecture, Infrastructure        #
                #                    SHARK, DRIVERS                     #
                #        Core code/Algorithms in most modules           #
                #                                                       #
                #        Max Planck Institute fuer Kohlenforschung      #
                #                Kaiser Wilhelm Platz 1                 #
                #                 D-45470 Muelheim/Ruhr                 #
                #                      Germany                          #
                #                                                       #
                #                  All rights reserved                  #
                #                        -***-                          #
                #########################################################


                         Program Version 6.1.1  -  RELEASE   -
                                (GIT: $487d211c$)
                          ($2025-11-21 10:33:24 +0100$)


 With contributions from (in alphabetic order):
[Max-Planck-Institut fuer Kohlenforschung]                               
  Daniel Aravena         : Magnetic Suceptibility                        
  Michael Atanasov       : Ab Initio Ligand Field Theory (pilot matlab implementation)
  Alexander A. Auer      : GIAO ZORA, VPT2 properties, NMR spectrum      
  Ute Becker             : All parallelization in ORCA, NUMFREQ, NUMCALC 
  Giovanni Bistoni       : ED, misc. LED, open-shell LED, HFLD           
  Dmytro Bykov           : pre 5.0 version of the SCF Hessian            
  Marcos Casanova-Páez   : Triplet and SCS-CIS(D). UHF-(DLPNO)-IP/EA/STEOM-CCSD. UHF-CVS-IP/STEOM-CCSD   
  Vijay G. Chilkuri      : MRCI spin determinant printing, contributions to CSF-ICE 
  Pauline Colinet        : FMM embedding                                 
  Dipayan Datta          : RHF DLPNO-CCSD density                        
  Achintya Kumar Dutta   : EOM-CC, STEOM-CC                              
  Nicolas Foglia         : Exact transition moments, OPA infrastructure, MCD improvements    
  Dmitry Ganyushin       : Spin-Orbit,Spin-Spin,Magnetic field MRCI      
  Miquel Garcia-Rates    : C-PCM and meta-GGA Hessian, CCSD/C-PCM, Gaussian charge scheme 
  Tiago L. C. Gouveia    : GS-ROHF, GS-ROCIS                             
  Yang Guo               : DLPNO-NEVPT2, F12-NEVPT2, CIM, IAO-localization        
  Andreas Hansen         : Spin unrestricted coupled pair/coupled cluster methods 
  Ingolf Harden          : AUTO-CI MPn and infrastructure                
  Benjamin Helmich-Paris : MC-RPA, TRAH-(SCF,CASSCF), AVAS, COSX integrals, SCF dyn. polar., MC-PDFT, srDFT 
  Lee Huntington         : MR-EOM, pCC                                   
  Robert Izsak           : Overlap fitted RIJCOSX, COSX-SCS-MP3, EOM     
  Riya Kayal             : Wick's Theorem for AUTO-CI, AUTO-CI UHF-CCSDT 
  Emily Kempfer          : AUTO-CI RHF CISDT and CCSDT, approximate NEVPT4
  Christian Kollmar      : KDIIS, OOCD, Brueckner-CCSD(T), CCSD density, CASPT2, CASPT2-K, improved NEVPT2 
  Axel Koslowski         : Symmetry handling                             
  Simone Kossmann        : meta-GGA functionals, TD-DFT gradient, OOMP2, (MP2 Hessian; deprecated post 5.0) 
  Lucas Lang             : DCDCAS, Hyperfine gauge corrections, ICE-SOC+SSC
  Marvin Lechner         : AUTO-CI (C++ implementation), FIC-MRCC        
  Spencer Leger          : CASSCF response                               
  Dagmar Lenk            : GEPOL surface, SMD, ORCA-2-JSON               
  Dimitrios Liakos       : Extrapolation schemes; Compound Job, Property file
  Dimitrios Manganas     : Further ROCIS development; embedding schemes. LFT, Crystal Embedding 
  Dimitrios Pantazis     : SARC Basis sets                               
  Anastasios Papadopoulos: AUTO-CI, single reference methods and gradients 
  Taras Petrenko         : pre 6.0 DFT Hessian and TD-DFT gradient,  ECA, NRVS 
  Petra Pikulova         : Analytic Raman intensities                    
  Peter Pinski           : DLPNO-MP2, DLPNO-MP2 Gradient                 
  Shashank Vittal Rao    : ES-AILFT, MagRelax                            
  Christoph Reimann      : Effective Core Potentials                     
  Marius Retegan         : Local ZFS, SOC                                
  Christoph Riplinger    : Optimizer, TS searches, QM/MM, DLPNO-CCSD(T), (RO)-DLPNO pert. Triples 
  Michael Roemelt        : Original ROCIS implementation, recursive CI coupling coefficients
  Masaaki Saitow         : Open-shell DLPNO-CCSD energy and density      
  Barbara Sandhoefer     : DKH picture change effects                    
  Yorick L. A. Schmerwitz: GMF and freeze-and-release deltaSCF, NEB S-IDPP initial path                    
  Kantharuban Sivalingam : CASSCF convergence/infrastructure, NEVPT2, NEVPT3, NEVPT4(SD), FIC-MRCI and CEPA variants
  Bernardo de Souza      : ESD, SOC TD-DFT                               
  Georgi L. Stoychev     : AutoAux, RI-MP2 NMR, DLPNO-MP2 response, X2C  
  Van Anh Tran           : RI-MP2 g-tensors                              
  Willem Van den Heuvel  : Paramagnetic NMR                              
  Zikuan Wang            : NOTCH, Electric field optimization            
  Frank Wennmohs         : Technical directorship and infrastructure     
  Hang Xu                : AUTO-CI-Response properties                   
                                                                         
[FACCTs GmbH]                                                            
  Markus Bursch, Nicolas Foglia, Miquel Garcia-Rates, Ingolf Harden, Hagen Neugebauer, Anastasios Papadopoulos, 
  Christoph Riplinger, Bernardo de Souza, Georgi L. Stoychev                                                    
                                                                 
  APM, various basis sets, CI-OPT, improved COSX, DLPNO-Multilevel,           
  DOCKER, DRACO, updates on ESD, Fragmentator, GOAT, IRC, LR-CPCM, L-BFGS, MBIS, meta-GGA TD-DFT gradient, ML-optimized integration grids, 
  MM, NACMEs, nearIR, NEB, NEB-TS, NL-DFT gradient (VV10), 2- and 3-layer-ONIOM, interface openCOSMO-RS, QMMM,   
  Crystal-QMMM, RESP, rigid body optimization, SF, symmetry and pop. for TD-DFT, various functionals, SOLVATOR                                   
                                                                         
[Other institutions]                                                     
  V. Asgeirsson          : NEB                                           
  Christoph Bannwarth    : sTDA-DFT, sTD-DFT, PBEh-3c, B97-3c, D3        
  Giovanni Bistoni       : ETS/NOCV, ADLD/ADEX, COVALED                  
  Martin Brehm           : Molecular dynamics                            
  Ronald Cardenas        : ETS/NOCV                                      
  Martina Colucci        : COVALED                                       
  Sebastian Ehlert       : rSCAN, r2SCAN, r2SCAN-3c, D4, dhf basis sets  
  Marvin Friede          : D4 for Fr, Ra, Ac-Lr                          
  Lars Goerigk           : TD-DFT with DH, B97 family of functionals     
  Stefan Grimme          : VdW corrections, initial TS optimization, DFT functionals, gCP, sTDA/sTD-DF 
  Waldemar Hujo          : DFT-NL                                        
  H. Jonsson             : NEB                                           
  Holger Kruse           : gCP                                           
  Marcel Mueller         : wB97X-3c, vDZP basis set                      
  Hagen Neugebauer       : wr2SCAN, Native XTB                           
  Gianluca Regni         : ADLD/ADEX                                     
  Tobias Risthaus        : pre 6.0 range-separated hybrid DFT and stability analysis
  Lukas Wittmann         : regularized MP2, r2SCAN double-hybrids, wr2SCAN        
                                                                         
We gratefully acknowledge several colleagues who have allowed us to      
interface, adapt or use parts of their codes:                            
  Ed Valeev, F. Pavosevic, A. Kumar             : LibInt (2-el integral package), F12 methods 
  Garnet Chan, S. Sharma, J. Yang, R. Olivares  : DMRG                   
  Ulf Ekstrom                                   : XCFun DFT Library      
  Mihaly Kallay                                 : mrcc  (arbitrary order and MRCC methods)
  Frank Weinhold                                : gennbo (NPA and NBO analysis)           
  Simon Mueller                                 : openCOSMO-RS                            
  Christopher J. Cramer and Donald G. Truhlar   : smd solvation model                     
  S Lehtola, MJT Oliveira, MAL Marques          : LibXC Library                           
  Liviu Ungur et al                             : ANISO software                          


 Your calculation uses the libint2 library for the computation of 2-el integrals
 For citations please refer to: http://libint.valeyev.net

 Your ORCA version has been built with support for libXC version: 7.0.0
 For citations please refer to: https://libxc.gitlab.io

 This ORCA versions uses:
   CBLAS   interface :  Fast vector & matrix operations
   LAPACKE interface :  Fast linear algebra routines
   SCALAPACK package :  Parallel linear algebra routines
   Shared memory     :  Shared parallel matrices
   BLAS/LAPACK       :  OpenBLAS 0.3.29  USE64BITINT DYNAMIC_ARCH NO_AFFINITY Haswell SINGLE_THREADED
        Core in use  :  Haswell
   Copyright (c) 2011-2014, The OpenBLAS Project


  ***********************************
  * Starting time: Sat Jul  4 18:05:06 2026
  * Host name:     steezy
  * Process ID:    1141210
  * Working dir.:  /home/jannes/chlorophyll-ladder/006-core-ladder/chlorin/03_tddft_ch2cl2/camb3lyp
  ***********************************

NOTE: MaxCore=3000 MB was set to SCF,MP2,MDCI,CIPSI,MRCI,RASCI and CIS
      => If you want to overwrite this, your respective input block should be placed after the MaxCore statement


***************************************
The coordinates will be read from file: /home/jannes/chlorophyll-ladder/006-core-ladder/chlorin/01_opt/chlorin_opt_b3lypd4_tzvp.xyz
***************************************


XCFun DFT library Copyright 2009-2010 Ulf Ekstrom and contributors.
See http://admol.org/xcfun for more information.
This is free software; see the source code for copying conditions.
There is ABSOLUTELY NO WARRANTY; not even for MERCHANTABILITY or FITNESS FOR A PARTICULAR PURPOSE.
For details see the documentation.
Scientific users of this library should cite U. Ekstrom, L. Visscher, R. Bast, A. J. Thorvaldsen and K. Ruud;
J.Chem.Theor.Comp. 2010, DOI: 10.1021/ct100117s
XCFun Version 0.99 

================================================================================

----- Orbital basis set information -----
Your calculation utilizes the basis: def2-TZVP
   F. Weigend and R. Ahlrichs, Phys. Chem. Chem. Phys. 7, 3297 (2005).

----- AuxJ basis set information -----
Your calculation utilizes the auxiliary basis: def2/J
   H-Rn: F. Weigend, Phys. Chem. Chem. Phys. 8, 1057 (2006).
   Fr-Lr: K. Eichkorn, F. Weigend, O. Treutler, R. Ahlrichs; Theor. Chem. Acc. 97, 119 (1997).

================================================================================
                                        WARNINGS
                       Please study these warnings very carefully!
================================================================================

WARNING: Old DensityContainer found on disk!
         Will remove this file - 
         If you want to keep old densities, please start your calculation with a different basename. 


WARNING: CIS/ROCIS methods need fully converged wavefunctions
  ===> : Setting SCFConvForced true
         You can overwrite this default with %scf ConvForced false 


================================================================================
                                       INPUT FILE
================================================================================
NAME = tddft.inp
|  1> %pal nprocs 4 end
|  2> %maxcore 3000
|  3> ! CAM-B3LYP def2-TZVP def2/J RIJCOSX DefGrid3 TightSCF CPCM(CH2Cl2)
|  4> %tddft
|  5>   nroots 30
|  6>   tda false
|  7>   triplets false
|  8> end
|  9> * xyzfile 0 1 /home/jannes/chlorophyll-ladder/006-core-ladder/chlorin/01_opt/chlorin_opt_b3lypd4_tzvp.xyz
| 10> 
| 11>                          ****END OF INPUT****
================================================================================

                       ****************************
                       * Single Point Calculation *
                       ****************************

---------------------------------
CARTESIAN COORDINATES (ANGSTROEM)
---------------------------------
  N      1.618227    1.329539    0.010388
  N     -1.347453    1.611774   -0.002562
  N      1.299801   -1.633340    0.016623
  N     -1.594487   -1.292971    0.004403
  C      2.883781    3.350039   -0.011841
  C      3.851475    2.163431    0.042672
  C      1.523344    2.671646   -0.001121
  C      2.913786    0.967045    0.025095
  C      0.347597    3.398417   -0.007862
  C      3.389899   -0.330654    0.029706
  C     -0.962451    2.916936   -0.005688
  C      2.655655   -1.517560    0.022965
  C     -2.719608    1.507344   -0.001102
  C      0.922713   -2.956749    0.011975
  C     -2.159571    3.698056   -0.005314
  C      3.181168   -2.846885    0.021102
  C     -3.225682    2.840557   -0.002326
  C      2.127534   -3.719625    0.014237
  C     -3.433390    0.324889    0.000791
  C     -0.378790   -3.419108    0.006952
  C     -2.915388   -0.973209    0.002604
  C     -1.546550   -2.651173    0.004333
  C     -3.736898   -2.165706    0.001564
  C     -2.879748   -3.216467    0.002261
  H      3.006350    3.950792   -0.915543
  H      2.991185    4.026676    0.837789
  H      4.461299    2.159809    0.948624
  H      4.539467    2.135032   -0.804231
  H      0.441481    4.477104   -0.014399
  H      4.465522   -0.454657    0.038870
  H     -0.727891    0.815001   -0.008146
  H      0.642943   -0.867003    0.022426
  H     -2.180284    4.775793   -0.006376
  H      4.232912   -3.083014    0.023985
  H     -4.273839    3.092971   -0.000559
  H      2.164848   -4.797103    0.010566
  H     -4.511820    0.421664    0.000686
  H     -0.499907   -4.495064    0.005089
  H     -4.816074   -2.182825    0.000119
  H     -3.113257   -4.270204    0.001847

----------------------------
CARTESIAN COORDINATES (A.U.)
----------------------------
  NO LB      ZA    FRAG     MASS         X           Y           Z
   0 N     7.0000    0    14.007    3.058005    2.512465    0.019630
   1 N     7.0000    0    14.007   -2.546317    3.045812   -0.004842
   2 N     7.0000    0    14.007    2.456268   -3.086566    0.031414
   3 N     7.0000    0    14.007   -3.013143   -2.443361    0.008320
   4 C     6.0000    0    12.011    5.449556    6.330657   -0.022376
   5 C     6.0000    0    12.011    7.278233    4.088291    0.080639
   6 C     6.0000    0    12.011    2.878702    5.048679   -0.002119
   7 C     6.0000    0    12.011    5.506257    1.827451    0.047422
   8 C     6.0000    0    12.011    0.656864    6.422078   -0.014857
   9 C     6.0000    0    12.011    6.405982   -0.624846    0.056137
  10 C     6.0000    0    12.011   -1.818769    5.512210   -0.010750
  11 C     6.0000    0    12.011    5.018461   -2.867773    0.043397
  12 C     6.0000    0    12.011   -5.139315    2.848467   -0.002082
  13 C     6.0000    0    12.011    1.743676   -5.587446    0.022630
  14 C     6.0000    0    12.011   -4.080998    6.988313   -0.010042
  15 C     6.0000    0    12.011    6.011537   -5.379833    0.039877
  16 C     6.0000    0    12.011   -6.095656    5.367875   -0.004396
  17 C     6.0000    0    12.011    4.020456   -7.029073    0.026903
  18 C     6.0000    0    12.011   -6.488167    0.613952    0.001495
  19 C     6.0000    0    12.011   -0.715809   -6.461177    0.013137
  20 C     6.0000    0    12.011   -5.509286   -1.839098    0.004922
  21 C     6.0000    0    12.011   -2.922556   -5.009990    0.008188
  22 C     6.0000    0    12.011   -7.061713   -4.092591    0.002955
  23 C     6.0000    0    12.011   -5.441934   -6.078243    0.004272
  24 H     1.0000    0     1.008    5.681179    7.465915   -1.730125
  25 H     1.0000    0     1.008    5.652521    7.609315    1.583193
  26 H     1.0000    0     1.008    8.430634    4.081448    1.792639
  27 H     1.0000    0     1.008    8.578349    4.034626   -1.519777
  28 H     1.0000    0     1.008    0.834279    8.460500   -0.027211
  29 H     1.0000    0     1.008    8.438614   -0.859177    0.073454
  30 H     1.0000    0     1.008   -1.375514    1.540128   -0.015393
  31 H     1.0000    0     1.008    1.214987   -1.638398    0.042380
  32 H     1.0000    0     1.008   -4.120140    9.024942   -0.012049
  33 H     1.0000    0     1.008    7.999044   -5.826052    0.045325
  34 H     1.0000    0     1.008   -8.076386    5.844869   -0.001056
  35 H     1.0000    0     1.008    4.090969   -9.065210    0.019967
  36 H     1.0000    0     1.008   -8.526105    0.796830    0.001296
  37 H     1.0000    0     1.008   -0.944687   -8.494440    0.009617
  38 H     1.0000    0     1.008   -9.101061   -4.124942    0.000224
  39 H     1.0000    0     1.008   -5.883202   -8.069517    0.003490

--------------------------------
INTERNAL COORDINATES (ANGSTROEM)
--------------------------------
 N      0   0   0     0.000000000000     0.00000000     0.00000000
 N      1   0   0     2.979107177231     0.00000000     0.00000000
 N      1   2   0     2.979947476934    89.30270164     0.00000000
 N      3   1   2     2.914258339345    89.42644009     0.00000000
 C      1   2   3     2.384228044724   116.62082965   179.40054417
 C      5   1   2     1.532137048104    71.25200580   178.57442373
 C      1   2   3     1.345506053350    80.51805744   179.66763356
 C      1   2   3     1.345396342678   169.79818117   357.97022523
 C      7   1   2     1.382252298681   125.76656227     0.17933523
 C      8   1   7     1.382291464764   125.77894989   180.51229001
 C      2   1   3     1.360765532472    79.00182392   180.05957653
 C      3   1   2     1.360803573136    78.98578119   180.04479993
 C      2   1   3     1.376124714725   170.20659592     1.67778072
 C      3   1   2     1.376091434139   170.22494378     1.58550169
 C     11   2   1     1.429421146210   106.68913671   180.33444041
 C     12   3   1     1.429430588850   106.68868640   180.33209544
 C     15  11   2     1.368176069028   108.06500929     0.00000000
 C     16  12   3     1.368162905847   108.06552163   359.97694271
 C     13   2  11     1.381190206413   125.46928608   179.93536477
 C     14   3  12     1.381199138498   125.46211356   179.90588073
 C      4   3   1     1.359055651912   173.09697396   358.52859573
 C      4   3   1     1.359047366731    81.27152327   179.84264952
 C     21   4  22     1.448077190214   110.95462463     0.00000000
 C     23  21   4     1.356026040736   106.23152882     0.00000000
 H      5   1   2     1.092064297682   122.24060148   284.00745698
 H      5   1   2     1.091441479244   124.77447848    73.14241516
 H      6   5   1     1.092083663892   112.62948738   242.06014622
 H      6   5   1     1.091505582205   112.99487653   120.72109284
 H      9   7   1     1.082784308159   116.74849562   179.84380395
 H     10   8   1     1.082785443229   116.72449600   179.81241072
 H      2   1   3     1.009324809386    46.69870077   359.20679780
 H      3   1   2     1.009340734249    46.73724690   359.18425706
 H     15  11   2     1.077936930670   124.22541381   179.93656368
 H     16  12   3     1.077928105275   124.22340859   179.93499516
 H     17  15  11     1.078122825118   127.64953771   179.95286184
 H     18  16  12     1.078129368274   127.65243145   179.96019912
 H     19  13   2     1.082763583588   115.98919081   180.06319439
 H     20  14   3     1.082753468896   115.98031610   180.08105506
 H     23  21   4     1.079313067754   125.47173418   179.99943943
 H     24  23  21     1.079299692791   128.29953999   179.99981198

---------------------------
INTERNAL COORDINATES (A.U.)
---------------------------
 N      0   0   0     0.000000000000     0.00000000     0.00000000
 N      1   0   0     5.629696688565     0.00000000     0.00000000
 N      1   2   0     5.631284624876    89.30270164     0.00000000
 N      3   1   2     5.507150144858    89.42644009     0.00000000
 C      1   2   3     4.505538045342   116.62082965   179.40054417
 C      5   1   2     2.895319420551    71.25200580   178.57442373
 C      1   2   3     2.542637952364    80.51805744   179.66763356
 C      1   2   3     2.542430629240   169.79818117   357.97022523
 C      7   1   2     2.612078292490   125.76656227     0.17933523
 C      8   1   7     2.612152305660   125.77894989   180.51229001
 C      2   1   3     2.571474188851    79.00182392   180.05957653
 C      3   1   2     2.571546075289    78.98578119   180.04479993
 C      2   1   3     2.600498836950   170.20659592     1.67778072
 C      3   1   2     2.600435945757   170.22494378     1.58550169
 C     11   2   1     2.701214496373   106.68913671   180.33444041
 C     12   3   1     2.701232340376   106.68868640   180.33209544
 C     15  11   2     2.585478073448   108.06500929     0.00000000
 C     16  12   3     2.585453198641   108.06552163   359.97694271
 C     13   2  11     2.610071228975   125.46928608   179.93536477
 C     14   3  12     2.610088108170   125.46211356   179.90588073
 C      4   3   1     2.568242982872   173.09697396   358.52859573
 C      4   3   1     2.568227326149    81.27152327   179.84264952
 C     21   4  22     2.736469310283   110.95462463     0.00000000
 C     23  21   4     2.562517847457   106.23152882     0.00000000
 H      5   1   2     2.063702443253   122.24060148   284.00745698
 H      5   1   2     2.062525486972   124.77447848    73.14241516
 H      6   5   1     2.063739040086   112.62948738   242.06014622
 H      6   5   1     2.062646624014   112.99487653   120.72109284
 H      9   7   1     2.046165804527   116.74849562   179.84380395
 H     10   8   1     2.046167949498   116.72449600   179.81241072
 H      2   1   3     1.907347469912    46.69870077   359.20679780
 H      3   1   2     1.907377563542    46.73724690   359.18425706
 H     15  11   2     2.037005588605   124.22541381   179.93656368
 H     16  12   3     2.036988911026   124.22340859   179.93499516
 H     17  15  11     2.037356878203   127.64953771   179.95286184
 H     18  16  12     2.037369242976   127.65243145   179.96019912
 H     19  13   2     2.046126640764   115.98919081   180.06319439
 H     20  14   3     2.046107526767   115.98031610   180.08105506
 H     23  21   4     2.039606110817   125.47173418   179.99943943
 H     24  23  21     2.039580835801   128.29953999   179.99981198

---------------------
BASIS SET INFORMATION
---------------------
There are 3 groups of distinct atoms

 Group   1 Type N   : 11s6p2d1f contracted to 5s3p2d1f pattern {62111/411/11/1}
 Group   2 Type C   : 11s6p2d1f contracted to 5s3p2d1f pattern {62111/411/11/1}
 Group   3 Type H   : 5s1p contracted to 3s1p pattern {311/1}

Atom   0N    basis set group =>   1
Atom   1N    basis set group =>   1
Atom   2N    basis set group =>   1
Atom   3N    basis set group =>   1
Atom   4C    basis set group =>   2
Atom   5C    basis set group =>   2
Atom   6C    basis set group =>   2
Atom   7C    basis set group =>   2
Atom   8C    basis set group =>   2
Atom   9C    basis set group =>   2
Atom  10C    basis set group =>   2
Atom  11C    basis set group =>   2
Atom  12C    basis set group =>   2
Atom  13C    basis set group =>   2
Atom  14C    basis set group =>   2
Atom  15C    basis set group =>   2
Atom  16C    basis set group =>   2
Atom  17C    basis set group =>   2
Atom  18C    basis set group =>   2
Atom  19C    basis set group =>   2
Atom  20C    basis set group =>   2
Atom  21C    basis set group =>   2
Atom  22C    basis set group =>   2
Atom  23C    basis set group =>   2
Atom  24H    basis set group =>   3
Atom  25H    basis set group =>   3
Atom  26H    basis set group =>   3
Atom  27H    basis set group =>   3
Atom  28H    basis set group =>   3
Atom  29H    basis set group =>   3
Atom  30H    basis set group =>   3
Atom  31H    basis set group =>   3
Atom  32H    basis set group =>   3
Atom  33H    basis set group =>   3
Atom  34H    basis set group =>   3
Atom  35H    basis set group =>   3
Atom  36H    basis set group =>   3
Atom  37H    basis set group =>   3
Atom  38H    basis set group =>   3
Atom  39H    basis set group =>   3
---------------------------------
AUXILIARY/J BASIS SET INFORMATION
---------------------------------
There are 3 groups of distinct atoms

 Group   1 Type N   : 12s5p4d2f1g contracted to 6s4p3d1f1g pattern {711111/2111/211/2/1}
 Group   2 Type C   : 12s5p4d2f1g contracted to 6s4p3d1f1g pattern {711111/2111/211/2/1}
 Group   3 Type H   : 5s2p1d contracted to 3s1p1d pattern {311/2/1}

Atom   0N    basis set group =>   1
Atom   1N    basis set group =>   1
Atom   2N    basis set group =>   1
Atom   3N    basis set group =>   1
Atom   4C    basis set group =>   2
Atom   5C    basis set group =>   2
Atom   6C    basis set group =>   2
Atom   7C    basis set group =>   2
Atom   8C    basis set group =>   2
Atom   9C    basis set group =>   2
Atom  10C    basis set group =>   2
Atom  11C    basis set group =>   2
Atom  12C    basis set group =>   2
Atom  13C    basis set group =>   2
Atom  14C    basis set group =>   2
Atom  15C    basis set group =>   2
Atom  16C    basis set group =>   2
Atom  17C    basis set group =>   2
Atom  18C    basis set group =>   2
Atom  19C    basis set group =>   2
Atom  20C    basis set group =>   2
Atom  21C    basis set group =>   2
Atom  22C    basis set group =>   2
Atom  23C    basis set group =>   2
Atom  24H    basis set group =>   3
Atom  25H    basis set group =>   3
Atom  26H    basis set group =>   3
Atom  27H    basis set group =>   3
Atom  28H    basis set group =>   3
Atom  29H    basis set group =>   3
Atom  30H    basis set group =>   3
Atom  31H    basis set group =>   3
Atom  32H    basis set group =>   3
Atom  33H    basis set group =>   3
Atom  34H    basis set group =>   3
Atom  35H    basis set group =>   3
Atom  36H    basis set group =>   3
Atom  37H    basis set group =>   3
Atom  38H    basis set group =>   3
Atom  39H    basis set group =>   3

Checking for AutoStart:
The File: tddft.gbw exists
Trying to determine its content:
     ... Fine, the file contains calculation information
     ... Fine, the calculation information was read
     ... Fine, the file contains a basis set
     ... Fine, the basis set was read
     ... Fine, the file contains a geometry
     ... Fine, the geometry was read
     ... Fine, the file contains a set of orbitals
     ... Fine, the orbitals can be read
     => possible old guess file was deleted
     => GBW file was renamed to GES file
     => GES file is set as startup file
     => Guess is set to MORead
     ... now leaving AutoStart



           ************************************************************
           *        Program running with 4 parallel MPI-processes     *
           *              working on a common directory               *
           ************************************************************
------------------------------------------------------------------------------
                             ORCA STARTUP CALCULATIONS
                           -- RI-GTO INTEGRALS CHOSEN --
------------------------------------------------------------------------------
------------------------------------------------------------------------------
                   ___                                                        
                  /   \      - P O W E R E D   B Y -                         
                 /     \                                                     
                 |  |  |   _    _      __       _____    __    __             
                 |  |  |  | |  | |    /  \     |  _  \  |  |  /  |          
                  \  \/   | |  | |   /    \    | | | |  |  | /  /          
                 / \  \   | |__| |  /  /\  \   | |_| |  |  |/  /          
                |  |  |   |  __  | /  /__\  \  |    /   |      \           
                |  |  |   | |  | | |   __   |  |    \   |  |\   \          
                \     /   | |  | | |  |  |  |  | |\  \  |  | \   \       
                 \___/    |_|  |_| |__|  |__|  |_| \__\ |__|  \__/        
                                                                              
                      - O R C A' S   B I G   F R I E N D -                    
                                      &                                       
                       - I N T E G R A L  F E E D E R -                       
                                                                              
 v1 FN, 2020, v2 2021, v3 2022-2024                                           
------------------------------------------------------------------------------


----------------------
SHARK INTEGRAL PACKAGE
----------------------

Number of atoms                             ...     40
Number of basis functions                   ...    840
Number of shells                            ...    328
Maximum angular momentum                    ...      3
Integral batch strategy                     ... SHARK/LIBINT Hybrid
RI-J (if used) integral strategy            ... SPLIT-RIJ (Revised 2003 algorithm where possible)
Printlevel                                  ...      1
Contraction scheme used                     ... SEGMENTED contraction
Prescreening option                         ... SCHWARTZ
   Thresh                                   ... 2.500e-11
   Tcut                                     ... 2.500e-12
   Tpresel                                  ... 2.500e-12 
Coulomb Range Separation                    ... NOT USED
Exchange Range Separation                   ... Long Range
   Mu parameter                             ... 3.300e-01
   Scaling (regular/separated)              ... 1.900e-01 4.600e-01
Robust (split-)RI terms used:
  metric    (central integrals)             ... YES
  density   (r.h.s.  integrals)             ... YES
  potential (l.h.s.  integrals)             ... YES
Multipole approximations                    ... NOT USED
Finite Nucleus Model                        ... NOT USED
CABS basis                                  ... NOT available
Auxiliary Coulomb fitting basis             ... AVAILABLE
   # of basis functions in Aux-J            ...   1352
   # of shells in Aux-J                     ...    440
   Maximum angular momentum in Aux-J        ...      4
Auxiliary J/K fitting basis                 ... NOT available
Auxiliary Correlation fitting basis         ... NOT available
Auxiliary 'external' fitting basis          ... NOT available

Checking pre-screening integrals            ... done (  0.0 sec) Dimension = 328
   => SHARK Basis and OBASIS are compatible. Storing Pre-screening
Shell pair information
Shell pair cut-off parameter TPreSel        ...   2.5e-12
Total number of shell pairs                 ...     53956
Shell pairs after pre-screening             ...     37824
Total number of primitive shell pairs       ...    166752
Primitive shell pairs kept                  ...     76791
          la=0 lb=0:   9536 shell pairs
          la=1 lb=0:  10889 shell pairs
          la=1 lb=1:   3113 shell pairs
          la=2 lb=0:   5384 shell pairs
          la=2 lb=1:   3181 shell pairs
          la=2 lb=2:    840 shell pairs
          la=3 lb=0:   2501 shell pairs
          la=3 lb=1:   1492 shell pairs
          la=3 lb=2:    718 shell pairs
          la=3 lb=3:    170 shell pairs

Checking whether 4 symmetric matrices of dimension 840 fit in memory
:Max Core in MB      =   3000.00
 MB in use           =     49.17
 MB left             =   2950.83
 MB needed           =     10.78
 Data fit in memory  = YES
Calculating RI/J V-Matrix + Cholesky decomp.... done (  0.2 sec)
Calculating Nuclear repulsion               ... done (  0.0 sec) ENN=   1892.562551637881 Eh

Diagonalization of the overlap matrix:
Smallest eigenvalue                        ... 1.002e-05
Time for diagonalization                   ...    0.361 sec
Threshold for overlap eigenvalues          ... 1.000e-07
Number of eigenvalues below threshold      ... 0
Time for construction of square roots      ...    0.156 sec
Total time needed                          ...    0.533 sec

-------------------
DFT GRID GENERATION
-------------------

General Integration Accuracy     IntAcc      ... 4.959
Radial Grid Type                 RadialGrid  ... OptM3 with GC (2021)
Angular Grid (max. ang.)         AngularGrid ... 6 (Lebedev-590)
Angular grid pruning method      GridPruning ... 4 (adaptive)
Weight generation scheme         WeightScheme... mBecke (2022)
Basis function cutoff            BFCut       ... 1.0000e-11
Integration weight cutoff        WCut        ... 1.0000e-14
Partially contracted basis set               ... off
Rotationally invariant grid construction     ... off
Angular grids for H and He will be reduced by one unit

Total number of grid points                  ...   475615
Total number of batches                      ...     7453
Average number of points per batch           ...       63
Average number of grid points per atom       ...    11890

--------------------
COSX GRID GENERATION
--------------------

GRIDX 1
-------
General Integration Accuracy     IntAcc      ... 4.020
Radial Grid Type                 RadialGrid  ... OptM3 with GC (2021)
Angular Grid (max. ang.)         AngularGrid ... 2 (Lebedev-110)
Angular grid pruning method      GridPruning ... 4 (adaptive)
Weight generation scheme         WeightScheme... mBecke (2022)
Basis function cutoff            BFCut       ... 1.0000e-11
Integration weight cutoff        WCut        ... 1.0000e-14
Partially contracted basis set               ... on
Rotationally invariant grid construction     ... off
Angular grids for H and He will be reduced by one unit

Total number of grid points                  ...    53828
Total number of batches                      ...      442
Average number of points per batch           ...      121
Average number of grid points per atom       ...     1346
UseSFitting                                  ... on

GRIDX 2
-------
General Integration Accuracy     IntAcc      ... 4.338
Radial Grid Type                 RadialGrid  ... OptM3 with GC (2021)
Angular Grid (max. ang.)         AngularGrid ... 3 (Lebedev-194)
Angular grid pruning method      GridPruning ... 4 (adaptive)
Weight generation scheme         WeightScheme... mBecke (2022)
Basis function cutoff            BFCut       ... 1.0000e-11
Integration weight cutoff        WCut        ... 1.0000e-14
Partially contracted basis set               ... on
Rotationally invariant grid construction     ... off
Angular grids for H and He will be reduced by one unit

Total number of grid points                  ...   117983
Total number of batches                      ...      942
Average number of points per batch           ...      125
Average number of grid points per atom       ...     2950
UseSFitting                                  ... on

GRIDX 3
-------
General Integration Accuracy     IntAcc      ... 4.871
Radial Grid Type                 RadialGrid  ... OptM3 with GC (2021)
Angular Grid (max. ang.)         AngularGrid ... 4 (Lebedev-302)
Angular grid pruning method      GridPruning ... 4 (adaptive)
Weight generation scheme         WeightScheme... mBecke (2022)
Basis function cutoff            BFCut       ... 1.0000e-11
Integration weight cutoff        WCut        ... 1.0000e-14
Partially contracted basis set               ... on
Rotationally invariant grid construction     ... off
Angular grids for H and He will be reduced by one unit

Total number of grid points                  ...   218991
Total number of batches                      ...     1733
Average number of points per batch           ...      126
Average number of grid points per atom       ...     5475
UseSFitting                                  ... on
Grids setup in  24.4 sec
Initializing property integral containers    ... done (  0.0 sec)

SHARK setup successfully completed in  26.5 seconds

Maximum memory used throughout the entire STARTUP-calculation: 151.3 MB


           ************************************************************
           *        Program running with 4 parallel MPI-processes     *
           *              working on a common directory               *
           ************************************************************
-------------------------------------------------------------------------------
                                 ORCA GUESS
                   Start orbitals & Density for SCF / CASSCF
-------------------------------------------------------------------------------

------------
SCF SETTINGS
------------
Hamiltonian:
 Density Functional     Method          .... DFT(GTOs)
 Exchange Functional    Exchange        .... WB88
 Correlation Functional Correlation     .... LYP
 LDA part of GGA corr.  LDAOpt          .... VWN-5
 Gradients option       PostSCFGGA      .... off
 Hybrid DFT is turned on
   Fraction HF Exchange ScalHFX         ....  0.190000
   Scaling of DF-GGA-X  ScalDFX         ....  0.350000
   Scaling of DF-GGA-C  ScalDFC         ....  0.810000
   Scaling of DF-LDA-C  ScalLDAC        ....  1.000000
   Perturbative correction              ....  0.000000
 Long-range corrected/Screened/Range-Separated Hybrid DFT is turned on
   Amount of maximum screened exact exchange              ....  0.460000
   Range separation parameter mu (erf(mu*r12)/r12)        ....  0.330000
 RI-approximation to the Coulomb term is turned on
   Number of AuxJ basis functions       .... 1352
   RIJ-COSX (HFX calculated with COS-X)).... on


General Settings:
 Integral files         IntName         .... tddft
 Hartree-Fock type      HFTyp           .... RHF
 Total Charge           Charge          ....    0
 Multiplicity           Mult            ....    1
 Number of Electrons    NEL             ....  164
 Basis Dimension        Dim             ....  840
 Nuclear Repulsion      ENuc            ....   1892.5625516379 Eh

Convergence Acceleration:
 AO-DIIS                CNVDIIS         .... on
   Start iteration      DIISMaxIt       ....    12
   Startup error        DIISStart       ....  0.200000
   # of expansion vecs  DIISMaxEq       ....     5
   Bias factor          DIISBfac        ....   1.050
   Max. coefficient     DIISMaxC        ....  10.000
 MO-DIIS                CNVKDIIS        .... off
 Trust-Rad. Augm. Hess. CNVTRAH         .... auto
   Auto Start mean grad. ratio tolernc. ....  1.125000
   Auto Start start iteration           ....     1
   Auto Start num. interpolation iter.  ....    10
   Max. Number of Micro iterations      ....    24
   Max. Number of Macro iterations      .... Maxiter - #DIIS iter
   Number of Davidson start vectors     ....     2
   Converg. threshold    (grad. norm)   ....   1.000e-05
   Grad. Scal. Fac. for Micro threshold ....   0.100
   Minimum threshold for Micro iter.    ....   1.000e-02
   NR start threshold (gradient norm)   ....   1.000e-04
   Initial trust radius                 ....   0.400
   Minimum AH scaling param. (alpha)    ....   1.000
   Maximum AH scaling param. (alpha)    .... 1000.000
   Quad. conv. algorithm                .... NR
   White noise on init. David. guess    .... on
   Maximum white noise                  ....   0.010
   Pseudo random numbers                .... off
   Inactive MOs                         .... canonical
   Orbital update algorithm             .... Taylor
   Preconditioner                       .... Diag
   Full preconditioner red. dimension   ....   250
 SOSCF                 CNVSOSCF           .... on
   Start iteration     SOSCFMaxIt         ....   150
   Startup grad/error  SOSCFStart         ....  0.003300
   Hessian update      SOSCFHessUp        .... L-BFGS
   Autom. constraints  SOSCFAutoConstrain .... off
 Level Shifting         CNVShift        .... on
   Level shift para.    LevelShift      ....    0.2500
   Turn off err/grad.   ShiftErr        ....    0.0010
 Zerner damping         CNVZerner       .... off
 Static damping         CNVDamp         .... on
   Fraction old density DampFac         ....    0.7000
   Max. Damping (<1)    DampMax         ....    0.9800
   Min. Damping (>=0)   DampMin         ....    0.0000
   Turn off err/grad.   DampErr         ....    0.1000

SCF Procedure:
 Maximum # iterations   MaxIter         ....   125
 SCF integral mode      SCFMode         .... Direct
   Integral package                     .... SHARK and LIBINT hybrid scheme
 Reset frequency        DirectResetFreq ....    20
 Integral Threshold     Thresh          ....  2.500e-11 Eh
 Primitive CutOff       TCut            ....  2.500e-12 Eh

Convergence Tolerance:
 Convergence Check Mode ConvCheckMode   .... Total+1el-Energy
 Convergence forced     ConvForced      .... 1
 Energy Change          TolE            ....  1.000e-08 Eh
 1-El. energy change                    ....  1.000e-05 Eh
 Orbital Gradient       TolG            ....  1.000e-05
 Orbital Rotation angle TolX            ....  1.000e-05
 DIIS Error             TolErr          ....  5.000e-07

---------------------
INITIAL GUESS: MOREAD
---------------------
Guess MOs are being read from file: tddft.ges
Input Geometry matches current geometry (good)
Input basis set matches current basis set (good)
Occupation numbers will be reassigned to an Aufbau configuration
MOs were renormalized
MOs were reorthogonalized (Cholesky)
                      ------------------
                      INITIAL GUESS DONE (   0.9 sec)
                      ------------------
             **** ENERGY FILE WAS UPDATED (tddft.en.tmp) ****
Finished Guess after   1.6 sec
Maximum memory used throughout the entire GUESS-calculation: 93.0 MB


           ************************************************************
           *        Program running with 4 parallel MPI-processes     *
           *              working on a common directory               *
           ************************************************************

-------------------------------------------------------------------------------------------
                                      ORCA LEAN-SCF
                              memory conserving SCF solver
-------------------------------------------------------------------------------------------

--------------------
CPCM SOLVATION MODEL
--------------------
CPCM parameters:
  Epsilon                                         ...       8.9990
  Refrac                                          ...       1.4242
  Rsolv                                           ...       1.3000
  Surface type                                    ... GAUSSIAN VDW
  Discretization scheme                           ... Constant charge density
    Threshold for H atoms                         ...       5.0000 (charges/Ang^2)
    Threshold for non-H atoms                     ...       5.0000 (charges/Ang^2)
  Epsilon function type                           ...         CPCM
Solvent:                                          ... DICHLOROMETHANE
Radii:
  Scheme                                          ... Element-dependent radii
  Radius for N  used is    3.5149 Bohr (=   1.8600 Ang.)
  Radius for C  used is    3.8550 Bohr (=   2.0400 Ang.)
  Radius for H  used is    2.4944 Bohr (=   1.3200 Ang.)
Calculating surface                               ...        done! (  0.0s)
Cavity surface points                             ...         3539
Cavity Volume                                     ...    2470.9683
Cavity Surface-area                               ...    1207.5649
Calculating surface distance matrix               ...        done! (  0.4s)
Performing Cholesky decomposition & store         ...        done! (  0.8s)
Overall time for CPCM initialization              ...                 1.2s

----------------------------------------D-I-I-S--------------------------------------------
Iteration    Energy (Eh)           Delta-E    RMSDP     MaxDP     DIISErr   Damp  Time(sec)
-------------------------------------------------------------------------------------------
               ***  Starting incremental Fock matrix formation  ***
                              *** Initializing SOSCF ***
---------------------------------------S-O-S-C-F--------------------------------------
Iteration    Energy (Eh)           Delta-E    RMSDP     MaxDP     MaxGrad    Time(sec)
--------------------------------------------------------------------------------------
    1    -990.5899489901266861     0.00e+00  7.81e-06  2.08e-04  2.47e-07   181.4
               *** Restarting incremental Fock matrix formation ***
    2    -990.5899489903808899    -2.54e-10  1.79e-06  5.07e-05  3.22e-07   190.0
                  *** Gradient check signals convergence ***

               *****************************************************
               *                     SUCCESS                       *
               *           SCF CONVERGED AFTER   2 CYCLES          *
               *****************************************************

Recomputing exchange energy using gridx3       ... done (  536.160 sec)
Old exchange energy                            :    -38.615580242 Eh
New exchange energy                            :    -38.615591813 Eh
Exchange energy change after final integration :     -0.000011571 Eh
Total energy after final integration           :   -990.589960639 Eh
             **** ENERGY FILE WAS UPDATED (tddft.en.tmp) ****

----------------
TOTAL SCF ENERGY
----------------

Total Energy       :       -990.58996063896279 Eh          -26955.32321 eV

Components:
Nuclear Repulsion  :       1892.56255163788092 Eh           51499.24520 eV
Electronic Energy  :      -2883.13590720525781 Eh          -78454.11657 eV
One Electron Energy:      -5102.94487463998939 Eh         -138858.18945 eV
Two Electron Energy:       2219.80896743473158 Eh           60404.07289 eV
CPCM Dielectric    :         -0.01659350040797 Eh              -0.45153 eV

Virial components:
Potential Energy   :      -1976.76493573470270 Eh          -53790.50856 eV
Kinetic Energy     :        986.17497509574002 Eh           26835.18535 eV
Virial Ratio       :          2.00447687849998

DFT components:
N(Alpha)           :       81.999987377822 electrons
N(Beta)            :       81.999987377822 electrons
N(Total)           :      163.999974755644 electrons
E(XC)              :     -103.326482397432 Eh       

CPCM Solvation Model Properties:
Surface-charge          :         -0.03906190746927
Corrected charge        :          0.00000000000000
Outlying charge corr.   :          0.00007250444805 Eh               0.00197 eV
Free-energy (cav+disp)  :  This term is not implemented in the current solvation scheme

---------------
SCF CONVERGENCE
---------------

  Last Energy change         ...    2.5420e-10  Tolerance :   1.0000e-08
  Last MAX-Density change    ...    5.0664e-05  Tolerance :   1.0000e-07
  Last RMS-Density change    ...    1.7888e-06  Tolerance :   5.0000e-09
  Last DIIS Error            ...    1.0709e-06  Tolerance :   5.0000e-07
  Last Orbital Gradient      ...    3.2195e-07  Tolerance :   1.0000e-05
  Last Orbital Rotation      ...    1.8292e-06  Tolerance :   1.0000e-05


----------------
ORBITAL ENERGIES
----------------

  NO   OCC          E(Eh)            E(eV) 
   0   2.0000     -14.427751      -392.5991 
   1   2.0000     -14.427730      -392.5985 
   2   2.0000     -14.383861      -391.4047 
   3   2.0000     -14.364978      -390.8909 
   4   2.0000     -10.302482      -280.3448 
   5   2.0000     -10.302474      -280.3446 
   6   2.0000     -10.292343      -280.0689 
   7   2.0000     -10.292302      -280.0678 
   8   2.0000     -10.291292      -280.0403 
   9   2.0000     -10.291286      -280.0401 
  10   2.0000     -10.271893      -279.5124 
  11   2.0000     -10.271847      -279.5112 
  12   2.0000     -10.262623      -279.2602 
  13   2.0000     -10.262601      -279.2596 
  14   2.0000     -10.257953      -279.1331 
  15   2.0000     -10.257944      -279.1329 
  16   2.0000     -10.251966      -278.9702 
  17   2.0000     -10.251964      -278.9701 
  18   2.0000     -10.246581      -278.8236 
  19   2.0000     -10.246377      -278.8181 
  20   2.0000     -10.244516      -278.7675 
  21   2.0000     -10.244508      -278.7672 
  22   2.0000     -10.239292      -278.6253 
  23   2.0000     -10.238533      -278.6046 
  24   2.0000      -1.078346       -29.3433 
  25   2.0000      -1.076538       -29.2941 
  26   2.0000      -1.037650       -28.2359 
  27   2.0000      -1.029046       -28.0018 
  28   2.0000      -0.905994       -24.6534 
  29   2.0000      -0.882288       -24.0083 
  30   2.0000      -0.877674       -23.8827 
  31   2.0000      -0.876088       -23.8396 
  32   2.0000      -0.874303       -23.7910 
  33   2.0000      -0.849611       -23.1191 
  34   2.0000      -0.838517       -22.8172 
  35   2.0000      -0.824438       -22.4341 
  36   2.0000      -0.806282       -21.9400 
  37   2.0000      -0.741541       -20.1783 
  38   2.0000      -0.739983       -20.1360 
  39   2.0000      -0.690195       -18.7812 
  40   2.0000      -0.680134       -18.5074 
  41   2.0000      -0.672011       -18.2864 
  42   2.0000      -0.661775       -18.0078 
  43   2.0000      -0.656944       -17.8764 
  44   2.0000      -0.651540       -17.7293 
  45   2.0000      -0.648686       -17.6516 
  46   2.0000      -0.625895       -17.0315 
  47   2.0000      -0.588334       -16.0094 
  48   2.0000      -0.576419       -15.6852 
  49   2.0000      -0.573146       -15.5961 
  50   2.0000      -0.565079       -15.3766 
  51   2.0000      -0.546676       -14.8758 
  52   2.0000      -0.528894       -14.3919 
  53   2.0000      -0.518602       -14.1119 
  54   2.0000      -0.513705       -13.9786 
  55   2.0000      -0.512975       -13.9588 
  56   2.0000      -0.510799       -13.8996 
  57   2.0000      -0.505936       -13.7672 
  58   2.0000      -0.494876       -13.4663 
  59   2.0000      -0.490647       -13.3512 
  60   2.0000      -0.480264       -13.0687 
  61   2.0000      -0.479600       -13.0506 
  62   2.0000      -0.475005       -12.9255 
  63   2.0000      -0.460023       -12.5179 
  64   2.0000      -0.446954       -12.1622 
  65   2.0000      -0.446154       -12.1405 
  66   2.0000      -0.442419       -12.0388 
  67   2.0000      -0.439111       -11.9488 
  68   2.0000      -0.431323       -11.7369 
  69   2.0000      -0.431021       -11.7287 
  70   2.0000      -0.424555       -11.5527 
  71   2.0000      -0.423249       -11.5172 
  72   2.0000      -0.389759       -10.6059 
  73   2.0000      -0.347294        -9.4504 
  74   2.0000      -0.343534        -9.3480 
  75   2.0000      -0.341180        -9.2840 
  76   2.0000      -0.334115        -9.0917 
  77   2.0000      -0.333793        -9.0830 
  78   2.0000      -0.327030        -8.8989 
  79   2.0000      -0.303278        -8.2526 
  80   2.0000      -0.243072        -6.6143 
  81   2.0000      -0.227626        -6.1940 
  82   0.0000      -0.067070        -1.8251 
  83   0.0000      -0.044367        -1.2073 
  84   0.0000       0.037556         1.0220 
  85   0.0000       0.071598         1.9483 
  86   0.0000       0.076546         2.0829 
  87   0.0000       0.095713         2.6045 
  88   0.0000       0.099967         2.7202 
  89   0.0000       0.101353         2.7580 
  90   0.0000       0.109382         2.9764 
  91   0.0000       0.110430         3.0050 
  92   0.0000       0.111105         3.0233 
*Only the first 10 virtual orbitals were printed.

                    ********************************
                    * MULLIKEN POPULATION ANALYSIS *
                    ********************************

-----------------------
MULLIKEN ATOMIC CHARGES
-----------------------
   0 N :   -0.379815
   1 N :   -0.192545
   2 N :   -0.192598
   3 N :   -0.453560
   4 C :   -0.191755
   5 C :   -0.192206
   6 C :    0.178362
   7 C :    0.179079
   8 C :   -0.370575
   9 C :   -0.370558
  10 C :    0.236492
  11 C :    0.236148
  12 C :    0.203491
  13 C :    0.203566
  14 C :   -0.230916
  15 C :   -0.231006
  16 C :   -0.219653
  17 C :   -0.219518
  18 C :   -0.315705
  19 C :   -0.315828
  20 C :    0.234958
  21 C :    0.234896
  22 C :   -0.241405
  23 C :   -0.241400
  24 H :    0.133931
  25 H :    0.136187
  26 H :    0.133957
  27 H :    0.136245
  28 H :    0.157851
  29 H :    0.157843
  30 H :    0.235916
  31 H :    0.236006
  32 H :    0.167872
  33 H :    0.167843
  34 H :    0.170609
  35 H :    0.170636
  36 H :    0.167686
  37 H :    0.167697
  38 H :    0.155889
  39 H :    0.155884
Sum of atomic charges:    0.0000000

--------------------------------
MULLIKEN REDUCED ORBITAL CHARGES
--------------------------------
  0 N s       :     3.633628  s :     3.633628
      pz      :     1.206787  p :     3.685045
      px      :     1.287651
      py      :     1.190608
      dz2     :     0.004606  d :     0.057713
      dxz     :     0.010546
      dyz     :     0.011120
      dx2y2   :     0.018011
      dxy     :     0.013430
      f0      :     0.000605  f :     0.003429
      f+1     :     0.000258
      f-1     :     0.000276
      f+2     :     0.000462
      f-2     :     0.000132
      f+3     :     0.000951
      f-3     :     0.000745

  1 N s       :     3.461864  s :     3.461864
      pz      :     1.526480  p :     3.666348
      px      :     1.074154
      py      :     1.065714
      dz2     :     0.004691  d :     0.059856
      dxz     :     0.011403
      dyz     :     0.008887
      dx2y2   :     0.015104
      dxy     :     0.019770
      f0      :     0.000805  f :     0.004478
      f+1     :     0.000568
      f-1     :     0.000599
      f+2     :     0.000573
      f-2     :     0.000074
      f+3     :     0.000891
      f-3     :     0.000969

  2 N s       :     3.461895  s :     3.461895
      pz      :     1.526477  p :     3.666375
      px      :     1.062699
      py      :     1.077200
      dz2     :     0.004692  d :     0.059850
      dxz     :     0.011235
      dyz     :     0.009051
      dx2y2   :     0.014644
      dxy     :     0.020228
      f0      :     0.000805  f :     0.004478
      f+1     :     0.000572
      f-1     :     0.000595
      f+2     :     0.000559
      f-2     :     0.000087
      f+3     :     0.000845
      f-3     :     0.001014

  3 N s       :     3.631629  s :     3.631629
      pz      :     1.276728  p :     3.760602
      px      :     1.288413
      py      :     1.195461
      dz2     :     0.004819  d :     0.057824
      dxz     :     0.010552
      dyz     :     0.011558
      dx2y2   :     0.018015
      dxy     :     0.012880
      f0      :     0.000608  f :     0.003504
      f+1     :     0.000304
      f-1     :     0.000316
      f+2     :     0.000615
      f-2     :     0.000123
      f+3     :     0.000843
      f-3     :     0.000695

  4 C s       :     3.206482  s :     3.206482
      pz      :     1.060436  p :     2.906070
      px      :     0.875683
      py      :     0.969951
      dz2     :     0.002163  d :     0.073310
      dxz     :     0.015872
      dyz     :     0.016459
      dx2y2   :     0.022836
      dxy     :     0.015981
      f0      :     0.000565  f :     0.005892
      f+1     :     0.000120
      f-1     :     0.001374
      f+2     :     0.000284
      f-2     :     0.000776
      f+3     :     0.001374
      f-3     :     0.001398

  5 C s       :     3.207123  s :     3.207123
      pz      :     1.060429  p :     2.905847
      px      :     0.963210
      py      :     0.882208
      dz2     :     0.002172  d :     0.073343
      dxz     :     0.015766
      dyz     :     0.016570
      dx2y2   :     0.022755
      dxy     :     0.016081
      f0      :     0.000568  f :     0.005893
      f+1     :     0.001404
      f-1     :     0.000087
      f+2     :     0.000258
      f-2     :     0.000802
      f+3     :     0.001178
      f-3     :     0.001596

  6 C s       :     3.179636  s :     3.179636
      pz      :     0.847832  p :     2.478238
      px      :     0.857023
      py      :     0.773383
      dz2     :     0.002667  d :     0.149842
      dxz     :     0.027272
      dyz     :     0.036590
      dx2y2   :     0.041340
      dxy     :     0.041973
      f0      :     0.001937  f :     0.013921
      f+1     :     0.000646
      f-1     :     0.001059
      f+2     :     0.001563
      f-2     :     0.001189
      f+3     :     0.005039
      f-3     :     0.002489

  7 C s       :     3.179407  s :     3.179407
      pz      :     0.847799  p :     2.477727
      px      :     0.788958
      py      :     0.840970
      dz2     :     0.002670  d :     0.149862
      dxz     :     0.032486
      dyz     :     0.031389
      dx2y2   :     0.043386
      dxy     :     0.039931
      f0      :     0.001937  f :     0.013924
      f+1     :     0.001056
      f-1     :     0.000649
      f+2     :     0.001357
      f-2     :     0.001396
      f+3     :     0.003588
      f-3     :     0.003941

  8 C s       :     3.321732  s :     3.321732
      pz      :     1.106337  p :     2.980676
      px      :     0.854108
      py      :     1.020232
      dz2     :     0.003475  d :     0.061109
      dxz     :     0.022728
      dyz     :     0.003426
      dx2y2   :     0.023324
      dxy     :     0.008156
      f0      :     0.001485  f :     0.007057
      f+1     :     0.000549
      f-1     :     0.000622
      f+2     :     0.000431
      f-2     :     0.000704
      f+3     :     0.001888
      f-3     :     0.001377

  9 C s       :     3.321523  s :     3.321523
      pz      :     1.106326  p :     2.980897
      px      :     1.006562
      py      :     0.868009
      dz2     :     0.003473  d :     0.061082
      dxz     :     0.003262
      dyz     :     0.022889
      dx2y2   :     0.023375
      dxy     :     0.008082
      f0      :     0.001485  f :     0.007057
      f+1     :     0.000623
      f-1     :     0.000548
      f+2     :     0.000425
      f-2     :     0.000710
      f+3     :     0.001405
      f-3     :     0.001860

 10 C s       :     3.151758  s :     3.151758
      pz      :     0.882002  p :     2.453898
      px      :     0.840780
      py      :     0.731116
      dz2     :     0.004760  d :     0.143761
      dxz     :     0.038262
      dyz     :     0.034566
      dx2y2   :     0.034401
      dxy     :     0.031772
      f0      :     0.002272  f :     0.014091
      f+1     :     0.000753
      f-1     :     0.001076
      f+2     :     0.002004
      f-2     :     0.001236
      f+3     :     0.003931
      f-3     :     0.002819

 11 C s       :     3.151805  s :     3.151805
      pz      :     0.881974  p :     2.454215
      px      :     0.712831
      py      :     0.859411
      dz2     :     0.004764  d :     0.143742
      dxz     :     0.037283
      dyz     :     0.035544
      dx2y2   :     0.040692
      dxy     :     0.025460
      f0      :     0.002272  f :     0.014090
      f+1     :     0.001129
      f-1     :     0.000699
      f+2     :     0.002500
      f-2     :     0.000741
      f+3     :     0.002430
      f-3     :     0.004319

 12 C s       :     3.136434  s :     3.136434
      pz      :     0.962462  p :     2.509761
      px      :     0.702714
      py      :     0.844585
      dz2     :     0.005157  d :     0.136437
      dxz     :     0.035147
      dyz     :     0.030526
      dx2y2   :     0.040225
      dxy     :     0.025382
      f0      :     0.002276  f :     0.013876
      f+1     :     0.001133
      f-1     :     0.000715
      f+2     :     0.002479
      f-2     :     0.000566
      f+3     :     0.002401
      f-3     :     0.004307

 13 C s       :     3.136457  s :     3.136457
      pz      :     0.962392  p :     2.509644
      px      :     0.827074
      py      :     0.720178
      dz2     :     0.005154  d :     0.136456
      dxz     :     0.032379
      dyz     :     0.033301
      dx2y2   :     0.033781
      dxy     :     0.031840
      f0      :     0.002276  f :     0.013878
      f+1     :     0.000761
      f-1     :     0.001087
      f+2     :     0.001963
      f-2     :     0.001083
      f+3     :     0.003955
      f-3     :     0.002754

 14 C s       :     3.269212  s :     3.269212
      pz      :     1.022381  p :     2.879802
      px      :     0.881480
      py      :     0.975942
      dz2     :     0.005166  d :     0.074226
      dxz     :     0.020434
      dyz     :     0.007737
      dx2y2   :     0.026619
      dxy     :     0.014269
      f0      :     0.001527  f :     0.007675
      f+1     :     0.000433
      f-1     :     0.000803
      f+2     :     0.000093
      f-2     :     0.001201
      f+3     :     0.002166
      f-3     :     0.001453

 15 C s       :     3.269686  s :     3.269686
      pz      :     1.022275  p :     2.879408
      px      :     0.980279
      py      :     0.876855
      dz2     :     0.005168  d :     0.074237
      dxz     :     0.009246
      dyz     :     0.018928
      dx2y2   :     0.026565
      dxy     :     0.014331
      f0      :     0.001527  f :     0.007675
      f+1     :     0.000761
      f-1     :     0.000475
      f+2     :     0.000396
      f-2     :     0.000898
      f+3     :     0.001972
      f-3     :     0.001647

 16 C s       :     3.283281  s :     3.283281
      pz      :     0.973709  p :     2.850505
      px      :     0.989621
      py      :     0.887176
      dz2     :     0.005055  d :     0.078114
      dxz     :     0.009932
      dyz     :     0.022967
      dx2y2   :     0.025963
      dxy     :     0.014197
      f0      :     0.001505  f :     0.007753
      f+1     :     0.000744
      f-1     :     0.000454
      f+2     :     0.000521
      f-2     :     0.000931
      f+3     :     0.001990
      f-3     :     0.001608

 17 C s       :     3.282854  s :     3.282854
      pz      :     0.973754  p :     2.850810
      px      :     0.890861
      py      :     0.986195
      dz2     :     0.005055  d :     0.078101
      dxz     :     0.025055
      dyz     :     0.007836
      dx2y2   :     0.026407
      dxy     :     0.013748
      f0      :     0.001505  f :     0.007753
      f+1     :     0.000412
      f-1     :     0.000786
      f+2     :     0.000128
      f-2     :     0.001324
      f+3     :     0.002131
      f-3     :     0.001467

 18 C s       :     3.332513  s :     3.332513
      pz      :     0.975733  p :     2.901408
      px      :     1.034319
      py      :     0.891356
      dz2     :     0.003564  d :     0.074794
      dxz     :     0.003249
      dyz     :     0.032071
      dx2y2   :     0.026377
      dxy     :     0.009532
      f0      :     0.001411  f :     0.006990
      f+1     :     0.000579
      f-1     :     0.000490
      f+2     :     0.000412
      f-2     :     0.000828
      f+3     :     0.001340
      f-3     :     0.001929

 19 C s       :     3.332860  s :     3.332860
      pz      :     0.975772  p :     2.901186
      px      :     0.884113
      py      :     1.041301
      dz2     :     0.003563  d :     0.074792
      dxz     :     0.031713
      dyz     :     0.003597
      dx2y2   :     0.026111
      dxy     :     0.009808
      f0      :     0.001411  f :     0.006990
      f+1     :     0.000486
      f-1     :     0.000583
      f+2     :     0.000447
      f-2     :     0.000793
      f+3     :     0.001863
      f-3     :     0.001407

 20 C s       :     3.134107  s :     3.134107
      pz      :     0.940774  p :     2.473336
      px      :     0.767005
      py      :     0.765557
      dz2     :     0.004408  d :     0.143479
      dxz     :     0.033122
      dyz     :     0.027987
      dx2y2   :     0.039990
      dxy     :     0.037973
      f0      :     0.002109  f :     0.014120
      f+1     :     0.001057
      f-1     :     0.000750
      f+2     :     0.001594
      f-2     :     0.001083
      f+3     :     0.003299
      f-3     :     0.004228

 21 C s       :     3.134189  s :     3.134189
      pz      :     0.940690  p :     2.473320
      px      :     0.773002
      py      :     0.759627
      dz2     :     0.004414  d :     0.143476
      dxz     :     0.027130
      dyz     :     0.033968
      dx2y2   :     0.037111
      dxy     :     0.040854
      f0      :     0.002109  f :     0.014120
      f+1     :     0.000712
      f-1     :     0.001094
      f+2     :     0.002050
      f-2     :     0.000628
      f+3     :     0.005056
      f-3     :     0.002471

 22 C s       :     3.272216  s :     3.272216
      pz      :     1.010141  p :     2.885961
      px      :     0.970678
      py      :     0.905141
      dz2     :     0.004772  d :     0.075479
      dxz     :     0.007221
      dyz     :     0.022341
      dx2y2   :     0.026518
      dxy     :     0.014627
      f0      :     0.001454  f :     0.007749
      f+1     :     0.000763
      f-1     :     0.000389
      f+2     :     0.000075
      f-2     :     0.001340
      f+3     :     0.001515
      f-3     :     0.002215

 23 C s       :     3.272489  s :     3.272489
      pz      :     1.010107  p :     2.885694
      px      :     0.898494
      py      :     0.977094
      dz2     :     0.004771  d :     0.075468
      dxz     :     0.020670
      dyz     :     0.008886
      dx2y2   :     0.027255
      dxy     :     0.013886
      f0      :     0.001454  f :     0.007749
      f+1     :     0.000433
      f-1     :     0.000719
      f+2     :     0.000407
      f-2     :     0.001007
      f+3     :     0.001686
      f-3     :     0.002043

 24 H s       :     0.844651  s :     0.844651
      pz      :     0.010063  p :     0.021418
      px      :     0.004150
      py      :     0.007205

 25 H s       :     0.842442  s :     0.842442
      pz      :     0.009311  p :     0.021371
      px      :     0.004128
      py      :     0.007932

 26 H s       :     0.844625  s :     0.844625
      pz      :     0.010094  p :     0.021418
      px      :     0.007338
      py      :     0.003986

 27 H s       :     0.842386  s :     0.842386
      pz      :     0.009273  p :     0.021369
      px      :     0.008099
      py      :     0.003997

 28 H s       :     0.819729  s :     0.819729
      pz      :     0.005483  p :     0.022420
      px      :     0.003155
      py      :     0.013783

 29 H s       :     0.819736  s :     0.819736
      pz      :     0.005483  p :     0.022421
      px      :     0.013735
      py      :     0.003203

 30 H s       :     0.722006  s :     0.722006
      pz      :     0.010238  p :     0.042078
      px      :     0.013009
      py      :     0.018830

 31 H s       :     0.721912  s :     0.721912
      pz      :     0.010237  p :     0.042082
      px      :     0.014943
      py      :     0.016902

 32 H s       :     0.810107  s :     0.810107
      pz      :     0.004739  p :     0.022020
      px      :     0.003138
      py      :     0.014143

 33 H s       :     0.810138  s :     0.810138
      pz      :     0.004739  p :     0.022019
      px      :     0.013588
      py      :     0.003692

 34 H s       :     0.807533  s :     0.807533
      pz      :     0.004421  p :     0.021858
      px      :     0.013615
      py      :     0.003822

 35 H s       :     0.807505  s :     0.807505
      pz      :     0.004422  p :     0.021859
      px      :     0.003200
      py      :     0.014237

 36 H s       :     0.810274  s :     0.810274
      pz      :     0.004690  p :     0.022040
      px      :     0.014128
      py      :     0.003222

 37 H s       :     0.810264  s :     0.810264
      pz      :     0.004690  p :     0.022039
      px      :     0.003271
      py      :     0.014078

 38 H s       :     0.822221  s :     0.822221
      pz      :     0.004690  p :     0.021890
      px      :     0.013878
      py      :     0.003322

 39 H s       :     0.822227  s :     0.822227
      pz      :     0.004690  p :     0.021889
      px      :     0.003859
      py      :     0.013340



                     *******************************
                     * LOEWDIN POPULATION ANALYSIS *
                     *******************************

----------------------
LOEWDIN ATOMIC CHARGES
----------------------
   0 N :    0.119937
   1 N :    0.251073
   2 N :    0.251063
   3 N :    0.080697
   4 C :   -0.194917
   5 C :   -0.194956
   6 C :   -0.213341
   7 C :   -0.213440
   8 C :   -0.144871
   9 C :   -0.144862
  10 C :   -0.180481
  11 C :   -0.180468
  12 C :   -0.201950
  13 C :   -0.201951
  14 C :   -0.118311
  15 C :   -0.118222
  16 C :   -0.101394
  17 C :   -0.101429
  18 C :   -0.085380
  19 C :   -0.085366
  20 C :   -0.250001
  21 C :   -0.249906
  22 C :   -0.135060
  23 C :   -0.134994
  24 H :    0.150047
  25 H :    0.149162
  26 H :    0.150069
  27 H :    0.149164
  28 H :    0.166383
  29 H :    0.166396
  30 H :    0.188483
  31 H :    0.188502
  32 H :    0.151224
  33 H :    0.151254
  34 H :    0.153447
  35 H :    0.153420
  36 H :    0.170692
  37 H :    0.170678
  38 H :    0.144794
  39 H :    0.144814

-------------------------------
LOEWDIN REDUCED ORBITAL CHARGES
-------------------------------
  0 N s       :     3.031408  s :     3.031408
      pz      :     1.088759  p :     3.623383
      px      :     1.297871
      py      :     1.236752
      dz2     :     0.016840  d :     0.206024
      dxz     :     0.022686
      dyz     :     0.028607
      dx2y2   :     0.076629
      dxy     :     0.061262
      f0      :     0.001126  f :     0.019248
      f+1     :     0.001227
      f-1     :     0.001451
      f+2     :     0.002919
      f-2     :     0.000405
      f+3     :     0.006993
      f-3     :     0.005127

  1 N s       :     2.884516  s :     2.884516
      pz      :     1.340915  p :     3.613986
      px      :     1.134791
      py      :     1.138281
      dz2     :     0.013768  d :     0.232552
      dxz     :     0.034315
      dyz     :     0.025049
      dx2y2   :     0.071618
      dxy     :     0.087801
      f0      :     0.001173  f :     0.017873
      f+1     :     0.001684
      f-1     :     0.001761
      f+2     :     0.003557
      f-2     :     0.000405
      f+3     :     0.003490
      f-3     :     0.005803

  2 N s       :     2.884524  s :     2.884524
      pz      :     1.340925  p :     3.614005
      px      :     1.138101
      py      :     1.134979
      dz2     :     0.013770  d :     0.232535
      dxz     :     0.032379
      dyz     :     0.026976
      dx2y2   :     0.070133
      dxy     :     0.089277
      f0      :     0.001173  f :     0.017873
      f+1     :     0.001771
      f-1     :     0.001674
      f+2     :     0.003513
      f-2     :     0.000448
      f+3     :     0.003491
      f-3     :     0.005802

  3 N s       :     3.040480  s :     3.040480
      pz      :     1.151476  p :     3.659383
      px      :     1.283863
      py      :     1.224045
      dz2     :     0.016325  d :     0.200195
      dxz     :     0.024689
      dyz     :     0.031290
      dx2y2   :     0.071367
      dxy     :     0.056524
      f0      :     0.001065  f :     0.019244
      f+1     :     0.001204
      f-1     :     0.001395
      f+2     :     0.003729
      f-2     :     0.000316
      f+3     :     0.006518
      f-3     :     0.005019

  4 C s       :     2.765503  s :     2.765503
      pz      :     1.039415  p :     3.032057
      px      :     0.986270
      py      :     1.006371
      dz2     :     0.038302  d :     0.357103
      dxz     :     0.046085
      dyz     :     0.096967
      dx2y2   :     0.090073
      dxy     :     0.085676
      f0      :     0.003709  f :     0.040254
      f+1     :     0.003225
      f-1     :     0.004672
      f+2     :     0.004095
      f-2     :     0.005210
      f+3     :     0.009350
      f-3     :     0.009992

  5 C s       :     2.765498  s :     2.765498
      pz      :     1.039420  p :     3.032044
      px      :     1.004511
      py      :     0.988113
      dz2     :     0.038357  d :     0.357158
      dxz     :     0.095850
      dyz     :     0.047139
      dx2y2   :     0.084896
      dxy     :     0.090916
      f0      :     0.003715  f :     0.040256
      f+1     :     0.004708
      f-1     :     0.003176
      f+2     :     0.004209
      f-2     :     0.005109
      f+3     :     0.007719
      f-3     :     0.011621

  6 C s       :     2.724869  s :     2.724869
      pz      :     0.790057  p :     2.772628
      px      :     1.012687
      py      :     0.969884
      dz2     :     0.041064  d :     0.637977
      dxz     :     0.084359
      dyz     :     0.109118
      dx2y2   :     0.190223
      dxy     :     0.213212
      f0      :     0.005032  f :     0.077866
      f+1     :     0.004052
      f-1     :     0.006277
      f+2     :     0.010570
      f-2     :     0.006679
      f+3     :     0.031873
      f-3     :     0.013384

  7 C s       :     2.724846  s :     2.724846
      pz      :     0.790007  p :     2.772633
      px      :     0.964498
      py      :     1.018128
      dz2     :     0.041086  d :     0.638080
      dxz     :     0.098102
      dyz     :     0.095422
      dx2y2   :     0.194869
      dxy     :     0.208601
      f0      :     0.005033  f :     0.077881
      f+1     :     0.005950
      f-1     :     0.004383
      f+2     :     0.009624
      f-2     :     0.007629
      f+3     :     0.021612
      f-3     :     0.023651

  8 C s       :     2.749080  s :     2.749080
      pz      :     0.975416  p :     2.998398
      px      :     1.026803
      py      :     0.996179
      dz2     :     0.024411  d :     0.357429
      dxz     :     0.071468
      dyz     :     0.011346
      dx2y2   :     0.154301
      dxy     :     0.095904
      f0      :     0.003196  f :     0.039965
      f+1     :     0.004927
      f-1     :     0.003069
      f+2     :     0.002205
      f-2     :     0.005167
      f+3     :     0.012182
      f-3     :     0.009219

  9 C s       :     2.749067  s :     2.749067
      pz      :     0.975419  p :     2.998398
      px      :     0.992415
      py      :     1.030565
      dz2     :     0.024411  d :     0.357433
      dxz     :     0.011286
      dyz     :     0.071525
      dx2y2   :     0.150393
      dxy     :     0.099817
      f0      :     0.003196  f :     0.039964
      f+1     :     0.003070
      f-1     :     0.004925
      f+2     :     0.002060
      f-2     :     0.005311
      f+3     :     0.009193
      f-3     :     0.012209

 10 C s       :     2.699442  s :     2.699442
      pz      :     0.821214  p :     2.769468
      px      :     1.031234
      py      :     0.917019
      dz2     :     0.039934  d :     0.630552
      dxz     :     0.102730
      dyz     :     0.118953
      dx2y2   :     0.185724
      dxy     :     0.183210
      f0      :     0.005401  f :     0.081019
      f+1     :     0.004820
      f-1     :     0.006126
      f+2     :     0.013280
      f-2     :     0.008600
      f+3     :     0.025237
      f-3     :     0.017555

 11 C s       :     2.699442  s :     2.699442
      pz      :     0.821203  p :     2.769454
      px      :     0.915562
      py      :     1.032689
      dz2     :     0.039938  d :     0.630557
      dxz     :     0.125993
      dyz     :     0.095692
      dx2y2   :     0.195782
      dxy     :     0.173152
      f0      :     0.005400  f :     0.081015
      f+1     :     0.006461
      f-1     :     0.004486
      f+2     :     0.016319
      f-2     :     0.005559
      f+3     :     0.014132
      f-3     :     0.028658

 12 C s       :     2.695256  s :     2.695256
      pz      :     0.880214  p :     2.813095
      px      :     0.900641
      py      :     1.032240
      dz2     :     0.040229  d :     0.613863
      dxz     :     0.120447
      dyz     :     0.082445
      dx2y2   :     0.199962
      dxy     :     0.170780
      f0      :     0.005460  f :     0.079736
      f+1     :     0.006457
      f-1     :     0.004715
      f+2     :     0.015946
      f-2     :     0.004294
      f+3     :     0.014481
      f-3     :     0.028383

 13 C s       :     2.695254  s :     2.695254
      pz      :     0.880148  p :     2.813050
      px      :     1.031229
      py      :     0.901673
      dz2     :     0.040235  d :     0.613904
      dxz     :     0.086949
      dyz     :     0.115971
      dx2y2   :     0.188887
      dxy     :     0.181863
      f0      :     0.005460  f :     0.079742
      f+1     :     0.005043
      f-1     :     0.006130
      f+2     :     0.012658
      f-2     :     0.007584
      f+3     :     0.025467
[...]
  0-1A  ->  1-1A    2.121634   17112.1   584.4   0.174638258   0.02042   0.09040  -0.11069   0.00074
  0-1A  ->  2-1A    2.542300   20505.0   487.7   0.002353531   0.00033  -0.01410  -0.01145  -0.00003
  0-1A  ->  3-1A    3.391754   27356.3   365.5   1.516330692   0.28350   0.41251   0.33666   0.00077
  0-1A  ->  4-1A    3.526992   28447.1   351.5   1.217775879   0.23676   0.30753  -0.37708   0.00177
  0-1A  ->  5-1A    4.232552   34137.8   292.9   0.063618209   0.01484  -0.09454  -0.07684  -0.00018
  0-1A  ->  6-1A    4.443198   35836.8   279.0   0.223964204   0.05485   0.14804  -0.18149   0.00067
  0-1A  ->  7-1A    4.619673   37260.2   268.4   0.021454136   0.00546  -0.04656   0.05739   0.00144
  0-1A  ->  8-1A    4.640711   37429.9   267.2   0.001633608   0.00042   0.00922  -0.01133   0.01430
  0-1A  ->  9-1A    4.733427   38177.7   261.9   0.065189338   0.01701   0.10101   0.08250   0.00015
  0-1A  -> 10-1A    4.776914   38528.4   259.5   0.001474590   0.00039  -0.00562   0.00719   0.01746
  0-1A  -> 11-1A    4.983919   40198.0   248.8   0.052262369   0.01436  -0.07572   0.09287   0.00049
  0-1A  -> 12-1A    5.114966   41255.0   242.4   0.002319075   0.00065   0.01984   0.01614   0.00009
  0-1A  -> 13-1A    5.118924   41286.9   242.2   0.014173662   0.00400   0.04903   0.03995   0.00023
  0-1A  -> 14-1A    5.224391   42137.6   237.3   0.000013572   0.00000   0.00152   0.00127   0.00002
  0-1A  -> 15-1A    5.348992   43142.5   231.8   0.024486588   0.00722   0.06597   0.05355   0.00014
  0-1A  -> 16-1A    5.368441   43299.4   231.0   0.157550518   0.04662  -0.13650   0.16730  -0.00144
  0-1A  -> 17-1A    5.621017   45336.6   220.6   0.002236817   0.00069   0.02047   0.01655  -0.00006
  0-1A  -> 18-1A    5.756302   46427.7   215.4   0.093202725   0.02957  -0.10872   0.13324  -0.00071
  0-1A  -> 19-1A    5.819669   46938.8   213.0   0.001707957   0.00055   0.01828   0.01462  -0.00009
  0-1A  -> 20-1A    5.950222   47991.8   208.4   0.014547480   0.00477   0.04363  -0.05346  -0.00318
  0-1A  -> 21-1A    6.158140   49668.8   201.3   0.000004596   0.00000  -0.00087  -0.00089   0.00004
  0-1A  -> 22-1A    6.182959   49868.9   200.5   0.002970330   0.00101   0.02007  -0.02469   0.00008
  0-1A  -> 23-1A    6.187146   49902.7   200.4   0.000161411   0.00006  -0.00601  -0.00435  -0.00005
  0-1A  -> 24-1A    6.409305   51694.5   193.4   0.002844817   0.00101  -0.00268   0.00319   0.03143
  0-1A  -> 25-1A    6.509031   52498.9   190.5   0.086285534   0.03096   0.11119  -0.13637  -0.00123
  0-1A  -> 26-1A    6.630957   53482.3   187.0   0.002934997   0.00107  -0.02065   0.02542   0.00047
  0-1A  -> 27-1A    6.700558   54043.6   185.0   0.000040797   0.00002   0.00295   0.00252   0.00005
  0-1A  -> 28-1A    6.756382   54493.9   183.5   0.105626154   0.03934  -0.15382  -0.12521  -0.00030
  0-1A  -> 29-1A    6.884619   55528.2   180.1   0.000083225   0.00003  -0.00129   0.00164   0.00522
  0-1A  -> 30-1A    6.979574   56294.1   177.6   0.000008726   0.00000  -0.00134  -0.00125   0.00005

------------------------------------------------------------------------------------------
                     CD SPECTRUM VIA TRANSITION ELECTRIC DIPOLE MOMENTS    
------------------------------------------------------------------------------------------
     Transition      Energy     Energy  Wavelength    R        MX        MY        MZ   
                      (eV)      (cm-1)    (nm)   (1e40*cgs)   (au)      (au)      (au)  
------------------------------------------------------------------------------------------
  0-1A  ->  1-1A    2.121634   17112.1   584.4    0.58457  -0.00310   0.00191   0.84449
  0-1A  ->  2-1A    2.542300   20505.0   487.7   -0.06330   0.00054   0.00042  -0.00034
  0-1A  ->  3-1A    3.391754   27356.3   365.5  -11.40128  -0.00412  -0.00387  -0.00022
  0-1A  ->  4-1A    3.526992   28447.1   351.5    0.69044   0.00087  -0.00048  -0.14462
  0-1A  ->  5-1A    4.232552   34137.8   292.9   -0.09721   0.00017   0.00020  -0.00030
  0-1A  ->  6-1A    4.443198   35836.8   279.0    3.99729   0.00182  -0.00349   0.69826
  0-1A  ->  7-1A    4.619673   37260.2   268.4  -14.16892   0.04568  -0.05635   0.16806
  0-1A  ->  8-1A    4.640711   37429.9   267.2   10.90997   0.19320  -0.23669  -0.03752
  0-1A  ->  9-1A    4.733427   38177.7   261.9   -1.25802  -0.00250  -0.00259  -0.00033
  0-1A  -> 10-1A    4.776914   38528.4   259.5    7.74789  -0.16710   0.20474   0.03233
  0-1A  -> 11-1A    4.983919   40198.0   248.8   -0.48065   0.00225  -0.00482   0.83262
  0-1A  -> 12-1A    5.114966   41255.0   242.4    4.21688   0.05265   0.04304  -0.00003
  0-1A  -> 13-1A    5.118924   41286.9   242.2   -4.48226  -0.02262  -0.01861  -0.00065
  0-1A  -> 14-1A    5.224391   42137.6   237.3    0.00716   0.00123   0.00100  -0.00011
  0-1A  -> 15-1A    5.348992   43142.5   231.8   -0.18752  -0.00062  -0.00068  -0.00027
  0-1A  -> 16-1A    5.368441   43299.4   231.0    1.08448  -0.00232   0.00231   0.15426
  0-1A  -> 17-1A    5.621017   45336.6   220.6    0.03540   0.00047   0.00034  -0.00036
  0-1A  -> 18-1A    5.756302   46427.7   215.4   -0.11855   0.00084  -0.00058  -0.18161
  0-1A  -> 19-1A    5.819669   46938.8   213.0    0.14864   0.00219   0.00178   0.00015
  0-1A  -> 20-1A    5.950222   47991.8   208.4    2.57187   0.00158  -0.00110  -0.32114
  0-1A  -> 21-1A    6.158140   49668.8   201.3    0.16766  -0.06115  -0.04997  -0.00071
  0-1A  -> 22-1A    6.182959   49868.9   200.5    0.01209   0.00016   0.00057  -0.18303
  0-1A  -> 23-1A    6.187146   49902.7   200.4    0.00889  -0.00049  -0.00040   0.00270
  0-1A  -> 24-1A    6.409305   51694.5   193.4   -1.31477   0.06389  -0.07842  -0.00448
  0-1A  -> 25-1A    6.509031   52498.9   190.5    0.73756   0.00103  -0.00068  -0.14302
  0-1A  -> 26-1A    6.630957   53482.3   187.0    0.04919   0.00060  -0.00082   0.15030
  0-1A  -> 27-1A    6.700558   54043.6   185.0    0.34583   0.03658   0.02999   0.00018
  0-1A  -> 28-1A    6.756382   54493.9   183.5   -0.49855   0.00081   0.00111   0.00001
  0-1A  -> 29-1A    6.884619   55528.2   180.1   -0.47681   0.08157  -0.09969  -0.00042
  0-1A  -> 30-1A    6.979574   56294.1   177.6    0.56080  -0.12037  -0.09819  -0.00048

------------------------------------------------------------------------------------------
                     CD SPECTRUM VIA TRANSITION VELOCITY DIPOLE MOMENTS    
------------------------------------------------------------------------------------------
     Transition      Energy     Energy  Wavelength    R        MX        MY        MZ   
                      (eV)      (cm-1)    (nm)   (1e40*cgs)   (au)      (au)      (au)  
------------------------------------------------------------------------------------------
  0-1A  ->  1-1A    2.121634   17112.1   584.4    0.80652  -0.00310   0.00191   0.84449
  0-1A  ->  2-1A    2.542300   20505.0   487.7   -0.06239   0.00054   0.00042  -0.00034
  0-1A  ->  3-1A    3.391754   27356.3   365.5  -11.35820  -0.00412  -0.00387  -0.00022
  0-1A  ->  4-1A    3.526992   28447.1   351.5    0.70496   0.00087  -0.00048  -0.14462
  0-1A  ->  5-1A    4.232552   34137.8   292.9   -0.09572   0.00017   0.00020  -0.00030
  0-1A  ->  6-1A    4.443198   35836.8   279.0    3.95973   0.00182  -0.00349   0.69826
  0-1A  ->  7-1A    4.619673   37260.2   268.4  -14.21429   0.04568  -0.05635   0.16806
  0-1A  ->  8-1A    4.640711   37429.9   267.2   10.85545   0.19320  -0.23669  -0.03752
  0-1A  ->  9-1A    4.733427   38177.7   261.9   -1.26373  -0.00250  -0.00259  -0.00033
  0-1A  -> 10-1A    4.776914   38528.4   259.5    7.99206  -0.16710   0.20474   0.03233
  0-1A  -> 11-1A    4.983919   40198.0   248.8   -0.54095   0.00225  -0.00482   0.83262
  0-1A  -> 12-1A    5.114966   41255.0   242.4    4.36124   0.05265   0.04304  -0.00003
  0-1A  -> 13-1A    5.118924   41286.9   242.2   -4.64294  -0.02262  -0.01861  -0.00065
  0-1A  -> 14-1A    5.224391   42137.6   237.3    0.00770   0.00123   0.00100  -0.00011
  0-1A  -> 15-1A    5.348992   43142.5   231.8   -0.18627  -0.00062  -0.00068  -0.00027
  0-1A  -> 16-1A    5.368441   43299.4   231.0    1.14896  -0.00232   0.00231   0.15426
  0-1A  -> 17-1A    5.621017   45336.6   220.6    0.03477   0.00047   0.00034  -0.00036
  0-1A  -> 18-1A    5.756302   46427.7   215.4   -0.09032   0.00084  -0.00058  -0.18161
  0-1A  -> 19-1A    5.819669   46938.8   213.0    0.14547   0.00219   0.00178   0.00015
  0-1A  -> 20-1A    5.950222   47991.8   208.4    2.47862   0.00158  -0.00110  -0.32114
  0-1A  -> 21-1A    6.158140   49668.8   201.3    0.20408  -0.06115  -0.04997  -0.00071
  0-1A  -> 22-1A    6.182959   49868.9   200.5   -0.05445   0.00016   0.00057  -0.18303
  0-1A  -> 23-1A    6.187146   49902.7   200.4    0.00934  -0.00049  -0.00040   0.00270
  0-1A  -> 24-1A    6.409305   51694.5   193.4   -1.12470   0.06389  -0.07842  -0.00448
  0-1A  -> 25-1A    6.509031   52498.9   190.5    0.75388   0.00103  -0.00068  -0.14302
  0-1A  -> 26-1A    6.630957   53482.3   187.0    0.07181   0.00060  -0.00082   0.15030
  0-1A  -> 27-1A    6.700558   54043.6   185.0    0.35146   0.03658   0.02999   0.00018
  0-1A  -> 28-1A    6.756382   54493.9   183.5   -0.50242   0.00081   0.00111   0.00001
  0-1A  -> 29-1A    6.884619   55528.2   180.1   -0.50478   0.08157  -0.09969  -0.00042
  0-1A  -> 30-1A    6.979574   56294.1   177.6    0.52167  -0.12037  -0.09819  -0.00048

Total run time:    14438.157 sec

           *** ORCA-CIS/TD-DFT FINISHED WITHOUT ERROR ***
-----------------------
CIS/TD-DFT TOTAL ENERGY
-----------------------

    E(SCF)  =   -990.589960639 Eh
    DE(CIS) =      0.077968602 Eh (Root  1)
    ----------------------------- ---------
    E(tot)  =   -990.511992036 Eh


Maximum memory used throughout the entire CIS-calculation: 2730.8 MB
=> NOW LEAVING ORCA_CIS

-------------------------   --------------------
FINAL SINGLE POINT ENERGY      -990.511992036495
-------------------------   --------------------



           ************************************************************
           *        Program running with 4 parallel MPI-processes     *
           *              working on a common directory               *
           ************************************************************

------------------------------------------------------------------------------
                              ORCA PROPERTY CALCULATIONS
------------------------------------------------------------------------------

GBWName                                 ... tddft.gbw
Number of atoms                         ...     40
Number of basis functions               ...    840
Max core memory                         ...   3000 MB

Electric properties:
Dipole moment                           ... YES
Quadrupole moment                       ...  NO
Static polarizability (Dipole/Dipole)   ...  NO
Static polarizability (Dipole/Quad.)    ...  NO
Static polarizability (Quad./Quad.)     ...  NO
Static polarizability (Velocity)        ...  NO
Static hyperpolarizability              ...  NO

Atomic electric properties:
Dipole moment                           ...  NO
Quadrupole moment                       ...  NO
Static polarizability                   ...  NO

Choice of electric origin               ... Center of mass
Position of electric origin             ...     0.027872     0.039055     0.014275

General magnetic properties:
Magnetizability                         ...  NO

EPR properties:
g-Tensor (aka g-matrix)                 ...  NO
Zero-Field splitting spin-orbit         ...  NO
Zero-field splitting spin-spin          ...  NO
Hyperfine couplings                     ...  NO (   0 nuclei)
Quadrupole couplings                    ...  NO (   0 nuclei)
Contact density                         ...  NO (   0 nuclei)

NMR properties:
Chemical shifts                         ...  NO (   0 nuclei)
Spin-rotation constants                 ...  NO (   0 nuclei)
Spin-spin couplings                     ...  NO (   0 nuclei,    0 pairs)

Choice of magnetic origin               ... GIAO
Position of magnetic origin             ...     0.000000     0.000000     0.000000

Properties with geometric perturbations:
SCF Hessian                             ...  NO
IR spectrum                             ...  NO
VCD spectrum                            ...  NO
X-ray spectroscopy properties:
SCF XES/XAS/RIXS spectra                ...  NO

SCF SOC stabilization energy            ...  NO
Diagonal Born-Oppenheimer correction    ...  NO

-------------
DIPOLE MOMENT
-------------

Method             : SCF
Type of density    : Electron Density
Multiplicity       :   1
Irrep              :   0
Energy             :  -990.5899606389627934 Eh
Basis              : AO
                                X                 Y                 Z
Electronic contribution:     -5.138279096      -4.193619160      -0.015063867
Nuclear contribution   :      6.179261674       5.041669180       0.018645980
                        -----------------------------------------
Total Dipole Moment    :      1.040982578       0.848050020       0.003582113
                        -----------------------------------------
Magnitude (a.u.)       :      1.342701156
Magnitude (Debye)      :      3.412875114



--------------------
Rotational spectrum 
--------------------
 
Rotational constants in cm-1:             0.008875             0.008531             0.004357 
Rotational constants in MHz :           266.075502           255.748443           130.616067 

Dipole components along the rotational axes: 
x,y,z [a.u.] :     1.342693    -0.004416     0.001531 
x,y,z [Debye]:     3.412854    -0.011225     0.003892 

 

Dipole moment calculation done in   0.2 sec 

Maximum memory used throughout the entire PROP-calculation: 84.4 MB

--------------------------------
SUGGESTED CITATIONS FOR THIS RUN
--------------------------------

Below you find a list of papers that are relevant to this ORCA run
We neither can nor want to force you to cite these papers, but we appreciate if you do
You receive ORCA, which is the product of decades of hard work by many enthusiastic individuals, for free
The only thing we kindly ask in return is that you cite our papers,
We deeply appreciate it, if you show your appreciation for ORCA by not just citing the generic ORCA reference.

Please note that relegating all ORCA citations to the supporting information does *not* help us.
SI sections are not indexed - citations you put there will not count into any citation statistics
But we need these citations in order to attract the funding resources that allow us to do what we are doing

Therefore, if you are a happy ORCA user, please consider citing a few of the papers listed below in the main body of your paper

In addition to the list printed below, the program has created the file tddft.bibtex that contains the list in bibtex format
You can import this file easily into all common literature databanks and citation aid programs

It goes without saying that in many instances, there are alternative algorithms to achieve similar
results as the ones you have gotten from ORCA. It is, of course, also the case that in some instances
ORCA just re-implements algorithms worked out by others. We are fully aware of that and we are also
fully appreciative of our colleagues work. Hence this citation list should not be read as indicating
that the listed papers, which are focused on our own work, are the only ones worth citing. It simply
meant to make it easier for users to cite ORCA specific papers. It is not a substitute for doing your
own literature research and citing the relevant literature in a scientifically appropriate manner.

List of essential papers. We consider these as the minimum necessary citations

  1. Neese, F.
     Software update: the ORCA program system, version 6.0
     WIRES Comput. Molec. Sci. 2025 15(1), e70019
     doi.org/10.1002/wcms.70019

List of papers to cite with high priority. The work reported in these papers was absolutely
necessary for this run to complete.
Our perspective: the developers of density functionals and basis sets usually get cited in chemistry papers
Good! But without the algorithms to do something with them, the functionals or basis sets would not do anything.
Hence, in our opinion, the algorithm design and method developments papers are equally worthy of getting cited

  1. Neese, F.; Olbrich, G.
     Efficient use of the resolution of the identity approximation in time-dependent density functional calculations with hybrid density functionals
     Chem. Phys. Lett. 2002 362 , 170-178
     doi.org/10.1016/s0009-2614(02)01053-9
  2. Neese, F.
     An improvement of the resolution of the identity approximation for the formation of the Coulomb matrix
     J. Comp. Chem. 2003 24(14), 1740-1747
     doi.org/10.1002/jcc.10318
  3. Neese, F.; Wennmohs, F.; Hansen, A.; Becker, U.
     Efficient, approximate and parallel Hartree-Fock and hybrid DFT calculations. A 'chain-of-spheres' algorithm for the Hartree-Fock exchange
     Chem. Phys. 2009 356(1-3), 98-109
     doi.org/10.1016/j.chemphys.2008.10.036
  4. Garcia-Rates, M.; Neese, F.
     Effect of the Solute Cavity on the Solvation Energy and its Derivatives within the Framework of the Gaussian Charge Scheme
     J. Comput. Chem. 2020 41 , 922-939
     doi.org/10.1002/jcc.26139
  5. Helmich-Paris, B.; de Souza, B.; Neese, F.; Izsák, R.
     An improved chain of spheres for exchange algorithm
     J. Chem. Phys. 2021 155(10), 104109
     doi.org/10.1063/5.0058766
  6. Neese, F.
     The SHARK Integral Generation and Digestion System
     J. Comp. Chem. 2022 44(3), 381
     doi.org/10.1002/jcc.26942

List of suggested additional citations. These are papers that are important in the 'surrounding' of 
of this run, or papers that preceded the highly important papers. If you like your results we are grateful for a citation.

  1. Izsak, R.; Neese, F.
     An overlap fitted chain of spheres exchange method
     J. Chem. Phys. 2011 135 , 144105
     doi.org/10.1063/1.3646921
  2. Izsak, R.; Hansen, A.; Neese, F.
     The resolution of identity and chain of spheres approximations for the LPNO-CCSD singles Fock term
     Molec. Phys. 2012 110 , 2413-2417
     doi.org/10.1080/00268976.2012.687466
  3. Neese, F.
     The ORCA program system
     WIRES Comput. Molec. Sci. 2012 2(1), 73-78
     doi.org/10.1002/wcms.81
  4. Izsak, R.; Neese, F.; Klopper, W.
     Robust fitting techniques in the chain of spheres approximation to the Fock exchange: The role of the complementary space
     J. Chem. Phys. 2013 139 , 
     doi.org/10.1063/1.4819264
  5. Neese, F.
     Software update: the ORCA program system, version 4.0
     WIRES Comput. Molec. Sci. 2018 8(1), 1-6
     doi.org/10.1002/wcms.1327
  6. Neese, F.; Wennmohs, F.; Becker, U.; Riplinger, C.
     The ORCA quantum chemistry program package
     J. Chem. Phys. 2020 152(22), 224108
     doi.org/10.1063/5.0004608
  7. Neese, F.
     Software update: The ORCA program system—Version 5.0
     WIRES Comput. Molec. Sci. 2022 12(1), e1606
     doi.org/10.1002/wcms.1606

List of optional additional citations

  1. Neese, F.
     Approximate second-order SCF convergence for spin unrestricted wavefunctions
     Chem. Phys. Lett. 2000 325(1-3), 93-98
     doi.org/10.1016/s0009-2614(00)00662-x

Timings for individual modules:

Sum of individual times          ...    15462.424 sec (= 257.707 min)
Startup calculation              ...       26.794 sec (=   0.447 min)   0.2 %
SCF iterations                   ...      985.479 sec (=  16.425 min)   6.4 %
Property integrals               ...        8.196 sec (=   0.137 min)   0.1 %
Property calculations            ...        2.395 sec (=   0.040 min)   0.0 %
CIS module                       ...    14439.560 sec (= 240.659 min)  93.4 %
                             ****ORCA TERMINATED NORMALLY****
TOTAL RUN TIME: 0 days 4 hours 17 minutes 43 seconds 299 msec
