
                                 *****************
                                 * O   R   C   A *
                                 *****************

                                            #,                                       
                                            ###                                      
                                            ####                                     
                                            #####                                    
                                            ######                                   
                                           ########,                                 
                                     ,,################,,,,,                         
                               ,,#################################,,                 
                          ,,##########################################,,             
                       ,#########################################, ''#####,          
                    ,#############################################,,   '####,        
                  ,##################################################,,,,####,       
                ,###########''''           ''''###############################       
              ,#####''   ,,,,##########,,,,          '''####'''          '####       
            ,##' ,,,,###########################,,,                        '##       
           ' ,,###''''                  '''############,,,                           
         ,,##''                                '''############,,,,        ,,,,,,###''
      ,#''                                            '''#######################'''  
     '                                                          ''''####''''         
             ,#######,   #######,   ,#######,      ##                                
            ,#'     '#,  ##    ##  ,#'     '#,    #''#        ,####,    ,#,          
            ##       ##  ##   ,#'  ##            #'  '#       #'       ,# #          
            ##       ##  #######   ##           ,######,      #####,      #          
            '#,     ,#'  ##    ##  '#,     ,#' ,#      #,     #,   #      #          
             '#######'   ##     ##  '#######'  #'      '#     '####' #    #          



                #########################################################
                #                        -***-                          #
                #          Department of theory and spectroscopy        #
                #                                                       #
                #                      Frank Neese                      #
                #                                                       #
                #     Directorship, Architecture, Infrastructure        #
                #                    SHARK, DRIVERS                     #
                #        Core code/Algorithms in most modules           #
                #                                                       #
                #        Max Planck Institute fuer Kohlenforschung      #
                #                Kaiser Wilhelm Platz 1                 #
                #                 D-45470 Muelheim/Ruhr                 #
                #                      Germany                          #
                #                                                       #
                #                  All rights reserved                  #
                #                        -***-                          #
                #########################################################


                         Program Version 6.1.1  -  RELEASE   -
                                (GIT: $487d211c$)
                          ($2025-11-21 10:33:24 +0100$)


 With contributions from (in alphabetic order):
[Max-Planck-Institut fuer Kohlenforschung]                               
  Daniel Aravena         : Magnetic Suceptibility                        
  Michael Atanasov       : Ab Initio Ligand Field Theory (pilot matlab implementation)
  Alexander A. Auer      : GIAO ZORA, VPT2 properties, NMR spectrum      
  Ute Becker             : All parallelization in ORCA, NUMFREQ, NUMCALC 
  Giovanni Bistoni       : ED, misc. LED, open-shell LED, HFLD           
  Dmytro Bykov           : pre 5.0 version of the SCF Hessian            
  Marcos Casanova-Páez   : Triplet and SCS-CIS(D). UHF-(DLPNO)-IP/EA/STEOM-CCSD. UHF-CVS-IP/STEOM-CCSD   
  Vijay G. Chilkuri      : MRCI spin determinant printing, contributions to CSF-ICE 
  Pauline Colinet        : FMM embedding                                 
  Dipayan Datta          : RHF DLPNO-CCSD density                        
  Achintya Kumar Dutta   : EOM-CC, STEOM-CC                              
  Nicolas Foglia         : Exact transition moments, OPA infrastructure, MCD improvements    
  Dmitry Ganyushin       : Spin-Orbit,Spin-Spin,Magnetic field MRCI      
  Miquel Garcia-Rates    : C-PCM and meta-GGA Hessian, CCSD/C-PCM, Gaussian charge scheme 
  Tiago L. C. Gouveia    : GS-ROHF, GS-ROCIS                             
  Yang Guo               : DLPNO-NEVPT2, F12-NEVPT2, CIM, IAO-localization        
  Andreas Hansen         : Spin unrestricted coupled pair/coupled cluster methods 
  Ingolf Harden          : AUTO-CI MPn and infrastructure                
  Benjamin Helmich-Paris : MC-RPA, TRAH-(SCF,CASSCF), AVAS, COSX integrals, SCF dyn. polar., MC-PDFT, srDFT 
  Lee Huntington         : MR-EOM, pCC                                   
  Robert Izsak           : Overlap fitted RIJCOSX, COSX-SCS-MP3, EOM     
  Riya Kayal             : Wick's Theorem for AUTO-CI, AUTO-CI UHF-CCSDT 
  Emily Kempfer          : AUTO-CI RHF CISDT and CCSDT, approximate NEVPT4
  Christian Kollmar      : KDIIS, OOCD, Brueckner-CCSD(T), CCSD density, CASPT2, CASPT2-K, improved NEVPT2 
  Axel Koslowski         : Symmetry handling                             
  Simone Kossmann        : meta-GGA functionals, TD-DFT gradient, OOMP2, (MP2 Hessian; deprecated post 5.0) 
  Lucas Lang             : DCDCAS, Hyperfine gauge corrections, ICE-SOC+SSC
  Marvin Lechner         : AUTO-CI (C++ implementation), FIC-MRCC        
  Spencer Leger          : CASSCF response                               
  Dagmar Lenk            : GEPOL surface, SMD, ORCA-2-JSON               
  Dimitrios Liakos       : Extrapolation schemes; Compound Job, Property file
  Dimitrios Manganas     : Further ROCIS development; embedding schemes. LFT, Crystal Embedding 
  Dimitrios Pantazis     : SARC Basis sets                               
  Anastasios Papadopoulos: AUTO-CI, single reference methods and gradients 
  Taras Petrenko         : pre 6.0 DFT Hessian and TD-DFT gradient,  ECA, NRVS 
  Petra Pikulova         : Analytic Raman intensities                    
  Peter Pinski           : DLPNO-MP2, DLPNO-MP2 Gradient                 
  Shashank Vittal Rao    : ES-AILFT, MagRelax                            
  Christoph Reimann      : Effective Core Potentials                     
  Marius Retegan         : Local ZFS, SOC                                
  Christoph Riplinger    : Optimizer, TS searches, QM/MM, DLPNO-CCSD(T), (RO)-DLPNO pert. Triples 
  Michael Roemelt        : Original ROCIS implementation, recursive CI coupling coefficients
  Masaaki Saitow         : Open-shell DLPNO-CCSD energy and density      
  Barbara Sandhoefer     : DKH picture change effects                    
  Yorick L. A. Schmerwitz: GMF and freeze-and-release deltaSCF, NEB S-IDPP initial path                    
  Kantharuban Sivalingam : CASSCF convergence/infrastructure, NEVPT2, NEVPT3, NEVPT4(SD), FIC-MRCI and CEPA variants
  Bernardo de Souza      : ESD, SOC TD-DFT                               
  Georgi L. Stoychev     : AutoAux, RI-MP2 NMR, DLPNO-MP2 response, X2C  
  Van Anh Tran           : RI-MP2 g-tensors                              
  Willem Van den Heuvel  : Paramagnetic NMR                              
  Zikuan Wang            : NOTCH, Electric field optimization            
  Frank Wennmohs         : Technical directorship and infrastructure     
  Hang Xu                : AUTO-CI-Response properties                   
                                                                         
[FACCTs GmbH]                                                            
  Markus Bursch, Nicolas Foglia, Miquel Garcia-Rates, Ingolf Harden, Hagen Neugebauer, Anastasios Papadopoulos, 
  Christoph Riplinger, Bernardo de Souza, Georgi L. Stoychev                                                    
                                                                 
  APM, various basis sets, CI-OPT, improved COSX, DLPNO-Multilevel,           
  DOCKER, DRACO, updates on ESD, Fragmentator, GOAT, IRC, LR-CPCM, L-BFGS, MBIS, meta-GGA TD-DFT gradient, ML-optimized integration grids, 
  MM, NACMEs, nearIR, NEB, NEB-TS, NL-DFT gradient (VV10), 2- and 3-layer-ONIOM, interface openCOSMO-RS, QMMM,   
  Crystal-QMMM, RESP, rigid body optimization, SF, symmetry and pop. for TD-DFT, various functionals, SOLVATOR                                   
                                                                         
[Other institutions]                                                     
  V. Asgeirsson          : NEB                                           
  Christoph Bannwarth    : sTDA-DFT, sTD-DFT, PBEh-3c, B97-3c, D3        
  Giovanni Bistoni       : ETS/NOCV, ADLD/ADEX, COVALED                  
  Martin Brehm           : Molecular dynamics                            
  Ronald Cardenas        : ETS/NOCV                                      
  Martina Colucci        : COVALED                                       
  Sebastian Ehlert       : rSCAN, r2SCAN, r2SCAN-3c, D4, dhf basis sets  
  Marvin Friede          : D4 for Fr, Ra, Ac-Lr                          
  Lars Goerigk           : TD-DFT with DH, B97 family of functionals     
  Stefan Grimme          : VdW corrections, initial TS optimization, DFT functionals, gCP, sTDA/sTD-DF 
  Waldemar Hujo          : DFT-NL                                        
  H. Jonsson             : NEB                                           
  Holger Kruse           : gCP                                           
  Marcel Mueller         : wB97X-3c, vDZP basis set                      
  Hagen Neugebauer       : wr2SCAN, Native XTB                           
  Gianluca Regni         : ADLD/ADEX                                     
  Tobias Risthaus        : pre 6.0 range-separated hybrid DFT and stability analysis
  Lukas Wittmann         : regularized MP2, r2SCAN double-hybrids, wr2SCAN        
                                                                         
We gratefully acknowledge several colleagues who have allowed us to      
interface, adapt or use parts of their codes:                            
  Ed Valeev, F. Pavosevic, A. Kumar             : LibInt (2-el integral package), F12 methods 
  Garnet Chan, S. Sharma, J. Yang, R. Olivares  : DMRG                   
  Ulf Ekstrom                                   : XCFun DFT Library      
  Mihaly Kallay                                 : mrcc  (arbitrary order and MRCC methods)
  Frank Weinhold                                : gennbo (NPA and NBO analysis)           
  Simon Mueller                                 : openCOSMO-RS                            
  Christopher J. Cramer and Donald G. Truhlar   : smd solvation model                     
  S Lehtola, MJT Oliveira, MAL Marques          : LibXC Library                           
  Liviu Ungur et al                             : ANISO software                          


 Your calculation uses the libint2 library for the computation of 2-el integrals
 For citations please refer to: http://libint.valeyev.net

 Your ORCA version has been built with support for libXC version: 7.0.0
 For citations please refer to: https://libxc.gitlab.io

 This ORCA versions uses:
   CBLAS   interface :  Fast vector & matrix operations
   LAPACKE interface :  Fast linear algebra routines
   SCALAPACK package :  Parallel linear algebra routines
   Shared memory     :  Shared parallel matrices
   BLAS/LAPACK       :  OpenBLAS 0.3.29  USE64BITINT DYNAMIC_ARCH NO_AFFINITY Haswell SINGLE_THREADED
        Core in use  :  Haswell
   Copyright (c) 2011-2014, The OpenBLAS Project


  ***********************************
  * Starting time: Sat Jul  4 18:05:06 2026
  * Host name:     steezy
  * Process ID:    1141180
  * Working dir.:  /home/jannes/chlorophyll-ladder/006-core-ladder/chlorin/03_tddft_ch2cl2/pbe0
  ***********************************

NOTE: MaxCore=3000 MB was set to SCF,MP2,MDCI,CIPSI,MRCI,RASCI and CIS
      => If you want to overwrite this, your respective input block should be placed after the MaxCore statement


***************************************
The coordinates will be read from file: /home/jannes/chlorophyll-ladder/006-core-ladder/chlorin/01_opt/chlorin_opt_b3lypd4_tzvp.xyz
***************************************


================================================================================

----- Orbital basis set information -----
Your calculation utilizes the basis: def2-TZVP
   F. Weigend and R. Ahlrichs, Phys. Chem. Chem. Phys. 7, 3297 (2005).

----- AuxJ basis set information -----
Your calculation utilizes the auxiliary basis: def2/J
   H-Rn: F. Weigend, Phys. Chem. Chem. Phys. 8, 1057 (2006).
   Fr-Lr: K. Eichkorn, F. Weigend, O. Treutler, R. Ahlrichs; Theor. Chem. Acc. 97, 119 (1997).

================================================================================
                                        WARNINGS
                       Please study these warnings very carefully!
================================================================================

WARNING: Old DensityContainer found on disk!
         Will remove this file - 
         If you want to keep old densities, please start your calculation with a different basename. 


WARNING: CIS/ROCIS methods need fully converged wavefunctions
  ===> : Setting SCFConvForced true
         You can overwrite this default with %scf ConvForced false 


================================================================================
                                       INPUT FILE
================================================================================
NAME = tddft.inp
|  1> %pal nprocs 4 end
|  2> %maxcore 3000
|  3> ! PBE0 def2-TZVP def2/J RIJCOSX DefGrid3 TightSCF CPCM(CH2Cl2)
|  4> %tddft
|  5>   nroots 30
|  6>   tda false
|  7>   triplets false
|  8> end
|  9> * xyzfile 0 1 /home/jannes/chlorophyll-ladder/006-core-ladder/chlorin/01_opt/chlorin_opt_b3lypd4_tzvp.xyz
| 10> 
| 11>                          ****END OF INPUT****
================================================================================

                       ****************************
                       * Single Point Calculation *
                       ****************************

---------------------------------
CARTESIAN COORDINATES (ANGSTROEM)
---------------------------------
  N      1.618227    1.329539    0.010388
  N     -1.347453    1.611774   -0.002562
  N      1.299801   -1.633340    0.016623
  N     -1.594487   -1.292971    0.004403
  C      2.883781    3.350039   -0.011841
  C      3.851475    2.163431    0.042672
  C      1.523344    2.671646   -0.001121
  C      2.913786    0.967045    0.025095
  C      0.347597    3.398417   -0.007862
  C      3.389899   -0.330654    0.029706
  C     -0.962451    2.916936   -0.005688
  C      2.655655   -1.517560    0.022965
  C     -2.719608    1.507344   -0.001102
  C      0.922713   -2.956749    0.011975
  C     -2.159571    3.698056   -0.005314
  C      3.181168   -2.846885    0.021102
  C     -3.225682    2.840557   -0.002326
  C      2.127534   -3.719625    0.014237
  C     -3.433390    0.324889    0.000791
  C     -0.378790   -3.419108    0.006952
  C     -2.915388   -0.973209    0.002604
  C     -1.546550   -2.651173    0.004333
  C     -3.736898   -2.165706    0.001564
  C     -2.879748   -3.216467    0.002261
  H      3.006350    3.950792   -0.915543
  H      2.991185    4.026676    0.837789
  H      4.461299    2.159809    0.948624
  H      4.539467    2.135032   -0.804231
  H      0.441481    4.477104   -0.014399
  H      4.465522   -0.454657    0.038870
  H     -0.727891    0.815001   -0.008146
  H      0.642943   -0.867003    0.022426
  H     -2.180284    4.775793   -0.006376
  H      4.232912   -3.083014    0.023985
  H     -4.273839    3.092971   -0.000559
  H      2.164848   -4.797103    0.010566
  H     -4.511820    0.421664    0.000686
  H     -0.499907   -4.495064    0.005089
  H     -4.816074   -2.182825    0.000119
  H     -3.113257   -4.270204    0.001847

----------------------------
CARTESIAN COORDINATES (A.U.)
----------------------------
  NO LB      ZA    FRAG     MASS         X           Y           Z
   0 N     7.0000    0    14.007    3.058005    2.512465    0.019630
   1 N     7.0000    0    14.007   -2.546317    3.045812   -0.004842
   2 N     7.0000    0    14.007    2.456268   -3.086566    0.031414
   3 N     7.0000    0    14.007   -3.013143   -2.443361    0.008320
   4 C     6.0000    0    12.011    5.449556    6.330657   -0.022376
   5 C     6.0000    0    12.011    7.278233    4.088291    0.080639
   6 C     6.0000    0    12.011    2.878702    5.048679   -0.002119
   7 C     6.0000    0    12.011    5.506257    1.827451    0.047422
   8 C     6.0000    0    12.011    0.656864    6.422078   -0.014857
   9 C     6.0000    0    12.011    6.405982   -0.624846    0.056137
  10 C     6.0000    0    12.011   -1.818769    5.512210   -0.010750
  11 C     6.0000    0    12.011    5.018461   -2.867773    0.043397
  12 C     6.0000    0    12.011   -5.139315    2.848467   -0.002082
  13 C     6.0000    0    12.011    1.743676   -5.587446    0.022630
  14 C     6.0000    0    12.011   -4.080998    6.988313   -0.010042
  15 C     6.0000    0    12.011    6.011537   -5.379833    0.039877
  16 C     6.0000    0    12.011   -6.095656    5.367875   -0.004396
  17 C     6.0000    0    12.011    4.020456   -7.029073    0.026903
  18 C     6.0000    0    12.011   -6.488167    0.613952    0.001495
  19 C     6.0000    0    12.011   -0.715809   -6.461177    0.013137
  20 C     6.0000    0    12.011   -5.509286   -1.839098    0.004922
  21 C     6.0000    0    12.011   -2.922556   -5.009990    0.008188
  22 C     6.0000    0    12.011   -7.061713   -4.092591    0.002955
  23 C     6.0000    0    12.011   -5.441934   -6.078243    0.004272
  24 H     1.0000    0     1.008    5.681179    7.465915   -1.730125
  25 H     1.0000    0     1.008    5.652521    7.609315    1.583193
  26 H     1.0000    0     1.008    8.430634    4.081448    1.792639
  27 H     1.0000    0     1.008    8.578349    4.034626   -1.519777
  28 H     1.0000    0     1.008    0.834279    8.460500   -0.027211
  29 H     1.0000    0     1.008    8.438614   -0.859177    0.073454
  30 H     1.0000    0     1.008   -1.375514    1.540128   -0.015393
  31 H     1.0000    0     1.008    1.214987   -1.638398    0.042380
  32 H     1.0000    0     1.008   -4.120140    9.024942   -0.012049
  33 H     1.0000    0     1.008    7.999044   -5.826052    0.045325
  34 H     1.0000    0     1.008   -8.076386    5.844869   -0.001056
  35 H     1.0000    0     1.008    4.090969   -9.065210    0.019967
  36 H     1.0000    0     1.008   -8.526105    0.796830    0.001296
  37 H     1.0000    0     1.008   -0.944687   -8.494440    0.009617
  38 H     1.0000    0     1.008   -9.101061   -4.124942    0.000224
  39 H     1.0000    0     1.008   -5.883202   -8.069517    0.003490

--------------------------------
INTERNAL COORDINATES (ANGSTROEM)
--------------------------------
 N      0   0   0     0.000000000000     0.00000000     0.00000000
 N      1   0   0     2.979107177231     0.00000000     0.00000000
 N      1   2   0     2.979947476934    89.30270164     0.00000000
 N      3   1   2     2.914258339345    89.42644009     0.00000000
 C      1   2   3     2.384228044724   116.62082965   179.40054417
 C      5   1   2     1.532137048104    71.25200580   178.57442373
 C      1   2   3     1.345506053350    80.51805744   179.66763356
 C      1   2   3     1.345396342678   169.79818117   357.97022523
 C      7   1   2     1.382252298681   125.76656227     0.17933523
 C      8   1   7     1.382291464764   125.77894989   180.51229001
 C      2   1   3     1.360765532472    79.00182392   180.05957653
 C      3   1   2     1.360803573136    78.98578119   180.04479993
 C      2   1   3     1.376124714725   170.20659592     1.67778072
 C      3   1   2     1.376091434139   170.22494378     1.58550169
 C     11   2   1     1.429421146210   106.68913671   180.33444041
 C     12   3   1     1.429430588850   106.68868640   180.33209544
 C     15  11   2     1.368176069028   108.06500929     0.00000000
 C     16  12   3     1.368162905847   108.06552163   359.97694271
 C     13   2  11     1.381190206413   125.46928608   179.93536477
 C     14   3  12     1.381199138498   125.46211356   179.90588073
 C      4   3   1     1.359055651912   173.09697396   358.52859573
 C      4   3   1     1.359047366731    81.27152327   179.84264952
 C     21   4  22     1.448077190214   110.95462463     0.00000000
 C     23  21   4     1.356026040736   106.23152882     0.00000000
 H      5   1   2     1.092064297682   122.24060148   284.00745698
 H      5   1   2     1.091441479244   124.77447848    73.14241516
 H      6   5   1     1.092083663892   112.62948738   242.06014622
 H      6   5   1     1.091505582205   112.99487653   120.72109284
 H      9   7   1     1.082784308159   116.74849562   179.84380395
 H     10   8   1     1.082785443229   116.72449600   179.81241072
 H      2   1   3     1.009324809386    46.69870077   359.20679780
 H      3   1   2     1.009340734249    46.73724690   359.18425706
 H     15  11   2     1.077936930670   124.22541381   179.93656368
 H     16  12   3     1.077928105275   124.22340859   179.93499516
 H     17  15  11     1.078122825118   127.64953771   179.95286184
 H     18  16  12     1.078129368274   127.65243145   179.96019912
 H     19  13   2     1.082763583588   115.98919081   180.06319439
 H     20  14   3     1.082753468896   115.98031610   180.08105506
 H     23  21   4     1.079313067754   125.47173418   179.99943943
 H     24  23  21     1.079299692791   128.29953999   179.99981198

---------------------------
INTERNAL COORDINATES (A.U.)
---------------------------
 N      0   0   0     0.000000000000     0.00000000     0.00000000
 N      1   0   0     5.629696688565     0.00000000     0.00000000
 N      1   2   0     5.631284624876    89.30270164     0.00000000
 N      3   1   2     5.507150144858    89.42644009     0.00000000
 C      1   2   3     4.505538045342   116.62082965   179.40054417
 C      5   1   2     2.895319420551    71.25200580   178.57442373
 C      1   2   3     2.542637952364    80.51805744   179.66763356
 C      1   2   3     2.542430629240   169.79818117   357.97022523
 C      7   1   2     2.612078292490   125.76656227     0.17933523
 C      8   1   7     2.612152305660   125.77894989   180.51229001
 C      2   1   3     2.571474188851    79.00182392   180.05957653
 C      3   1   2     2.571546075289    78.98578119   180.04479993
 C      2   1   3     2.600498836950   170.20659592     1.67778072
 C      3   1   2     2.600435945757   170.22494378     1.58550169
 C     11   2   1     2.701214496373   106.68913671   180.33444041
 C     12   3   1     2.701232340376   106.68868640   180.33209544
 C     15  11   2     2.585478073448   108.06500929     0.00000000
 C     16  12   3     2.585453198641   108.06552163   359.97694271
 C     13   2  11     2.610071228975   125.46928608   179.93536477
 C     14   3  12     2.610088108170   125.46211356   179.90588073
 C      4   3   1     2.568242982872   173.09697396   358.52859573
 C      4   3   1     2.568227326149    81.27152327   179.84264952
 C     21   4  22     2.736469310283   110.95462463     0.00000000
 C     23  21   4     2.562517847457   106.23152882     0.00000000
 H      5   1   2     2.063702443253   122.24060148   284.00745698
 H      5   1   2     2.062525486972   124.77447848    73.14241516
 H      6   5   1     2.063739040086   112.62948738   242.06014622
 H      6   5   1     2.062646624014   112.99487653   120.72109284
 H      9   7   1     2.046165804527   116.74849562   179.84380395
 H     10   8   1     2.046167949498   116.72449600   179.81241072
 H      2   1   3     1.907347469912    46.69870077   359.20679780
 H      3   1   2     1.907377563542    46.73724690   359.18425706
 H     15  11   2     2.037005588605   124.22541381   179.93656368
 H     16  12   3     2.036988911026   124.22340859   179.93499516
 H     17  15  11     2.037356878203   127.64953771   179.95286184
 H     18  16  12     2.037369242976   127.65243145   179.96019912
 H     19  13   2     2.046126640764   115.98919081   180.06319439
 H     20  14   3     2.046107526767   115.98031610   180.08105506
 H     23  21   4     2.039606110817   125.47173418   179.99943943
 H     24  23  21     2.039580835801   128.29953999   179.99981198

---------------------
BASIS SET INFORMATION
---------------------
There are 3 groups of distinct atoms

 Group   1 Type N   : 11s6p2d1f contracted to 5s3p2d1f pattern {62111/411/11/1}
 Group   2 Type C   : 11s6p2d1f contracted to 5s3p2d1f pattern {62111/411/11/1}
 Group   3 Type H   : 5s1p contracted to 3s1p pattern {311/1}

Atom   0N    basis set group =>   1
Atom   1N    basis set group =>   1
Atom   2N    basis set group =>   1
Atom   3N    basis set group =>   1
Atom   4C    basis set group =>   2
Atom   5C    basis set group =>   2
Atom   6C    basis set group =>   2
Atom   7C    basis set group =>   2
Atom   8C    basis set group =>   2
Atom   9C    basis set group =>   2
Atom  10C    basis set group =>   2
Atom  11C    basis set group =>   2
Atom  12C    basis set group =>   2
Atom  13C    basis set group =>   2
Atom  14C    basis set group =>   2
Atom  15C    basis set group =>   2
Atom  16C    basis set group =>   2
Atom  17C    basis set group =>   2
Atom  18C    basis set group =>   2
Atom  19C    basis set group =>   2
Atom  20C    basis set group =>   2
Atom  21C    basis set group =>   2
Atom  22C    basis set group =>   2
Atom  23C    basis set group =>   2
Atom  24H    basis set group =>   3
Atom  25H    basis set group =>   3
Atom  26H    basis set group =>   3
Atom  27H    basis set group =>   3
Atom  28H    basis set group =>   3
Atom  29H    basis set group =>   3
Atom  30H    basis set group =>   3
Atom  31H    basis set group =>   3
Atom  32H    basis set group =>   3
Atom  33H    basis set group =>   3
Atom  34H    basis set group =>   3
Atom  35H    basis set group =>   3
Atom  36H    basis set group =>   3
Atom  37H    basis set group =>   3
Atom  38H    basis set group =>   3
Atom  39H    basis set group =>   3
---------------------------------
AUXILIARY/J BASIS SET INFORMATION
---------------------------------
There are 3 groups of distinct atoms

 Group   1 Type N   : 12s5p4d2f1g contracted to 6s4p3d1f1g pattern {711111/2111/211/2/1}
 Group   2 Type C   : 12s5p4d2f1g contracted to 6s4p3d1f1g pattern {711111/2111/211/2/1}
 Group   3 Type H   : 5s2p1d contracted to 3s1p1d pattern {311/2/1}

Atom   0N    basis set group =>   1
Atom   1N    basis set group =>   1
Atom   2N    basis set group =>   1
Atom   3N    basis set group =>   1
Atom   4C    basis set group =>   2
Atom   5C    basis set group =>   2
Atom   6C    basis set group =>   2
Atom   7C    basis set group =>   2
Atom   8C    basis set group =>   2
Atom   9C    basis set group =>   2
Atom  10C    basis set group =>   2
Atom  11C    basis set group =>   2
Atom  12C    basis set group =>   2
Atom  13C    basis set group =>   2
Atom  14C    basis set group =>   2
Atom  15C    basis set group =>   2
Atom  16C    basis set group =>   2
Atom  17C    basis set group =>   2
Atom  18C    basis set group =>   2
Atom  19C    basis set group =>   2
Atom  20C    basis set group =>   2
Atom  21C    basis set group =>   2
Atom  22C    basis set group =>   2
Atom  23C    basis set group =>   2
Atom  24H    basis set group =>   3
Atom  25H    basis set group =>   3
Atom  26H    basis set group =>   3
Atom  27H    basis set group =>   3
Atom  28H    basis set group =>   3
Atom  29H    basis set group =>   3
Atom  30H    basis set group =>   3
Atom  31H    basis set group =>   3
Atom  32H    basis set group =>   3
Atom  33H    basis set group =>   3
Atom  34H    basis set group =>   3
Atom  35H    basis set group =>   3
Atom  36H    basis set group =>   3
Atom  37H    basis set group =>   3
Atom  38H    basis set group =>   3
Atom  39H    basis set group =>   3

Checking for AutoStart:
The File: tddft.gbw exists
Trying to determine its content:
     ... Fine, the file contains calculation information
     ... Fine, the calculation information was read
     ... Fine, the file contains a basis set
     ... Fine, the basis set was read
     ... Fine, the file contains a geometry
     ... Fine, the geometry was read
     ... Fine, the file contains a set of orbitals
     ... Fine, the orbitals can be read
     => possible old guess file was deleted
     => GBW file was renamed to GES file
     => GES file is set as startup file
     => Guess is set to MORead
     ... now leaving AutoStart



           ************************************************************
           *        Program running with 4 parallel MPI-processes     *
           *              working on a common directory               *
           ************************************************************
------------------------------------------------------------------------------
                             ORCA STARTUP CALCULATIONS
                           -- RI-GTO INTEGRALS CHOSEN --
------------------------------------------------------------------------------
------------------------------------------------------------------------------
                   ___                                                        
                  /   \      - P O W E R E D   B Y -                         
                 /     \                                                     
                 |  |  |   _    _      __       _____    __    __             
                 |  |  |  | |  | |    /  \     |  _  \  |  |  /  |          
                  \  \/   | |  | |   /    \    | | | |  |  | /  /          
                 / \  \   | |__| |  /  /\  \   | |_| |  |  |/  /          
                |  |  |   |  __  | /  /__\  \  |    /   |      \           
                |  |  |   | |  | | |   __   |  |    \   |  |\   \          
                \     /   | |  | | |  |  |  |  | |\  \  |  | \   \       
                 \___/    |_|  |_| |__|  |__|  |_| \__\ |__|  \__/        
                                                                              
                      - O R C A' S   B I G   F R I E N D -                    
                                      &                                       
                       - I N T E G R A L  F E E D E R -                       
                                                                              
 v1 FN, 2020, v2 2021, v3 2022-2024                                           
------------------------------------------------------------------------------


----------------------
SHARK INTEGRAL PACKAGE
----------------------

Number of atoms                             ...     40
Number of basis functions                   ...    840
Number of shells                            ...    328
Maximum angular momentum                    ...      3
Integral batch strategy                     ... SHARK/LIBINT Hybrid
RI-J (if used) integral strategy            ... SPLIT-RIJ (Revised 2003 algorithm where possible)
Printlevel                                  ...      1
Contraction scheme used                     ... SEGMENTED contraction
Prescreening option                         ... SCHWARTZ
   Thresh                                   ... 2.500e-11
   Tcut                                     ... 2.500e-12
   Tpresel                                  ... 2.500e-12 
Coulomb Range Separation                    ... NOT USED
Exchange Range Separation                   ... NOT USED
Multipole approximations                    ... NOT USED
Finite Nucleus Model                        ... NOT USED
CABS basis                                  ... NOT available
Auxiliary Coulomb fitting basis             ... AVAILABLE
   # of basis functions in Aux-J            ...   1352
   # of shells in Aux-J                     ...    440
   Maximum angular momentum in Aux-J        ...      4
Auxiliary J/K fitting basis                 ... NOT available
Auxiliary Correlation fitting basis         ... NOT available
Auxiliary 'external' fitting basis          ... NOT available

Checking pre-screening integrals            ... done (  0.0 sec) Dimension = 328
   => SHARK Basis and OBASIS are compatible. Storing Pre-screening
Shell pair information
Shell pair cut-off parameter TPreSel        ...   2.5e-12
Total number of shell pairs                 ...     53956
Shell pairs after pre-screening             ...     37824
Total number of primitive shell pairs       ...    166752
Primitive shell pairs kept                  ...     76791
          la=0 lb=0:   9536 shell pairs
          la=1 lb=0:  10889 shell pairs
          la=1 lb=1:   3113 shell pairs
          la=2 lb=0:   5384 shell pairs
          la=2 lb=1:   3181 shell pairs
          la=2 lb=2:    840 shell pairs
          la=3 lb=0:   2501 shell pairs
          la=3 lb=1:   1492 shell pairs
          la=3 lb=2:    718 shell pairs
          la=3 lb=3:    170 shell pairs

Checking whether 4 symmetric matrices of dimension 840 fit in memory
:Max Core in MB      =   3000.00
 MB in use           =     49.17
 MB left             =   2950.83
 MB needed           =     10.78
 Data fit in memory  = YES
Calculating RI/J V-Matrix + Cholesky decomp.... done (  0.2 sec)
Calculating Nuclear repulsion               ... done (  0.0 sec) ENN=   1892.562551637881 Eh

Diagonalization of the overlap matrix:
Smallest eigenvalue                        ... 1.002e-05
Time for diagonalization                   ...    0.266 sec
Threshold for overlap eigenvalues          ... 1.000e-07
Number of eigenvalues below threshold      ... 0
Time for construction of square roots      ...    0.164 sec
Total time needed                          ...    0.439 sec

-------------------
DFT GRID GENERATION
-------------------

General Integration Accuracy     IntAcc      ... 4.959
Radial Grid Type                 RadialGrid  ... OptM3 with GC (2021)
Angular Grid (max. ang.)         AngularGrid ... 6 (Lebedev-590)
Angular grid pruning method      GridPruning ... 4 (adaptive)
Weight generation scheme         WeightScheme... mBecke (2022)
Basis function cutoff            BFCut       ... 1.0000e-11
Integration weight cutoff        WCut        ... 1.0000e-14
Partially contracted basis set               ... off
Rotationally invariant grid construction     ... off
Angular grids for H and He will be reduced by one unit

Total number of grid points                  ...   475615
Total number of batches                      ...     7453
Average number of points per batch           ...       63
Average number of grid points per atom       ...    11890

--------------------
COSX GRID GENERATION
--------------------

GRIDX 1
-------
General Integration Accuracy     IntAcc      ... 4.020
Radial Grid Type                 RadialGrid  ... OptM3 with GC (2021)
Angular Grid (max. ang.)         AngularGrid ... 2 (Lebedev-110)
Angular grid pruning method      GridPruning ... 4 (adaptive)
Weight generation scheme         WeightScheme... mBecke (2022)
Basis function cutoff            BFCut       ... 1.0000e-11
Integration weight cutoff        WCut        ... 1.0000e-14
Partially contracted basis set               ... on
Rotationally invariant grid construction     ... off
Angular grids for H and He will be reduced by one unit

Total number of grid points                  ...    53828
Total number of batches                      ...      442
Average number of points per batch           ...      121
Average number of grid points per atom       ...     1346
UseSFitting                                  ... on

GRIDX 2
-------
General Integration Accuracy     IntAcc      ... 4.338
Radial Grid Type                 RadialGrid  ... OptM3 with GC (2021)
Angular Grid (max. ang.)         AngularGrid ... 3 (Lebedev-194)
Angular grid pruning method      GridPruning ... 4 (adaptive)
Weight generation scheme         WeightScheme... mBecke (2022)
Basis function cutoff            BFCut       ... 1.0000e-11
Integration weight cutoff        WCut        ... 1.0000e-14
Partially contracted basis set               ... on
Rotationally invariant grid construction     ... off
Angular grids for H and He will be reduced by one unit

Total number of grid points                  ...   117983
Total number of batches                      ...      942
Average number of points per batch           ...      125
Average number of grid points per atom       ...     2950
UseSFitting                                  ... on

GRIDX 3
-------
General Integration Accuracy     IntAcc      ... 4.871
Radial Grid Type                 RadialGrid  ... OptM3 with GC (2021)
Angular Grid (max. ang.)         AngularGrid ... 4 (Lebedev-302)
Angular grid pruning method      GridPruning ... 4 (adaptive)
Weight generation scheme         WeightScheme... mBecke (2022)
Basis function cutoff            BFCut       ... 1.0000e-11
Integration weight cutoff        WCut        ... 1.0000e-14
Partially contracted basis set               ... on
Rotationally invariant grid construction     ... off
Angular grids for H and He will be reduced by one unit

Total number of grid points                  ...   218991
Total number of batches                      ...     1733
Average number of points per batch           ...      126
Average number of grid points per atom       ...     5475
UseSFitting                                  ... on
Grids setup in  22.0 sec
Initializing property integral containers    ... done (  0.0 sec)

SHARK setup successfully completed in  23.7 seconds

Maximum memory used throughout the entire STARTUP-calculation: 151.3 MB


           ************************************************************
           *        Program running with 4 parallel MPI-processes     *
           *              working on a common directory               *
           ************************************************************
-------------------------------------------------------------------------------
                                 ORCA GUESS
                   Start orbitals & Density for SCF / CASSCF
-------------------------------------------------------------------------------

------------
SCF SETTINGS
------------
Hamiltonian:
 Density Functional     Method          .... DFT(GTOs)
 Exchange Functional    Exchange        .... PBE
   PBE kappa parameter   XKappa         ....  0.804000
   PBE mue parameter    XMuePBE         ....  0.219520
 Correlation Functional Correlation     .... PBE
   PBE beta parameter  CBetaPBE         ....  0.066725
 LDA part of GGA corr.  LDAOpt          .... PW91-LDA
 Gradients option       PostSCFGGA      .... off
 Hybrid DFT is turned on
   Fraction HF Exchange ScalHFX         ....  0.250000
   Scaling of DF-GGA-X  ScalDFX         ....  0.750000
   Scaling of DF-GGA-C  ScalDFC         ....  1.000000
   Scaling of DF-LDA-C  ScalLDAC        ....  1.000000
   Perturbative correction              ....  0.000000
   NL short-range parameter             ....  6.900000
 RI-approximation to the Coulomb term is turned on
   Number of AuxJ basis functions       .... 1352
   RIJ-COSX (HFX calculated with COS-X)).... on


General Settings:
 Integral files         IntName         .... tddft
 Hartree-Fock type      HFTyp           .... RHF
 Total Charge           Charge          ....    0
 Multiplicity           Mult            ....    1
 Number of Electrons    NEL             ....  164
 Basis Dimension        Dim             ....  840
 Nuclear Repulsion      ENuc            ....   1892.5625516379 Eh

Convergence Acceleration:
 AO-DIIS                CNVDIIS         .... on
   Start iteration      DIISMaxIt       ....    12
   Startup error        DIISStart       ....  0.200000
   # of expansion vecs  DIISMaxEq       ....     5
   Bias factor          DIISBfac        ....   1.050
   Max. coefficient     DIISMaxC        ....  10.000
 MO-DIIS                CNVKDIIS        .... off
 Trust-Rad. Augm. Hess. CNVTRAH         .... auto
   Auto Start mean grad. ratio tolernc. ....  1.125000
   Auto Start start iteration           ....     1
   Auto Start num. interpolation iter.  ....    10
   Max. Number of Micro iterations      ....    24
   Max. Number of Macro iterations      .... Maxiter - #DIIS iter
   Number of Davidson start vectors     ....     2
   Converg. threshold    (grad. norm)   ....   1.000e-05
   Grad. Scal. Fac. for Micro threshold ....   0.100
   Minimum threshold for Micro iter.    ....   1.000e-02
   NR start threshold (gradient norm)   ....   1.000e-04
   Initial trust radius                 ....   0.400
   Minimum AH scaling param. (alpha)    ....   1.000
   Maximum AH scaling param. (alpha)    .... 1000.000
   Quad. conv. algorithm                .... NR
   White noise on init. David. guess    .... on
   Maximum white noise                  ....   0.010
   Pseudo random numbers                .... off
   Inactive MOs                         .... canonical
   Orbital update algorithm             .... Taylor
   Preconditioner                       .... Diag
   Full preconditioner red. dimension   ....   250
 SOSCF                 CNVSOSCF           .... on
   Start iteration     SOSCFMaxIt         ....   150
   Startup grad/error  SOSCFStart         ....  0.003300
   Hessian update      SOSCFHessUp        .... L-BFGS
   Autom. constraints  SOSCFAutoConstrain .... off
 Level Shifting         CNVShift        .... on
   Level shift para.    LevelShift      ....    0.2500
   Turn off err/grad.   ShiftErr        ....    0.0010
 Zerner damping         CNVZerner       .... off
 Static damping         CNVDamp         .... on
   Fraction old density DampFac         ....    0.7000
   Max. Damping (<1)    DampMax         ....    0.9800
   Min. Damping (>=0)   DampMin         ....    0.0000
   Turn off err/grad.   DampErr         ....    0.1000

SCF Procedure:
 Maximum # iterations   MaxIter         ....   125
 SCF integral mode      SCFMode         .... Direct
   Integral package                     .... SHARK and LIBINT hybrid scheme
 Reset frequency        DirectResetFreq ....    20
 Integral Threshold     Thresh          ....  2.500e-11 Eh
 Primitive CutOff       TCut            ....  2.500e-12 Eh

Convergence Tolerance:
 Convergence Check Mode ConvCheckMode   .... Total+1el-Energy
 Convergence forced     ConvForced      .... 1
 Energy Change          TolE            ....  1.000e-08 Eh
 1-El. energy change                    ....  1.000e-05 Eh
 Orbital Gradient       TolG            ....  1.000e-05
 Orbital Rotation angle TolX            ....  1.000e-05
 DIIS Error             TolErr          ....  5.000e-07

---------------------
INITIAL GUESS: MOREAD
---------------------
Guess MOs are being read from file: tddft.ges
Input Geometry matches current geometry (good)
Input basis set matches current basis set (good)
Occupation numbers will be reassigned to an Aufbau configuration
MOs were renormalized
MOs were reorthogonalized (Cholesky)
                      ------------------
                      INITIAL GUESS DONE (   1.2 sec)
                      ------------------
             **** ENERGY FILE WAS UPDATED (tddft.en.tmp) ****
Finished Guess after   2.5 sec
Maximum memory used throughout the entire GUESS-calculation: 93.0 MB


           ************************************************************
           *        Program running with 4 parallel MPI-processes     *
           *              working on a common directory               *
           ************************************************************

-------------------------------------------------------------------------------------------
                                      ORCA LEAN-SCF
                              memory conserving SCF solver
-------------------------------------------------------------------------------------------

--------------------
CPCM SOLVATION MODEL
--------------------
CPCM parameters:
  Epsilon                                         ...       8.9990
  Refrac                                          ...       1.4242
  Rsolv                                           ...       1.3000
  Surface type                                    ... GAUSSIAN VDW
  Discretization scheme                           ... Constant charge density
    Threshold for H atoms                         ...       5.0000 (charges/Ang^2)
    Threshold for non-H atoms                     ...       5.0000 (charges/Ang^2)
  Epsilon function type                           ...         CPCM
Solvent:                                          ... DICHLOROMETHANE
Radii:
  Scheme                                          ... Element-dependent radii
  Radius for N  used is    3.5149 Bohr (=   1.8600 Ang.)
  Radius for C  used is    3.8550 Bohr (=   2.0400 Ang.)
  Radius for H  used is    2.4944 Bohr (=   1.3200 Ang.)
Calculating surface                               ...        done! (  0.0s)
Cavity surface points                             ...         3539
Cavity Volume                                     ...    2470.9683
Cavity Surface-area                               ...    1207.5649
Calculating surface distance matrix               ...        done! (  0.3s)
Performing Cholesky decomposition & store         ...        done! (  0.9s)
Overall time for CPCM initialization              ...                 1.2s

----------------------------------------D-I-I-S--------------------------------------------
Iteration    Energy (Eh)           Delta-E    RMSDP     MaxDP     DIISErr   Damp  Time(sec)
-------------------------------------------------------------------------------------------
               ***  Starting incremental Fock matrix formation  ***
                              *** Initializing SOSCF ***
---------------------------------------S-O-S-C-F--------------------------------------
Iteration    Energy (Eh)           Delta-E    RMSDP     MaxDP     MaxGrad    Time(sec)
--------------------------------------------------------------------------------------
    1    -989.9814245987868162     0.00e+00  8.06e-06  2.27e-04  6.00e-07   123.0
               *** Restarting incremental Fock matrix formation ***
    2    -989.9814245990282870    -2.41e-10  1.61e-06  4.59e-05  6.59e-07   203.9
                  *** Gradient check signals convergence ***

               *****************************************************
               *                     SUCCESS                       *
               *           SCF CONVERGED AFTER   2 CYCLES          *
               *****************************************************

Recomputing exchange energy using gridx3       ... done (  238.566 sec)
Old exchange energy                            :    -33.988985286 Eh
New exchange energy                            :    -33.988985383 Eh
Exchange energy change after final integration :     -0.000000097 Eh
Total energy after final integration           :   -989.981424714 Eh
             **** ENERGY FILE WAS UPDATED (tddft.en.tmp) ****

----------------
TOTAL SCF ENERGY
----------------

Total Energy       :       -989.98142471359222 Eh          -26938.76411 eV

Components:
Nuclear Repulsion  :       1892.56255163788092 Eh           51499.24520 eV
Electronic Energy  :      -2882.52689746002261 Eh          -78437.54457 eV
One Electron Energy:      -5102.82779159623260 Eh         -138855.00346 eV
Two Electron Energy:       2220.30089413620999 Eh           60417.45889 eV
CPCM Dielectric    :         -0.01707879445241 Eh              -0.46474 eV

Virial components:
Potential Energy   :      -1975.16929512768093 Eh          -53747.08897 eV
Kinetic Energy     :        985.18787041408871 Eh           26808.32486 eV
Virial Ratio       :          2.00486562456102

DFT components:
N(Alpha)           :       81.999987870604 electrons
N(Beta)            :       81.999987870604 electrons
N(Total)           :      163.999975741208 electrons
E(X)               :     -101.739367394544 Eh       
E(C)               :       -5.543099162797 Eh       
E(XC)              :     -107.282466557341 Eh       

CPCM Solvation Model Properties:
Surface-charge          :         -0.03581420840485
Corrected charge        :         -0.00000000000000
Outlying charge corr.   :          0.00006094926460 Eh               0.00166 eV
Free-energy (cav+disp)  :  This term is not implemented in the current solvation scheme

---------------
SCF CONVERGENCE
---------------

  Last Energy change         ...    2.4147e-10  Tolerance :   1.0000e-08
  Last MAX-Density change    ...    4.5931e-05  Tolerance :   1.0000e-07
  Last RMS-Density change    ...    1.6124e-06  Tolerance :   5.0000e-09
  Last DIIS Error            ...    3.0017e-06  Tolerance :   5.0000e-07
  Last Orbital Gradient      ...    6.5942e-07  Tolerance :   1.0000e-05
  Last Orbital Rotation      ...    3.3299e-06  Tolerance :   1.0000e-05


----------------
ORBITAL ENERGIES
----------------

  NO   OCC          E(Eh)            E(eV) 
   0   2.0000     -14.425139      -392.5280 
   1   2.0000     -14.425122      -392.5275 
   2   2.0000     -14.382914      -391.3790 
   3   2.0000     -14.361674      -390.8010 
   4   2.0000     -10.279300      -279.7140 
   5   2.0000     -10.279295      -279.7138 
   6   2.0000     -10.271338      -279.4973 
   7   2.0000     -10.271328      -279.4970 
   8   2.0000     -10.269814      -279.4558 
   9   2.0000     -10.269783      -279.4550 
  10   2.0000     -10.252489      -278.9844 
  11   2.0000     -10.252460      -278.9836 
  12   2.0000     -10.238870      -278.6138 
  13   2.0000     -10.238853      -278.6133 
  14   2.0000     -10.235169      -278.5131 
  15   2.0000     -10.235163      -278.5129 
  16   2.0000     -10.231349      -278.4092 
  17   2.0000     -10.231344      -278.4090 
  18   2.0000     -10.226287      -278.2714 
  19   2.0000     -10.226280      -278.2712 
  20   2.0000     -10.225502      -278.2500 
  21   2.0000     -10.225262      -278.2435 
  22   2.0000     -10.219052      -278.0745 
  23   2.0000     -10.218251      -278.0528 
  24   2.0000      -1.023145       -27.8412 
  25   2.0000      -1.021476       -27.7958 
  26   2.0000      -0.982466       -26.7343 
  27   2.0000      -0.974295       -26.5119 
  28   2.0000      -0.847972       -23.0745 
  29   2.0000      -0.824534       -22.4367 
  30   2.0000      -0.820083       -22.3156 
  31   2.0000      -0.818541       -22.2736 
  32   2.0000      -0.816776       -22.2256 
  33   2.0000      -0.791647       -21.5418 
  34   2.0000      -0.781927       -21.2773 
  35   2.0000      -0.767166       -20.8757 
  36   2.0000      -0.749130       -20.3849 
  37   2.0000      -0.685061       -18.6414 
  38   2.0000      -0.683245       -18.5920 
  39   2.0000      -0.632903       -17.2222 
  40   2.0000      -0.623666       -16.9708 
  41   2.0000      -0.615878       -16.7589 
  42   2.0000      -0.605263       -16.4700 
  43   2.0000      -0.601198       -16.3594 
  44   2.0000      -0.596171       -16.2226 
  45   2.0000      -0.592857       -16.1324 
  46   2.0000      -0.570501       -15.5241 
  47   2.0000      -0.533659       -14.5216 
  48   2.0000      -0.521187       -14.1822 
  49   2.0000      -0.518624       -14.1125 
  50   2.0000      -0.510054       -13.8793 
  51   2.0000      -0.489327       -13.3153 
  52   2.0000      -0.473541       -12.8857 
  53   2.0000      -0.465186       -12.6584 
  54   2.0000      -0.459318       -12.4987 
  55   2.0000      -0.456046       -12.4097 
  56   2.0000      -0.453869       -12.3504 
  57   2.0000      -0.450695       -12.2640 
  58   2.0000      -0.440143       -11.9769 
  59   2.0000      -0.436720       -11.8838 
  60   2.0000      -0.426010       -11.5923 
  61   2.0000      -0.425798       -11.5866 
  62   2.0000      -0.419747       -11.4219 
  63   2.0000      -0.406855       -11.0711 
  64   2.0000      -0.394816       -10.7435 
  65   2.0000      -0.392460       -10.6794 
  66   2.0000      -0.388579       -10.5738 
  67   2.0000      -0.386446       -10.5157 
  68   2.0000      -0.378735       -10.3059 
  69   2.0000      -0.378229       -10.2921 
  70   2.0000      -0.372268       -10.1299 
  71   2.0000      -0.370168       -10.0728 
  72   2.0000      -0.338578        -9.2132 
  73   2.0000      -0.301654        -8.2084 
  74   2.0000      -0.292578        -7.9615 
  75   2.0000      -0.289686        -7.8828 
  76   2.0000      -0.287002        -7.8097 
  77   2.0000      -0.285612        -7.7719 
  78   2.0000      -0.280868        -7.6428 
  79   2.0000      -0.257518        -7.0074 
  80   2.0000      -0.211539        -5.7563 
  81   2.0000      -0.200440        -5.4543 
  82   0.0000      -0.094522        -2.5721 
  83   0.0000      -0.074704        -2.0328 
  84   0.0000      -0.004316        -0.1174 
  85   0.0000       0.027468         0.7474 
  86   0.0000       0.048371         1.3162 
  87   0.0000       0.052048         1.4163 
  88   0.0000       0.064961         1.7677 
  89   0.0000       0.071152         1.9361 
  90   0.0000       0.071965         1.9583 
  91   0.0000       0.078568         2.1379 
  92   0.0000       0.082677         2.2498 
*Only the first 10 virtual orbitals were printed.

                    ********************************
                    * MULLIKEN POPULATION ANALYSIS *
                    ********************************

-----------------------
MULLIKEN ATOMIC CHARGES
-----------------------
   0 N :   -0.360157
   1 N :   -0.127847
   2 N :   -0.127915
   3 N :   -0.436989
   4 C :   -0.155556
   5 C :   -0.155992
   6 C :    0.205428
   7 C :    0.206191
   8 C :   -0.502797
   9 C :   -0.502982
  10 C :    0.301657
  11 C :    0.301279
  12 C :    0.285076
  13 C :    0.285225
  14 C :   -0.240704
  15 C :   -0.240525
  16 C :   -0.237346
  17 C :   -0.237531
  18 C :   -0.484767
  19 C :   -0.484650
  20 C :    0.336710
  21 C :    0.336510
  22 C :   -0.255511
  23 C :   -0.255375
  24 H :    0.129086
  25 H :    0.131803
  26 H :    0.129102
  27 H :    0.131855
  28 H :    0.157382
  29 H :    0.157393
  30 H :    0.225565
  31 H :    0.225656
  32 H :    0.160541
  33 H :    0.160516
  34 H :    0.161603
  35 H :    0.161613
  36 H :    0.160464
  37 H :    0.160486
  38 H :    0.147760
  39 H :    0.147744
Sum of atomic charges:    0.0000000

--------------------------------
MULLIKEN REDUCED ORBITAL CHARGES
--------------------------------
  0 N s       :     3.612495  s :     3.612495
      pz      :     1.190441  p :     3.679078
      px      :     1.290407
      py      :     1.198230
      dz2     :     0.005234  d :     0.064965
      dxz     :     0.011083
      dyz     :     0.011818
      dx2y2   :     0.021037
      dxy     :     0.015793
      f0      :     0.000616  f :     0.003620
      f+1     :     0.000279
      f-1     :     0.000304
      f+2     :     0.000497
      f-2     :     0.000140
      f+3     :     0.000988
      f-3     :     0.000796

  1 N s       :     3.415088  s :     3.415088
      pz      :     1.512483  p :     3.640569
      px      :     1.070308
      py      :     1.057778
      dz2     :     0.004883  d :     0.067648
      dxz     :     0.011897
      dyz     :     0.009468
      dx2y2   :     0.018005
      dxy     :     0.023395
      f0      :     0.000826  f :     0.004541
      f+1     :     0.000600
      f-1     :     0.000628
      f+2     :     0.000580
      f-2     :     0.000080
      f+3     :     0.000857
      f-3     :     0.000970

  2 N s       :     3.415145  s :     3.415145
      pz      :     1.512469  p :     3.640584
      px      :     1.060972
      py      :     1.067143
      dz2     :     0.004884  d :     0.067645
      dxz     :     0.011844
      dyz     :     0.009518
      dx2y2   :     0.017551
      dxy     :     0.023847
      f0      :     0.000826  f :     0.004541
      f+1     :     0.000608
      f-1     :     0.000621
      f+2     :     0.000573
      f-2     :     0.000087
      f+3     :     0.000818
      f-3     :     0.001008

  3 N s       :     3.605927  s :     3.605927
      pz      :     1.276753  p :     3.763739
      px      :     1.287686
      py      :     1.199300
      dz2     :     0.005443  d :     0.063676
      dxz     :     0.010780
      dyz     :     0.011692
      dx2y2   :     0.020864
      dxy     :     0.014898
      f0      :     0.000621  f :     0.003646
      f+1     :     0.000330
      f-1     :     0.000348
      f+2     :     0.000608
      f-2     :     0.000128
      f+3     :     0.000872
      f-3     :     0.000740

  4 C s       :     3.086333  s :     3.086333
      pz      :     1.061634  p :     2.978698
      px      :     0.903396
      py      :     1.013668
      dz2     :     0.004342  d :     0.084721
      dxz     :     0.017048
      dyz     :     0.019902
      dx2y2   :     0.025179
      dxy     :     0.018249
      f0      :     0.000590  f :     0.005804
      f+1     :     0.000167
      f-1     :     0.001165
      f+2     :     0.000333
      f-2     :     0.000825
      f+3     :     0.001378
      f-3     :     0.001346

  5 C s       :     3.086931  s :     3.086931
      pz      :     1.061678  p :     2.978503
      px      :     1.007808
      py      :     0.909017
      dz2     :     0.004350  d :     0.084753
      dxz     :     0.019171
      dyz     :     0.017781
      dx2y2   :     0.024760
      dxy     :     0.018691
      f0      :     0.000592  f :     0.005805
      f+1     :     0.001188
      f-1     :     0.000141
      f+2     :     0.000308
      f-2     :     0.000851
      f+3     :     0.001097
      f-3     :     0.001628

  6 C s       :     3.142893  s :     3.142893
      pz      :     0.864879  p :     2.479056
      px      :     0.857587
      py      :     0.756589
      dz2     :     0.003021  d :     0.158881
      dxz     :     0.027752
      dyz     :     0.036028
      dx2y2   :     0.043970
      dxy     :     0.048110
      f0      :     0.001931  f :     0.013742
      f+1     :     0.000719
      f-1     :     0.001035
      f+2     :     0.001530
      f-2     :     0.001166
      f+3     :     0.005159
      f-3     :     0.002202

  7 C s       :     3.142566  s :     3.142566
      pz      :     0.864848  p :     2.478615
      px      :     0.784253
      py      :     0.829514
      dz2     :     0.003022  d :     0.158884
      dxz     :     0.032247
      dyz     :     0.031544
      dx2y2   :     0.044982
      dxy     :     0.047088
      f0      :     0.001931  f :     0.013745
      f+1     :     0.001029
      f-1     :     0.000726
      f+2     :     0.001314
      f-2     :     0.001383
      f+3     :     0.003472
      f-3     :     0.003891

  8 C s       :     3.403888  s :     3.403888
      pz      :     1.085388  p :     3.019723
      px      :     0.942783
      py      :     0.991552
      dz2     :     0.002820  d :     0.071897
      dxz     :     0.024305
      dyz     :     0.003768
      dx2y2   :     0.031639
      dxy     :     0.009365
      f0      :     0.001515  f :     0.007289
      f+1     :     0.000705
      f-1     :     0.000702
      f+2     :     0.000450
      f-2     :     0.000733
      f+3     :     0.002012
      f-3     :     0.001173

  9 C s       :     3.403885  s :     3.403885
      pz      :     1.085380  p :     3.019931
      px      :     0.978521
      py      :     0.956030
      dz2     :     0.002820  d :     0.071876
      dxz     :     0.003617
      dyz     :     0.024456
      dx2y2   :     0.032080
      dxy     :     0.008903
      f0      :     0.001515  f :     0.007289
      f+1     :     0.000702
      f-1     :     0.000705
      f+2     :     0.000440
      f-2     :     0.000742
      f+3     :     0.001207
      f-3     :     0.001978

 10 C s       :     3.098113  s :     3.098113
      pz      :     0.900584  p :     2.427768
      px      :     0.805868
      py      :     0.721316
      dz2     :     0.004694  d :     0.158441
      dxz     :     0.037827
      dyz     :     0.035396
      dx2y2   :     0.038275
      dxy     :     0.042249
      f0      :     0.002264  f :     0.014020
      f+1     :     0.000851
      f-1     :     0.001083
      f+2     :     0.001985
      f-2     :     0.001218
      f+3     :     0.003906
      f-3     :     0.002712

 11 C s       :     3.098198  s :     3.098198
      pz      :     0.900580  p :     2.428078
      px      :     0.697427
      py      :     0.830071
      dz2     :     0.004697  d :     0.158427
      dxz     :     0.038012
      dyz     :     0.035209
      dx2y2   :     0.044915
      dxy     :     0.035594
      f0      :     0.002264  f :     0.014019
      f+1     :     0.001133
      f-1     :     0.000802
      f+2     :     0.002489
      f-2     :     0.000713
      f+3     :     0.002138
      f-3     :     0.004479

 12 C s       :     3.084848  s :     3.084848
      pz      :     0.954995  p :     2.461639
      px      :     0.691582
      py      :     0.815062
      dz2     :     0.005229  d :     0.154540
      dxz     :     0.036356
      dyz     :     0.032057
      dx2y2   :     0.045185
      dxy     :     0.035714
      f0      :     0.002283  f :     0.013896
      f+1     :     0.001137
      f-1     :     0.000814
      f+2     :     0.002487
      f-2     :     0.000585
      f+3     :     0.002127
      f-3     :     0.004464

 13 C s       :     3.084819  s :     3.084819
      pz      :     0.954926  p :     2.461512
      px      :     0.790896
      py      :     0.715691
      dz2     :     0.005227  d :     0.154546
      dxz     :     0.034007
      dyz     :     0.034408
      dx2y2   :     0.038198
      dxy     :     0.042705
      f0      :     0.002283  f :     0.013898
      f+1     :     0.000857
      f-1     :     0.001094
      f+2     :     0.001976
      f-2     :     0.001096
      f+3     :     0.003938
      f-3     :     0.002653

 14 C s       :     3.268681  s :     3.268681
      pz      :     1.014836  p :     2.877939
      px      :     0.922969
      py      :     0.940134
      dz2     :     0.005326  d :     0.086334
      dxz     :     0.021317
      dyz     :     0.008273
      dx2y2   :     0.032610
      dxy     :     0.018809
      f0      :     0.001551  f :     0.007750
      f+1     :     0.000554
      f-1     :     0.000871
      f+2     :     0.000102
      f-2     :     0.001238
      f+3     :     0.002204
      f-3     :     0.001230

 15 C s       :     3.268833  s :     3.268833
      pz      :     1.014712  p :     2.877602
      px      :     0.947248
      py      :     0.915643
      dz2     :     0.005328  d :     0.086340
      dxz     :     0.009761
      dyz     :     0.019829
      dx2y2   :     0.032753
      dxy     :     0.018669
      f0      :     0.001551  f :     0.007750
      f+1     :     0.000834
      f-1     :     0.000591
      f+2     :     0.000413
      f-2     :     0.000927
      f+3     :     0.001858
      f-3     :     0.001576

 16 C s       :     3.281162  s :     3.281162
      pz      :     0.983564  p :     2.860073
      px      :     0.954714
      py      :     0.921795
      dz2     :     0.005134  d :     0.088338
      dxz     :     0.010185
      dyz     :     0.022452
      dx2y2   :     0.031969
      dxy     :     0.018597
      f0      :     0.001529  f :     0.007773
      f+1     :     0.000818
      f-1     :     0.000575
      f+2     :     0.000507
      f-2     :     0.000932
      f+3     :     0.001889
      f-3     :     0.001524

 17 C s       :     3.281087  s :     3.281087
      pz      :     0.983640  p :     2.860340
      px      :     0.928692
      py      :     0.948008
      dz2     :     0.005134  d :     0.088330
      dxz     :     0.024335
      dyz     :     0.008296
      dx2y2   :     0.032259
      dxy     :     0.018305
      f0      :     0.001529  f :     0.007773
      f+1     :     0.000538
      f-1     :     0.000855
      f+2     :     0.000128
      f-2     :     0.001310
      f+3     :     0.002168
      f-3     :     0.001245

 18 C s       :     3.445423  s :     3.445423
      pz      :     0.991876  p :     2.950257
      px      :     0.991740
      py      :     0.966642
      dz2     :     0.002915  d :     0.081937
      dxz     :     0.003556
      dyz     :     0.031154
      dx2y2   :     0.034491
      dxy     :     0.009821
      f0      :     0.001433  f :     0.007150
      f+1     :     0.000658
      f-1     :     0.000643
      f+2     :     0.000417
      f-2     :     0.000820
      f+3     :     0.001122
      f-3     :     0.002058

 19 C s       :     3.445502  s :     3.445502
      pz      :     0.991887  p :     2.950061
      px      :     0.958163
      py      :     1.000011
      dz2     :     0.002913  d :     0.081937
      dxz     :     0.030838
      dyz     :     0.003865
      dx2y2   :     0.033936
      dxy     :     0.010385
      f0      :     0.001433  f :     0.007150
      f+1     :     0.000640
      f-1     :     0.000661
      f+2     :     0.000454
      f-2     :     0.000783
      f+3     :     0.001966
      f-3     :     0.001213

 20 C s       :     3.075990  s :     3.075990
      pz      :     0.931837  p :     2.415399
      px      :     0.749503
      py      :     0.734059
      dz2     :     0.004489  d :     0.157853
      dxz     :     0.034369
      dyz     :     0.029806
      dx2y2   :     0.043014
      dxy     :     0.046176
      f0      :     0.002114  f :     0.014048
      f+1     :     0.001050
      f-1     :     0.000831
      f+2     :     0.001621
      f-2     :     0.001085
      f+3     :     0.003150
      f-3     :     0.004197

 21 C s       :     3.076164  s :     3.076164
      pz      :     0.931791  p :     2.415434
      px      :     0.748016
      py      :     0.735627
      dz2     :     0.004493  d :     0.157845
      dxz     :     0.028608
      dyz     :     0.035554
      dx2y2   :     0.041023
      dxy     :     0.048168
      f0      :     0.002114  f :     0.014048
      f+1     :     0.000798
      f-1     :     0.001083
      f+2     :     0.002070
      f-2     :     0.000636
      f+3     :     0.005161
      f-3     :     0.002186

 22 C s       :     3.278480  s :     3.278480
      pz      :     1.006613  p :     2.882346
      px      :     0.933109
      py      :     0.942624
      dz2     :     0.005015  d :     0.086915
      dxz     :     0.007840
      dyz     :     0.022135
      dx2y2   :     0.032001
      dxy     :     0.019924
      f0      :     0.001471  f :     0.007770
      f+1     :     0.000828
      f-1     :     0.000503
      f+2     :     0.000080
      f-2     :     0.001322
      f+3     :     0.001304
      f-3     :     0.002262

 23 C s       :     3.278579  s :     3.278579
      pz      :     1.006528  p :     2.882123
      px      :     0.933382
      py      :     0.942213
      dz2     :     0.005014  d :     0.086903
      dxz     :     0.020607
      dyz     :     0.009361
      dx2y2   :     0.032849
      dxy     :     0.019071
      f0      :     0.001471  f :     0.007769
      f+1     :     0.000541
      f-1     :     0.000791
      f+2     :     0.000404
      f-2     :     0.000997
      f+3     :     0.001637
      f-3     :     0.001929

 24 H s       :     0.848980  s :     0.848980
      pz      :     0.010046  p :     0.021934
      px      :     0.004467
      py      :     0.007421

 25 H s       :     0.846311  s :     0.846311
      pz      :     0.009325  p :     0.021886
      px      :     0.004446
      py      :     0.008115

 26 H s       :     0.848964  s :     0.848964
      pz      :     0.010076  p :     0.021934
      px      :     0.007556
      py      :     0.004302

 27 H s       :     0.846262  s :     0.846262
      pz      :     0.009289  p :     0.021883
      px      :     0.008281
      py      :     0.004312

 28 H s       :     0.819905  s :     0.819905
      pz      :     0.005579  p :     0.022713
      px      :     0.003534
      py      :     0.013601

 29 H s       :     0.819892  s :     0.819892
      pz      :     0.005579  p :     0.022715
      px      :     0.013552
      py      :     0.003584

 30 H s       :     0.732077  s :     0.732077
      pz      :     0.010483  p :     0.042358
      px      :     0.013102
      py      :     0.018773

 31 H s       :     0.731981  s :     0.731981
      pz      :     0.010481  p :     0.042363
      px      :     0.015060
      py      :     0.016822

 32 H s       :     0.817037  s :     0.817037
      pz      :     0.004927  p :     0.022422
      px      :     0.003503
      py      :     0.013991

 33 H s       :     0.817065  s :     0.817065
      pz      :     0.004926  p :     0.022419
      px      :     0.013466
      py      :     0.004028

 34 H s       :     0.816077  s :     0.816077
      pz      :     0.004710  p :     0.022320
      px      :     0.013475
      py      :     0.004135

 35 H s       :     0.816064  s :     0.816064
      pz      :     0.004711  p :     0.022323
      px      :     0.003548
      py      :     0.014064

 36 H s       :     0.817069  s :     0.817069
      pz      :     0.005018  p :     0.022468
      px      :     0.013872
      py      :     0.003577

 37 H s       :     0.817047  s :     0.817047
      pz      :     0.005018  p :     0.022467
      px      :     0.003623
      py      :     0.013826

 38 H s       :     0.829934  s :     0.829934
      pz      :     0.004887  p :     0.022306
      px      :     0.013725
      py      :     0.003693

 39 H s       :     0.829952  s :     0.829952
      pz      :     0.004887  p :     0.022304
      px      :     0.004207
      py      :     0.013210



                     *******************************
                     * LOEWDIN POPULATION ANALYSIS *
                     *******************************

----------------------
LOEWDIN ATOMIC CHARGES
----------------------
   0 N :    0.129479
   1 N :    0.257052
   2 N :    0.257046
   3 N :    0.083206
   4 C :   -0.198627
   5 C :   -0.198663
   6 C :   -0.220629
   7 C :   -0.220737
   8 C :   -0.137343
   9 C :   -0.137336
  10 C :   -0.189863
  11 C :   -0.189855
  12 C :   -0.202835
  13 C :   -0.202840
  14 C :   -0.116886
  15 C :   -0.116795
  16 C :   -0.106111
  17 C :   -0.106160
  18 C :   -0.092198
  19 C :   -0.092172
  20 C :   -0.250461
  21 C :   -0.250375
  22 C :   -0.133465
  23 C :   -0.133382
  24 H :    0.152298
  25 H :    0.151385
  26 H :    0.152320
  27 H :    0.151386
  28 H :    0.169298
  29 H :    0.169315
  30 H :    0.188104
  31 H :    0.188122
  32 H :    0.152305
  33 H :    0.152332
  34 H :    0.153878
  35 H :    0.153852
  36 H :    0.171784
  37 H :    0.171770
  38 H :    0.145891
  39 H :    0.145910

-------------------------------
LOEWDIN REDUCED ORBITAL CHARGES
-------------------------------
  0 N s       :     3.036426  s :     3.036426
      pz      :     1.075864  p :     3.603982
      px      :     1.294079
      py      :     1.234039
      dz2     :     0.017132  d :     0.210867
      dxz     :     0.023783
      dyz     :     0.030091
      dx2y2   :     0.077517
      dxy     :     0.062342
      f0      :     0.001140  f :     0.019246
      f+1     :     0.001194
      f-1     :     0.001408
      f+2     :     0.003087
      f-2     :     0.000407
      f+3     :     0.006974
      f-3     :     0.005036

  1 N s       :     2.887872  s :     2.887872
      pz      :     1.332658  p :     3.599563
      px      :     1.131626
      py      :     1.135279
      dz2     :     0.014264  d :     0.237655
      dxz     :     0.034710
      dyz     :     0.026260
      dx2y2   :     0.072852
      dxy     :     0.089569
      f0      :     0.001209  f :     0.017858
      f+1     :     0.001661
      f-1     :     0.001732
      f+2     :     0.003604
      f-2     :     0.000420
      f+3     :     0.003412
      f-3     :     0.005819

  2 N s       :     2.887880  s :     2.887880
      pz      :     1.332658  p :     3.599576
      px      :     1.135567
      py      :     1.131350
      dz2     :     0.014265  d :     0.237640
      dxz     :     0.033654
      dyz     :     0.027308
      dx2y2   :     0.071338
      dxy     :     0.091074
      f0      :     0.001209  f :     0.017858
      f+1     :     0.001741
      f-1     :     0.001652
      f+2     :     0.003588
      f-2     :     0.000436
      f+3     :     0.003418
      f-3     :     0.005814

  3 N s       :     3.044992  s :     3.044992
      pz      :     1.152952  p :     3.649620
      px      :     1.277675
      py      :     1.218993
      dz2     :     0.016702  d :     0.203018
      dxz     :     0.024858
      dyz     :     0.031158
      dx2y2   :     0.072532
      dxy     :     0.057768
      f0      :     0.001112  f :     0.019163
      f+1     :     0.001185
      f-1     :     0.001372
      f+2     :     0.003676
      f-2     :     0.000318
      f+3     :     0.006529
      f-3     :     0.004970

  4 C s       :     2.768399  s :     2.768399
      pz      :     1.037561  p :     3.028116
      px      :     0.985476
      py      :     1.005078
      dz2     :     0.038411  d :     0.362146
      dxz     :     0.047724
      dyz     :     0.097754
      dx2y2   :     0.091568
      dxy     :     0.086688
      f0      :     0.003774  f :     0.039966
      f+1     :     0.003138
      f-1     :     0.004444
      f+2     :     0.004045
      f-2     :     0.005298
      f+3     :     0.009339
      f-3     :     0.009927

  5 C s       :     2.768393  s :     2.768393
      pz      :     1.037568  p :     3.028099
      px      :     1.003670
      py      :     0.986862
      dz2     :     0.038467  d :     0.362202
      dxz     :     0.096676
      dyz     :     0.048740
      dx2y2   :     0.086475
      dxy     :     0.091844
      f0      :     0.003779  f :     0.039969
      f+1     :     0.004477
      f-1     :     0.003093
      f+2     :     0.004109
      f-2     :     0.005247
      f+3     :     0.007576
      f-3     :     0.011688

  6 C s       :     2.724976  s :     2.724976
      pz      :     0.800173  p :     2.771959
      px      :     1.007322
      py      :     0.964464
      dz2     :     0.042590  d :     0.645772
      dxz     :     0.084706
      dyz     :     0.107972
      dx2y2   :     0.193750
      dxy     :     0.216755
      f0      :     0.005067  f :     0.077922
      f+1     :     0.004007
      f-1     :     0.006258
      f+2     :     0.010517
      f-2     :     0.006691
      f+3     :     0.032147
      f-3     :     0.013234

  7 C s       :     2.724951  s :     2.724951
      pz      :     0.800133  p :     2.771973
      px      :     0.959204
      py      :     1.012636
      dz2     :     0.042612  d :     0.645876
      dxz     :     0.097585
      dyz     :     0.095139
      dx2y2   :     0.198627
      dxy     :     0.211913
      f0      :     0.005067  f :     0.077937
      f+1     :     0.005929
      f-1     :     0.004339
      f+2     :     0.009512
      f-2     :     0.007700
      f+3     :     0.021703
      f-3     :     0.023686

  8 C s       :     2.752681  s :     2.752681
      pz      :     0.958279  p :     2.980248
      px      :     1.026690
      py      :     0.995279
      dz2     :     0.024807  d :     0.364609
      dxz     :     0.075278
      dyz     :     0.011820
      dx2y2   :     0.155882
      dxy     :     0.096822
      f0      :     0.003273  f :     0.039805
      f+1     :     0.004774
      f-1     :     0.002979
      f+2     :     0.002254
      f-2     :     0.005413
      f+3     :     0.012250
      f-3     :     0.008863

  9 C s       :     2.752669  s :     2.752669
      pz      :     0.958279  p :     2.980246
      px      :     0.991635
      py      :     1.030332
      dz2     :     0.024807  d :     0.364616
      dxz     :     0.011687
      dyz     :     0.075412
      dx2y2   :     0.151978
      dxy     :     0.100732
      f0      :     0.003273  f :     0.039805
      f+1     :     0.002978
      f-1     :     0.004774
      f+2     :     0.002110
      f-2     :     0.005557
      f+3     :     0.008844
      f-3     :     0.012270

 10 C s       :     2.699645  s :     2.699645
      pz      :     0.832051  p :     2.770835
      px      :     1.025262
      py      :     0.913521
      dz2     :     0.041128  d :     0.638328
      dxz     :     0.101726
      dyz     :     0.120223
      dx2y2   :     0.188977
      dxy     :     0.186275
      f0      :     0.005407  f :     0.081055
      f+1     :     0.004774
      f-1     :     0.006107
      f+2     :     0.013282
      f-2     :     0.008631
      f+3     :     0.025380
      f-3     :     0.017475

 11 C s       :     2.699644  s :     2.699644
      pz      :     0.832051  p :     2.770831
      px      :     0.911836
      py      :     1.026944
      dz2     :     0.041131  d :     0.638330
      dxz     :     0.126915
      dyz     :     0.095032
      dx2y2   :     0.199018
      dxy     :     0.176234
      f0      :     0.005406  f :     0.081051
      f+1     :     0.006444
      f-1     :     0.004438
      f+2     :     0.016417
      f-2     :     0.005493
      f+3     :     0.013931
      f-3     :     0.028922

 12 C s       :     2.696884  s :     2.696884
      pz      :     0.872332  p :     2.800508
      px      :     0.898903
      py      :     1.029273
      dz2     :     0.041335  d :     0.625516
      dxz     :     0.121579
      dyz     :     0.086150
      dx2y2   :     0.202873
      dxy     :     0.173579
      f0      :     0.005441  f :     0.079928
      f+1     :     0.006407
      f-1     :     0.004622
      f+2     :     0.016081
      f-2     :     0.004545
      f+3     :     0.014238
      f-3     :     0.028595

 13 C s       :     2.696881  s :     2.696881
      pz      :     0.872280  p :     2.800474
      px      :     1.028066
      py      :     0.900127
      dz2     :     0.041341  d :     0.625551
      dxz     :     0.090805
      dyz     :     0.116945
      dx2y2   :     0.191727
      dxy     :     0.184733
      f0      :     0.005441  f :     0.079933
      f+1     :     0.004950
      f-1     :     0.006079
      f+2     :     0.012838
      f-2     :     0.007790
      f+3     :     0.025564
      f-3     :     0.017271

 14 C s       :     2.761809  s :     2.761809
      pz      :     0.916641  p :     2.939043
      px      :     1.021157
      py      :     1.001244
      dz2     :     0.026514  d :     0.369654
      dxz     :     0.070293
      dyz     :     0.018522
      dx2y2   :     0.151688
      dxy     :     0.102637
      f0      :     0.003082  f :     0.046380
      f+1     :     0.003808
      f-1     :     0.003758
      f+2     :     0.000646
      f-2     :     0.008945
      f+3     :     0.016819
      f-3     :     0.009321

 15 C s       :     2.761808  s :     2.761808
      pz      :     0.916556  p :     2.938954
      px      :     1.012072
      py      :     1.010326
[...]
  0-1A  ->  1-1A    2.263390   18255.5   547.8   0.176932410   0.02208  -0.09398   0.11508  -0.00077
  0-1A  ->  2-1A    2.519194   20318.7   492.2   0.005452626   0.00076   0.02136   0.01735   0.00004
  0-1A  ->  3-1A    3.344449   26974.8   370.7   1.369900911   0.25255  -0.39026  -0.31662  -0.00074
  0-1A  ->  4-1A    3.353375   27046.8   369.7   0.994302575   0.18380   0.26963  -0.33331   0.00164
  0-1A  ->  5-1A    3.713092   29948.1   333.9   0.126670539   0.02593   0.12480   0.10174   0.00023
  0-1A  ->  6-1A    4.078141   32892.4   304.0   0.250957200   0.05642   0.15012  -0.18406   0.00085
  0-1A  ->  7-1A    4.214321   33990.8   294.2   0.003359180   0.00078   0.01742  -0.02121   0.00520
  0-1A  ->  8-1A    4.223612   34065.7   293.6   0.002441088   0.00057   0.01423  -0.01737  -0.00801
  0-1A  ->  9-1A    4.292409   34620.6   288.8   0.001027460   0.00024  -0.00209   0.00233   0.01527
  0-1A  -> 10-1A    4.335565   34968.7   286.0   0.051184224   0.01223   0.08564   0.06999   0.00017
  0-1A  -> 11-1A    4.523240   36482.4   274.1   0.120319001   0.03000  -0.10940   0.13429   0.00004
  0-1A  -> 12-1A    4.658546   37573.7   266.1   0.000000873   0.00000  -0.00038  -0.00028  -0.00000
  0-1A  -> 13-1A    4.698415   37895.3   263.9   0.032396968   0.00839   0.07099   0.05788   0.00021
  0-1A  -> 14-1A    4.828215   38942.2   256.8   0.000001064   0.00000   0.00044   0.00030  -0.00000
  0-1A  -> 15-1A    4.890993   39448.5   253.5   0.011530010   0.00311  -0.04330  -0.03513  -0.00011
  0-1A  -> 16-1A    4.933576   39792.0   251.3   0.230097894   0.06258   0.15799  -0.19394   0.00159
  0-1A  -> 17-1A    4.937034   39819.9   251.1   0.012023983   0.00327  -0.04504  -0.03527  -0.00005
  0-1A  -> 18-1A    5.009164   40401.6   247.5   0.032353106   0.00893  -0.05978   0.07321  -0.00012
  0-1A  -> 19-1A    5.220625   42107.2   237.5   0.000021022   0.00001   0.00200   0.00142   0.00014
  0-1A  -> 20-1A    5.401880   43569.1   229.5   0.047240786   0.01407  -0.07500   0.09188   0.00059
  0-1A  -> 21-1A    5.643512   45518.0   219.7   0.010111535   0.00315   0.03540  -0.04341  -0.00283
  0-1A  -> 22-1A    5.773527   46566.6   214.7   0.001614871   0.00051   0.01759   0.01430   0.00016
  0-1A  -> 23-1A    5.943716   47939.3   208.6   0.000002682   0.00000  -0.00075  -0.00057   0.00005
  0-1A  -> 24-1A    5.959417   48065.9   208.0   0.010433464   0.00343  -0.03697   0.04539  -0.00055
  0-1A  -> 25-1A    6.142214   49540.3   201.9   0.081572594   0.02762   0.10499  -0.12882  -0.00049
  0-1A  -> 26-1A    6.209124   50080.0   199.7   0.003034788   0.00104   0.00569  -0.00680  -0.03099
  0-1A  -> 27-1A    6.223667   50197.3   199.2   0.014681266   0.00504   0.04502  -0.05485   0.00106
  0-1A  -> 28-1A    6.318057   50958.6   196.2   0.077738862   0.02707  -0.12752  -0.10398  -0.00021
  0-1A  -> 29-1A    6.447111   51999.5   192.3   0.000370713   0.00013   0.00895   0.00718   0.00001
  0-1A  -> 30-1A    6.499160   52419.3   190.8   0.000098456   0.00004  -0.00463  -0.00372  -0.00001

------------------------------------------------------------------------------------------
                     CD SPECTRUM VIA TRANSITION ELECTRIC DIPOLE MOMENTS    
------------------------------------------------------------------------------------------
     Transition      Energy     Energy  Wavelength    R        MX        MY        MZ   
                      (eV)      (cm-1)    (nm)   (1e40*cgs)   (au)      (au)      (au)  
------------------------------------------------------------------------------------------
  0-1A  ->  1-1A    2.263390   18255.5   547.8    0.28537   0.00299  -0.00195  -0.76772
  0-1A  ->  2-1A    2.519194   20318.7   492.2   -0.09658  -0.00053  -0.00043   0.00030
  0-1A  ->  3-1A    3.344449   26974.8   370.7  -10.54501   0.00399   0.00373   0.00056
  0-1A  ->  4-1A    3.353375   27046.8   369.7   -0.88588   0.00013   0.00029  -0.10128
  0-1A  ->  5-1A    3.713092   29948.1   333.9   -0.58903  -0.00075  -0.00073   0.00006
  0-1A  ->  6-1A    4.078141   32892.4   304.0    1.85007  -0.00053  -0.00057   0.66513
  0-1A  ->  7-1A    4.214321   33990.8   294.2   19.83907   0.12856  -0.15790   0.18104
  0-1A  ->  8-1A    4.223612   34065.7   293.6  -17.54242  -0.12815   0.15677   0.16134
  0-1A  ->  9-1A    4.292409   34620.6   288.8    2.82691  -0.12480   0.15294   0.02639
  0-1A  -> 10-1A    4.335565   34968.7   286.0   -0.95060  -0.00242  -0.00167  -0.00020
  0-1A  -> 11-1A    4.523240   36482.4   274.1   -0.22586  -0.00049  -0.00110   0.66192
  0-1A  -> 12-1A    4.658546   37573.7   266.1    0.09041  -0.05316  -0.04346  -0.00016
  0-1A  -> 13-1A    4.698415   37895.3   263.9   -0.47978  -0.00144  -0.00131  -0.00076
  0-1A  -> 14-1A    4.828215   38942.2   256.8    0.00788   0.00396   0.00330  -0.00000
  0-1A  -> 15-1A    4.890993   39448.5   253.5   -0.22309   0.00111   0.00103   0.00021
  0-1A  -> 16-1A    4.933576   39792.0   251.3    1.51586   0.00145  -0.00166   0.01853
  0-1A  -> 17-1A    4.937034   39819.9   251.1   -0.05665   0.00025   0.00030   0.00004
  0-1A  -> 18-1A    5.009164   40401.6   247.5   -0.15852   0.00040  -0.00049   0.01977
  0-1A  -> 19-1A    5.220625   42107.2   237.5   -0.01143  -0.00246  -0.00202  -0.00041
  0-1A  -> 20-1A    5.401880   43569.1   229.5    1.40780  -0.00240   0.00188   0.41495
  0-1A  -> 21-1A    5.643512   45518.0   219.7    3.28363   0.00274  -0.00215  -0.43815
  0-1A  -> 22-1A    5.773527   46566.6   214.7   -0.04196  -0.00064  -0.00058  -0.00084
  0-1A  -> 23-1A    5.943716   47939.3   208.6    0.06932  -0.03410  -0.02795  -0.00010
  0-1A  -> 24-1A    5.959417   48065.9   208.0    0.23231  -0.00132   0.00141   0.00593
  0-1A  -> 25-1A    6.142214   49540.3   201.9   -0.05207  -0.00003  -0.00012   0.09070
  0-1A  -> 26-1A    6.209124   50080.0   199.7   -5.00349  -0.06513   0.07987   0.03286
  0-1A  -> 27-1A    6.223667   50197.3   199.2    2.83838   0.00185  -0.00360   0.62999
  0-1A  -> 28-1A    6.318057   50958.6   196.2    0.24822  -0.00074  -0.00028   0.00054
  0-1A  -> 29-1A    6.447111   51999.5   192.3    0.03262   0.00096   0.00077   0.00019
  0-1A  -> 30-1A    6.499160   52419.3   190.8   -0.21759   0.01374   0.01123   0.00015

------------------------------------------------------------------------------------------
                     CD SPECTRUM VIA TRANSITION VELOCITY DIPOLE MOMENTS    
------------------------------------------------------------------------------------------
     Transition      Energy     Energy  Wavelength    R        MX        MY        MZ   
                      (eV)      (cm-1)    (nm)   (1e40*cgs)   (au)      (au)      (au)  
------------------------------------------------------------------------------------------
  0-1A  ->  1-1A    2.263390   18255.5   547.8    0.48052   0.00299  -0.00195  -0.76772
  0-1A  ->  2-1A    2.519194   20318.7   492.2   -0.09599  -0.00053  -0.00043   0.00030
  0-1A  ->  3-1A    3.344449   26974.8   370.7  -10.51133   0.00399   0.00373   0.00056
  0-1A  ->  4-1A    3.353375   27046.8   369.7   -0.87921   0.00013   0.00029  -0.10128
  0-1A  ->  5-1A    3.713092   29948.1   333.9   -0.58151  -0.00075  -0.00073   0.00006
  0-1A  ->  6-1A    4.078141   32892.4   304.0    1.85574  -0.00053  -0.00057   0.66513
  0-1A  ->  7-1A    4.214321   33990.8   294.2   19.87791   0.12856  -0.15790   0.18104
  0-1A  ->  8-1A    4.223612   34065.7   293.6  -17.73362  -0.12815   0.15677   0.16134
  0-1A  ->  9-1A    4.292409   34620.6   288.8    3.04892  -0.12480   0.15294   0.02639
  0-1A  -> 10-1A    4.335565   34968.7   286.0   -0.95887  -0.00242  -0.00167  -0.00020
  0-1A  -> 11-1A    4.523240   36482.4   274.1   -0.19837  -0.00049  -0.00110   0.66192
  0-1A  -> 12-1A    4.658546   37573.7   266.1    0.08939  -0.05316  -0.04346  -0.00016
  0-1A  -> 13-1A    4.698415   37895.3   263.9   -0.48680  -0.00144  -0.00131  -0.00076
  0-1A  -> 14-1A    4.828215   38942.2   256.8    0.00726   0.00396   0.00330  -0.00000
  0-1A  -> 15-1A    4.890993   39448.5   253.5   -0.22158   0.00111   0.00103   0.00021
  0-1A  -> 16-1A    4.933576   39792.0   251.3    1.51049   0.00145  -0.00166   0.01853
  0-1A  -> 17-1A    4.937034   39819.9   251.1   -0.05614   0.00025   0.00030   0.00004
  0-1A  -> 18-1A    5.009164   40401.6   247.5   -0.15949   0.00040  -0.00049   0.01977
  0-1A  -> 19-1A    5.220625   42107.2   237.5   -0.01929  -0.00246  -0.00202  -0.00041
  0-1A  -> 20-1A    5.401880   43569.1   229.5    1.41834  -0.00240   0.00188   0.41495
  0-1A  -> 21-1A    5.643512   45518.0   219.7    3.24829   0.00274  -0.00215  -0.43815
  0-1A  -> 22-1A    5.773527   46566.6   214.7   -0.04362  -0.00064  -0.00058  -0.00084
  0-1A  -> 23-1A    5.943716   47939.3   208.6    0.08902  -0.03410  -0.02795  -0.00010
  0-1A  -> 24-1A    5.959417   48065.9   208.0    0.23576  -0.00132   0.00141   0.00593
  0-1A  -> 25-1A    6.142214   49540.3   201.9   -0.06799  -0.00003  -0.00012   0.09070
  0-1A  -> 26-1A    6.209124   50080.0   199.7   -3.99104  -0.06513   0.07987   0.03286
  0-1A  -> 27-1A    6.223667   50197.3   199.2    1.95249   0.00185  -0.00360   0.62999
  0-1A  -> 28-1A    6.318057   50958.6   196.2    0.25136  -0.00074  -0.00028   0.00054
  0-1A  -> 29-1A    6.447111   51999.5   192.3    0.02814   0.00096   0.00077   0.00019
  0-1A  -> 30-1A    6.499160   52419.3   190.8   -0.20804   0.01374   0.01123   0.00015

Total run time:    13738.173 sec

           *** ORCA-CIS/TD-DFT FINISHED WITHOUT ERROR ***
-----------------------
CIS/TD-DFT TOTAL ENERGY
-----------------------

    E(SCF)  =   -989.981424714 Eh
    DE(CIS) =      0.083178072 Eh (Root  1)
    ----------------------------- ---------
    E(tot)  =   -989.898246641 Eh


Maximum memory used throughout the entire CIS-calculation: 2730.7 MB
=> NOW LEAVING ORCA_CIS

-------------------------   --------------------
FINAL SINGLE POINT ENERGY      -989.898246641286
-------------------------   --------------------



           ************************************************************
           *        Program running with 4 parallel MPI-processes     *
           *              working on a common directory               *
           ************************************************************

------------------------------------------------------------------------------
                              ORCA PROPERTY CALCULATIONS
------------------------------------------------------------------------------

GBWName                                 ... tddft.gbw
Number of atoms                         ...     40
Number of basis functions               ...    840
Max core memory                         ...   3000 MB

Electric properties:
Dipole moment                           ... YES
Quadrupole moment                       ...  NO
Static polarizability (Dipole/Dipole)   ...  NO
Static polarizability (Dipole/Quad.)    ...  NO
Static polarizability (Quad./Quad.)     ...  NO
Static polarizability (Velocity)        ...  NO
Static hyperpolarizability              ...  NO

Atomic electric properties:
Dipole moment                           ...  NO
Quadrupole moment                       ...  NO
Static polarizability                   ...  NO

Choice of electric origin               ... Center of mass
Position of electric origin             ...     0.027872     0.039055     0.014275

General magnetic properties:
Magnetizability                         ...  NO

EPR properties:
g-Tensor (aka g-matrix)                 ...  NO
Zero-Field splitting spin-orbit         ...  NO
Zero-field splitting spin-spin          ...  NO
Hyperfine couplings                     ...  NO (   0 nuclei)
Quadrupole couplings                    ...  NO (   0 nuclei)
Contact density                         ...  NO (   0 nuclei)

NMR properties:
Chemical shifts                         ...  NO (   0 nuclei)
Spin-rotation constants                 ...  NO (   0 nuclei)
Spin-spin couplings                     ...  NO (   0 nuclei,    0 pairs)

Choice of magnetic origin               ... GIAO
Position of magnetic origin             ...     0.000000     0.000000     0.000000

Properties with geometric perturbations:
SCF Hessian                             ...  NO
IR spectrum                             ...  NO
VCD spectrum                            ...  NO
X-ray spectroscopy properties:
SCF XES/XAS/RIXS spectra                ...  NO

SCF SOC stabilization energy            ...  NO
Diagonal Born-Oppenheimer correction    ...  NO

-------------
DIPOLE MOMENT
-------------

Method             : SCF
Type of density    : Electron Density
Multiplicity       :   1
Irrep              :   0
Energy             :  -989.9814247135922187 Eh
Basis              : AO
                                X                 Y                 Z
Electronic contribution:     -5.083511666      -4.148816056      -0.014979333
Nuclear contribution   :      6.179261674       5.041669180       0.018645980
                        -----------------------------------------
Total Dipole Moment    :      1.095750008       0.892853124       0.003666647
                        -----------------------------------------
Magnitude (a.u.)       :      1.413459666
Magnitude (Debye)      :      3.592728951



--------------------
Rotational spectrum 
--------------------
 
Rotational constants in cm-1:             0.008875             0.008531             0.004357 
Rotational constants in MHz :           266.075502           255.748443           130.616067 

Dipole components along the rotational axes: 
x,y,z [a.u.] :     1.413452    -0.004504     0.001508 
x,y,z [Debye]:     3.592709    -0.011449     0.003834 

 

Dipole moment calculation done in   0.1 sec 

Maximum memory used throughout the entire PROP-calculation: 84.4 MB

--------------------------------
SUGGESTED CITATIONS FOR THIS RUN
--------------------------------

Below you find a list of papers that are relevant to this ORCA run
We neither can nor want to force you to cite these papers, but we appreciate if you do
You receive ORCA, which is the product of decades of hard work by many enthusiastic individuals, for free
The only thing we kindly ask in return is that you cite our papers,
We deeply appreciate it, if you show your appreciation for ORCA by not just citing the generic ORCA reference.

Please note that relegating all ORCA citations to the supporting information does *not* help us.
SI sections are not indexed - citations you put there will not count into any citation statistics
But we need these citations in order to attract the funding resources that allow us to do what we are doing

Therefore, if you are a happy ORCA user, please consider citing a few of the papers listed below in the main body of your paper

In addition to the list printed below, the program has created the file tddft.bibtex that contains the list in bibtex format
You can import this file easily into all common literature databanks and citation aid programs

It goes without saying that in many instances, there are alternative algorithms to achieve similar
results as the ones you have gotten from ORCA. It is, of course, also the case that in some instances
ORCA just re-implements algorithms worked out by others. We are fully aware of that and we are also
fully appreciative of our colleagues work. Hence this citation list should not be read as indicating
that the listed papers, which are focused on our own work, are the only ones worth citing. It simply
meant to make it easier for users to cite ORCA specific papers. It is not a substitute for doing your
own literature research and citing the relevant literature in a scientifically appropriate manner.

List of essential papers. We consider these as the minimum necessary citations

  1. Neese, F.
     Software update: the ORCA program system, version 6.0
     WIRES Comput. Molec. Sci. 2025 15(1), e70019
     doi.org/10.1002/wcms.70019

List of papers to cite with high priority. The work reported in these papers was absolutely
necessary for this run to complete.
Our perspective: the developers of density functionals and basis sets usually get cited in chemistry papers
Good! But without the algorithms to do something with them, the functionals or basis sets would not do anything.
Hence, in our opinion, the algorithm design and method developments papers are equally worthy of getting cited

  1. Neese, F.; Olbrich, G.
     Efficient use of the resolution of the identity approximation in time-dependent density functional calculations with hybrid density functionals
     Chem. Phys. Lett. 2002 362 , 170-178
     doi.org/10.1016/s0009-2614(02)01053-9
  2. Neese, F.
     An improvement of the resolution of the identity approximation for the formation of the Coulomb matrix
     J. Comp. Chem. 2003 24(14), 1740-1747
     doi.org/10.1002/jcc.10318
  3. Neese, F.; Wennmohs, F.; Hansen, A.; Becker, U.
     Efficient, approximate and parallel Hartree-Fock and hybrid DFT calculations. A 'chain-of-spheres' algorithm for the Hartree-Fock exchange
     Chem. Phys. 2009 356(1-3), 98-109
     doi.org/10.1016/j.chemphys.2008.10.036
  4. Garcia-Rates, M.; Neese, F.
     Effect of the Solute Cavity on the Solvation Energy and its Derivatives within the Framework of the Gaussian Charge Scheme
     J. Comput. Chem. 2020 41 , 922-939
     doi.org/10.1002/jcc.26139
  5. Helmich-Paris, B.; de Souza, B.; Neese, F.; Izsák, R.
     An improved chain of spheres for exchange algorithm
     J. Chem. Phys. 2021 155(10), 104109
     doi.org/10.1063/5.0058766
  6. Neese, F.
     The SHARK Integral Generation and Digestion System
     J. Comp. Chem. 2022 44(3), 381
     doi.org/10.1002/jcc.26942

List of suggested additional citations. These are papers that are important in the 'surrounding' of 
of this run, or papers that preceded the highly important papers. If you like your results we are grateful for a citation.

  1. Izsak, R.; Neese, F.
     An overlap fitted chain of spheres exchange method
     J. Chem. Phys. 2011 135 , 144105
     doi.org/10.1063/1.3646921
  2. Izsak, R.; Hansen, A.; Neese, F.
     The resolution of identity and chain of spheres approximations for the LPNO-CCSD singles Fock term
     Molec. Phys. 2012 110 , 2413-2417
     doi.org/10.1080/00268976.2012.687466
  3. Neese, F.
     The ORCA program system
     WIRES Comput. Molec. Sci. 2012 2(1), 73-78
     doi.org/10.1002/wcms.81
  4. Izsak, R.; Neese, F.; Klopper, W.
     Robust fitting techniques in the chain of spheres approximation to the Fock exchange: The role of the complementary space
     J. Chem. Phys. 2013 139 , 
     doi.org/10.1063/1.4819264
  5. Neese, F.
     Software update: the ORCA program system, version 4.0
     WIRES Comput. Molec. Sci. 2018 8(1), 1-6
     doi.org/10.1002/wcms.1327
  6. Neese, F.; Wennmohs, F.; Becker, U.; Riplinger, C.
     The ORCA quantum chemistry program package
     J. Chem. Phys. 2020 152(22), 224108
     doi.org/10.1063/5.0004608
  7. Neese, F.
     Software update: The ORCA program system—Version 5.0
     WIRES Comput. Molec. Sci. 2022 12(1), e1606
     doi.org/10.1002/wcms.1606

List of optional additional citations

  1. Neese, F.
     Approximate second-order SCF convergence for spin unrestricted wavefunctions
     Chem. Phys. Lett. 2000 325(1-3), 93-98
     doi.org/10.1016/s0009-2614(00)00662-x

Timings for individual modules:

Sum of individual times          ...    14393.066 sec (= 239.884 min)
Startup calculation              ...       24.032 sec (=   0.401 min)   0.2 %
SCF iterations                   ...      623.695 sec (=  10.395 min)   4.3 %
Property integrals               ...        4.849 sec (=   0.081 min)   0.0 %
Property calculations            ...        1.517 sec (=   0.025 min)   0.0 %
CIS module                       ...    13738.973 sec (= 228.983 min)  95.5 %
                             ****ORCA TERMINATED NORMALLY****
TOTAL RUN TIME: 0 days 3 hours 59 minutes 54 seconds 114 msec
