
                                 *****************
                                 * O   R   C   A *
                                 *****************

                                            #,                                       
                                            ###                                      
                                            ####                                     
                                            #####                                    
                                            ######                                   
                                           ########,                                 
                                     ,,################,,,,,                         
                               ,,#################################,,                 
                          ,,##########################################,,             
                       ,#########################################, ''#####,          
                    ,#############################################,,   '####,        
                  ,##################################################,,,,####,       
                ,###########''''           ''''###############################       
              ,#####''   ,,,,##########,,,,          '''####'''          '####       
            ,##' ,,,,###########################,,,                        '##       
           ' ,,###''''                  '''############,,,                           
         ,,##''                                '''############,,,,        ,,,,,,###''
      ,#''                                            '''#######################'''  
     '                                                          ''''####''''         
             ,#######,   #######,   ,#######,      ##                                
            ,#'     '#,  ##    ##  ,#'     '#,    #''#        ,####,    ,#,          
            ##       ##  ##   ,#'  ##            #'  '#       #'       ,# #          
            ##       ##  #######   ##           ,######,      #####,      #          
            '#,     ,#'  ##    ##  '#,     ,#' ,#      #,     #,   #      #          
             '#######'   ##     ##  '#######'  #'      '#     '####' #    #          



                #########################################################
                #                        -***-                          #
                #          Department of theory and spectroscopy        #
                #                                                       #
                #                      Frank Neese                      #
                #                                                       #
                #     Directorship, Architecture, Infrastructure        #
                #                    SHARK, DRIVERS                     #
                #        Core code/Algorithms in most modules           #
                #                                                       #
                #        Max Planck Institute fuer Kohlenforschung      #
                #                Kaiser Wilhelm Platz 1                 #
                #                 D-45470 Muelheim/Ruhr                 #
                #                      Germany                          #
                #                                                       #
                #                  All rights reserved                  #
                #                        -***-                          #
                #########################################################


                         Program Version 6.1.1  -  RELEASE   -
                                (GIT: $487d211c$)
                          ($2025-11-21 10:33:24 +0100$)


 With contributions from (in alphabetic order):
[Max-Planck-Institut fuer Kohlenforschung]                               
  Daniel Aravena         : Magnetic Suceptibility                        
  Michael Atanasov       : Ab Initio Ligand Field Theory (pilot matlab implementation)
  Alexander A. Auer      : GIAO ZORA, VPT2 properties, NMR spectrum      
  Ute Becker             : All parallelization in ORCA, NUMFREQ, NUMCALC 
  Giovanni Bistoni       : ED, misc. LED, open-shell LED, HFLD           
  Dmytro Bykov           : pre 5.0 version of the SCF Hessian            
  Marcos Casanova-Páez   : Triplet and SCS-CIS(D). UHF-(DLPNO)-IP/EA/STEOM-CCSD. UHF-CVS-IP/STEOM-CCSD   
  Vijay G. Chilkuri      : MRCI spin determinant printing, contributions to CSF-ICE 
  Pauline Colinet        : FMM embedding                                 
  Dipayan Datta          : RHF DLPNO-CCSD density                        
  Achintya Kumar Dutta   : EOM-CC, STEOM-CC                              
  Nicolas Foglia         : Exact transition moments, OPA infrastructure, MCD improvements    
  Dmitry Ganyushin       : Spin-Orbit,Spin-Spin,Magnetic field MRCI      
  Miquel Garcia-Rates    : C-PCM and meta-GGA Hessian, CCSD/C-PCM, Gaussian charge scheme 
  Tiago L. C. Gouveia    : GS-ROHF, GS-ROCIS                             
  Yang Guo               : DLPNO-NEVPT2, F12-NEVPT2, CIM, IAO-localization        
  Andreas Hansen         : Spin unrestricted coupled pair/coupled cluster methods 
  Ingolf Harden          : AUTO-CI MPn and infrastructure                
  Benjamin Helmich-Paris : MC-RPA, TRAH-(SCF,CASSCF), AVAS, COSX integrals, SCF dyn. polar., MC-PDFT, srDFT 
  Lee Huntington         : MR-EOM, pCC                                   
  Robert Izsak           : Overlap fitted RIJCOSX, COSX-SCS-MP3, EOM     
  Riya Kayal             : Wick's Theorem for AUTO-CI, AUTO-CI UHF-CCSDT 
  Emily Kempfer          : AUTO-CI RHF CISDT and CCSDT, approximate NEVPT4
  Christian Kollmar      : KDIIS, OOCD, Brueckner-CCSD(T), CCSD density, CASPT2, CASPT2-K, improved NEVPT2 
  Axel Koslowski         : Symmetry handling                             
  Simone Kossmann        : meta-GGA functionals, TD-DFT gradient, OOMP2, (MP2 Hessian; deprecated post 5.0) 
  Lucas Lang             : DCDCAS, Hyperfine gauge corrections, ICE-SOC+SSC
  Marvin Lechner         : AUTO-CI (C++ implementation), FIC-MRCC        
  Spencer Leger          : CASSCF response                               
  Dagmar Lenk            : GEPOL surface, SMD, ORCA-2-JSON               
  Dimitrios Liakos       : Extrapolation schemes; Compound Job, Property file
  Dimitrios Manganas     : Further ROCIS development; embedding schemes. LFT, Crystal Embedding 
  Dimitrios Pantazis     : SARC Basis sets                               
  Anastasios Papadopoulos: AUTO-CI, single reference methods and gradients 
  Taras Petrenko         : pre 6.0 DFT Hessian and TD-DFT gradient,  ECA, NRVS 
  Petra Pikulova         : Analytic Raman intensities                    
  Peter Pinski           : DLPNO-MP2, DLPNO-MP2 Gradient                 
  Shashank Vittal Rao    : ES-AILFT, MagRelax                            
  Christoph Reimann      : Effective Core Potentials                     
  Marius Retegan         : Local ZFS, SOC                                
  Christoph Riplinger    : Optimizer, TS searches, QM/MM, DLPNO-CCSD(T), (RO)-DLPNO pert. Triples 
  Michael Roemelt        : Original ROCIS implementation, recursive CI coupling coefficients
  Masaaki Saitow         : Open-shell DLPNO-CCSD energy and density      
  Barbara Sandhoefer     : DKH picture change effects                    
  Yorick L. A. Schmerwitz: GMF and freeze-and-release deltaSCF, NEB S-IDPP initial path                    
  Kantharuban Sivalingam : CASSCF convergence/infrastructure, NEVPT2, NEVPT3, NEVPT4(SD), FIC-MRCI and CEPA variants
  Bernardo de Souza      : ESD, SOC TD-DFT                               
  Georgi L. Stoychev     : AutoAux, RI-MP2 NMR, DLPNO-MP2 response, X2C  
  Van Anh Tran           : RI-MP2 g-tensors                              
  Willem Van den Heuvel  : Paramagnetic NMR                              
  Zikuan Wang            : NOTCH, Electric field optimization            
  Frank Wennmohs         : Technical directorship and infrastructure     
  Hang Xu                : AUTO-CI-Response properties                   
                                                                         
[FACCTs GmbH]                                                            
  Markus Bursch, Nicolas Foglia, Miquel Garcia-Rates, Ingolf Harden, Hagen Neugebauer, Anastasios Papadopoulos, 
  Christoph Riplinger, Bernardo de Souza, Georgi L. Stoychev                                                    
                                                                 
  APM, various basis sets, CI-OPT, improved COSX, DLPNO-Multilevel,           
  DOCKER, DRACO, updates on ESD, Fragmentator, GOAT, IRC, LR-CPCM, L-BFGS, MBIS, meta-GGA TD-DFT gradient, ML-optimized integration grids, 
  MM, NACMEs, nearIR, NEB, NEB-TS, NL-DFT gradient (VV10), 2- and 3-layer-ONIOM, interface openCOSMO-RS, QMMM,   
  Crystal-QMMM, RESP, rigid body optimization, SF, symmetry and pop. for TD-DFT, various functionals, SOLVATOR                                   
                                                                         
[Other institutions]                                                     
  V. Asgeirsson          : NEB                                           
  Christoph Bannwarth    : sTDA-DFT, sTD-DFT, PBEh-3c, B97-3c, D3        
  Giovanni Bistoni       : ETS/NOCV, ADLD/ADEX, COVALED                  
  Martin Brehm           : Molecular dynamics                            
  Ronald Cardenas        : ETS/NOCV                                      
  Martina Colucci        : COVALED                                       
  Sebastian Ehlert       : rSCAN, r2SCAN, r2SCAN-3c, D4, dhf basis sets  
  Marvin Friede          : D4 for Fr, Ra, Ac-Lr                          
  Lars Goerigk           : TD-DFT with DH, B97 family of functionals     
  Stefan Grimme          : VdW corrections, initial TS optimization, DFT functionals, gCP, sTDA/sTD-DF 
  Waldemar Hujo          : DFT-NL                                        
  H. Jonsson             : NEB                                           
  Holger Kruse           : gCP                                           
  Marcel Mueller         : wB97X-3c, vDZP basis set                      
  Hagen Neugebauer       : wr2SCAN, Native XTB                           
  Gianluca Regni         : ADLD/ADEX                                     
  Tobias Risthaus        : pre 6.0 range-separated hybrid DFT and stability analysis
  Lukas Wittmann         : regularized MP2, r2SCAN double-hybrids, wr2SCAN        
                                                                         
We gratefully acknowledge several colleagues who have allowed us to      
interface, adapt or use parts of their codes:                            
  Ed Valeev, F. Pavosevic, A. Kumar             : LibInt (2-el integral package), F12 methods 
  Garnet Chan, S. Sharma, J. Yang, R. Olivares  : DMRG                   
  Ulf Ekstrom                                   : XCFun DFT Library      
  Mihaly Kallay                                 : mrcc  (arbitrary order and MRCC methods)
  Frank Weinhold                                : gennbo (NPA and NBO analysis)           
  Simon Mueller                                 : openCOSMO-RS                            
  Christopher J. Cramer and Donald G. Truhlar   : smd solvation model                     
  S Lehtola, MJT Oliveira, MAL Marques          : LibXC Library                           
  Liviu Ungur et al                             : ANISO software                          


 Your calculation uses the libint2 library for the computation of 2-el integrals
 For citations please refer to: http://libint.valeyev.net

 Your ORCA version has been built with support for libXC version: 7.0.0
 For citations please refer to: https://libxc.gitlab.io

 This ORCA versions uses:
   CBLAS   interface :  Fast vector & matrix operations
   LAPACKE interface :  Fast linear algebra routines
   SCALAPACK package :  Parallel linear algebra routines
   Shared memory     :  Shared parallel matrices
   BLAS/LAPACK       :  OpenBLAS 0.3.29  USE64BITINT DYNAMIC_ARCH NO_AFFINITY Haswell SINGLE_THREADED
        Core in use  :  Haswell
   Copyright (c) 2011-2014, The OpenBLAS Project


  ***********************************
  * Starting time: Sat Jul  4 18:05:06 2026
  * Host name:     steezy
  * Process ID:    1141222
  * Working dir.:  /home/jannes/chlorophyll-ladder/006-core-ladder/chlorin/03_tddft_ch2cl2/wb97xd
  ***********************************

NOTE: MaxCore=3000 MB was set to SCF,MP2,MDCI,CIPSI,MRCI,RASCI and CIS
      => If you want to overwrite this, your respective input block should be placed after the MaxCore statement


***************************************
The coordinates will be read from file: /home/jannes/chlorophyll-ladder/006-core-ladder/chlorin/01_opt/chlorin_opt_b3lypd4_tzvp.xyz
***************************************


Your calculation utilizes the atom-pairwise dispersion correction
with the zero-damping scheme (D30)


XCFun DFT library Copyright 2009-2010 Ulf Ekstrom and contributors.
See http://admol.org/xcfun for more information.
This is free software; see the source code for copying conditions.
There is ABSOLUTELY NO WARRANTY; not even for MERCHANTABILITY or FITNESS FOR A PARTICULAR PURPOSE.
For details see the documentation.
Scientific users of this library should cite U. Ekstrom, L. Visscher, R. Bast, A. J. Thorvaldsen and K. Ruud;
J.Chem.Theor.Comp. 2010, DOI: 10.1021/ct100117s
XCFun Version 0.99 

================================================================================

----- Orbital basis set information -----
Your calculation utilizes the basis: def2-TZVP
   F. Weigend and R. Ahlrichs, Phys. Chem. Chem. Phys. 7, 3297 (2005).

----- AuxJ basis set information -----
Your calculation utilizes the auxiliary basis: def2/J
   H-Rn: F. Weigend, Phys. Chem. Chem. Phys. 8, 1057 (2006).
   Fr-Lr: K. Eichkorn, F. Weigend, O. Treutler, R. Ahlrichs; Theor. Chem. Acc. 97, 119 (1997).

================================================================================
                                        WARNINGS
                       Please study these warnings very carefully!
================================================================================

WARNING: Old DensityContainer found on disk!
         Will remove this file - 
         If you want to keep old densities, please start your calculation with a different basename. 


WARNING: CIS/ROCIS methods need fully converged wavefunctions
  ===> : Setting SCFConvForced true
         You can overwrite this default with %scf ConvForced false 


================================================================================
                                       INPUT FILE
================================================================================
NAME = tddft.inp
|  1> %pal nprocs 4 end
|  2> %maxcore 3000
|  3> ! wB97X-D3 def2-TZVP def2/J RIJCOSX DefGrid3 TightSCF CPCM(CH2Cl2)
|  4> %tddft
|  5>   nroots 30
|  6>   tda false
|  7>   triplets false
|  8> end
|  9> * xyzfile 0 1 /home/jannes/chlorophyll-ladder/006-core-ladder/chlorin/01_opt/chlorin_opt_b3lypd4_tzvp.xyz
| 10> 
| 11>                          ****END OF INPUT****
================================================================================

                       ****************************
                       * Single Point Calculation *
                       ****************************

---------------------------------
CARTESIAN COORDINATES (ANGSTROEM)
---------------------------------
  N      1.618227    1.329539    0.010388
  N     -1.347453    1.611774   -0.002562
  N      1.299801   -1.633340    0.016623
  N     -1.594487   -1.292971    0.004403
  C      2.883781    3.350039   -0.011841
  C      3.851475    2.163431    0.042672
  C      1.523344    2.671646   -0.001121
  C      2.913786    0.967045    0.025095
  C      0.347597    3.398417   -0.007862
  C      3.389899   -0.330654    0.029706
  C     -0.962451    2.916936   -0.005688
  C      2.655655   -1.517560    0.022965
  C     -2.719608    1.507344   -0.001102
  C      0.922713   -2.956749    0.011975
  C     -2.159571    3.698056   -0.005314
  C      3.181168   -2.846885    0.021102
  C     -3.225682    2.840557   -0.002326
  C      2.127534   -3.719625    0.014237
  C     -3.433390    0.324889    0.000791
  C     -0.378790   -3.419108    0.006952
  C     -2.915388   -0.973209    0.002604
  C     -1.546550   -2.651173    0.004333
  C     -3.736898   -2.165706    0.001564
  C     -2.879748   -3.216467    0.002261
  H      3.006350    3.950792   -0.915543
  H      2.991185    4.026676    0.837789
  H      4.461299    2.159809    0.948624
  H      4.539467    2.135032   -0.804231
  H      0.441481    4.477104   -0.014399
  H      4.465522   -0.454657    0.038870
  H     -0.727891    0.815001   -0.008146
  H      0.642943   -0.867003    0.022426
  H     -2.180284    4.775793   -0.006376
  H      4.232912   -3.083014    0.023985
  H     -4.273839    3.092971   -0.000559
  H      2.164848   -4.797103    0.010566
  H     -4.511820    0.421664    0.000686
  H     -0.499907   -4.495064    0.005089
  H     -4.816074   -2.182825    0.000119
  H     -3.113257   -4.270204    0.001847

----------------------------
CARTESIAN COORDINATES (A.U.)
----------------------------
  NO LB      ZA    FRAG     MASS         X           Y           Z
   0 N     7.0000    0    14.007    3.058005    2.512465    0.019630
   1 N     7.0000    0    14.007   -2.546317    3.045812   -0.004842
   2 N     7.0000    0    14.007    2.456268   -3.086566    0.031414
   3 N     7.0000    0    14.007   -3.013143   -2.443361    0.008320
   4 C     6.0000    0    12.011    5.449556    6.330657   -0.022376
   5 C     6.0000    0    12.011    7.278233    4.088291    0.080639
   6 C     6.0000    0    12.011    2.878702    5.048679   -0.002119
   7 C     6.0000    0    12.011    5.506257    1.827451    0.047422
   8 C     6.0000    0    12.011    0.656864    6.422078   -0.014857
   9 C     6.0000    0    12.011    6.405982   -0.624846    0.056137
  10 C     6.0000    0    12.011   -1.818769    5.512210   -0.010750
  11 C     6.0000    0    12.011    5.018461   -2.867773    0.043397
  12 C     6.0000    0    12.011   -5.139315    2.848467   -0.002082
  13 C     6.0000    0    12.011    1.743676   -5.587446    0.022630
  14 C     6.0000    0    12.011   -4.080998    6.988313   -0.010042
  15 C     6.0000    0    12.011    6.011537   -5.379833    0.039877
  16 C     6.0000    0    12.011   -6.095656    5.367875   -0.004396
  17 C     6.0000    0    12.011    4.020456   -7.029073    0.026903
  18 C     6.0000    0    12.011   -6.488167    0.613952    0.001495
  19 C     6.0000    0    12.011   -0.715809   -6.461177    0.013137
  20 C     6.0000    0    12.011   -5.509286   -1.839098    0.004922
  21 C     6.0000    0    12.011   -2.922556   -5.009990    0.008188
  22 C     6.0000    0    12.011   -7.061713   -4.092591    0.002955
  23 C     6.0000    0    12.011   -5.441934   -6.078243    0.004272
  24 H     1.0000    0     1.008    5.681179    7.465915   -1.730125
  25 H     1.0000    0     1.008    5.652521    7.609315    1.583193
  26 H     1.0000    0     1.008    8.430634    4.081448    1.792639
  27 H     1.0000    0     1.008    8.578349    4.034626   -1.519777
  28 H     1.0000    0     1.008    0.834279    8.460500   -0.027211
  29 H     1.0000    0     1.008    8.438614   -0.859177    0.073454
  30 H     1.0000    0     1.008   -1.375514    1.540128   -0.015393
  31 H     1.0000    0     1.008    1.214987   -1.638398    0.042380
  32 H     1.0000    0     1.008   -4.120140    9.024942   -0.012049
  33 H     1.0000    0     1.008    7.999044   -5.826052    0.045325
  34 H     1.0000    0     1.008   -8.076386    5.844869   -0.001056
  35 H     1.0000    0     1.008    4.090969   -9.065210    0.019967
  36 H     1.0000    0     1.008   -8.526105    0.796830    0.001296
  37 H     1.0000    0     1.008   -0.944687   -8.494440    0.009617
  38 H     1.0000    0     1.008   -9.101061   -4.124942    0.000224
  39 H     1.0000    0     1.008   -5.883202   -8.069517    0.003490

--------------------------------
INTERNAL COORDINATES (ANGSTROEM)
--------------------------------
 N      0   0   0     0.000000000000     0.00000000     0.00000000
 N      1   0   0     2.979107177231     0.00000000     0.00000000
 N      1   2   0     2.979947476934    89.30270164     0.00000000
 N      3   1   2     2.914258339345    89.42644009     0.00000000
 C      1   2   3     2.384228044724   116.62082965   179.40054417
 C      5   1   2     1.532137048104    71.25200580   178.57442373
 C      1   2   3     1.345506053350    80.51805744   179.66763356
 C      1   2   3     1.345396342678   169.79818117   357.97022523
 C      7   1   2     1.382252298681   125.76656227     0.17933523
 C      8   1   7     1.382291464764   125.77894989   180.51229001
 C      2   1   3     1.360765532472    79.00182392   180.05957653
 C      3   1   2     1.360803573136    78.98578119   180.04479993
 C      2   1   3     1.376124714725   170.20659592     1.67778072
 C      3   1   2     1.376091434139   170.22494378     1.58550169
 C     11   2   1     1.429421146210   106.68913671   180.33444041
 C     12   3   1     1.429430588850   106.68868640   180.33209544
 C     15  11   2     1.368176069028   108.06500929     0.00000000
 C     16  12   3     1.368162905847   108.06552163   359.97694271
 C     13   2  11     1.381190206413   125.46928608   179.93536477
 C     14   3  12     1.381199138498   125.46211356   179.90588073
 C      4   3   1     1.359055651912   173.09697396   358.52859573
 C      4   3   1     1.359047366731    81.27152327   179.84264952
 C     21   4  22     1.448077190214   110.95462463     0.00000000
 C     23  21   4     1.356026040736   106.23152882     0.00000000
 H      5   1   2     1.092064297682   122.24060148   284.00745698
 H      5   1   2     1.091441479244   124.77447848    73.14241516
 H      6   5   1     1.092083663892   112.62948738   242.06014622
 H      6   5   1     1.091505582205   112.99487653   120.72109284
 H      9   7   1     1.082784308159   116.74849562   179.84380395
 H     10   8   1     1.082785443229   116.72449600   179.81241072
 H      2   1   3     1.009324809386    46.69870077   359.20679780
 H      3   1   2     1.009340734249    46.73724690   359.18425706
 H     15  11   2     1.077936930670   124.22541381   179.93656368
 H     16  12   3     1.077928105275   124.22340859   179.93499516
 H     17  15  11     1.078122825118   127.64953771   179.95286184
 H     18  16  12     1.078129368274   127.65243145   179.96019912
 H     19  13   2     1.082763583588   115.98919081   180.06319439
 H     20  14   3     1.082753468896   115.98031610   180.08105506
 H     23  21   4     1.079313067754   125.47173418   179.99943943
 H     24  23  21     1.079299692791   128.29953999   179.99981198

---------------------------
INTERNAL COORDINATES (A.U.)
---------------------------
 N      0   0   0     0.000000000000     0.00000000     0.00000000
 N      1   0   0     5.629696688565     0.00000000     0.00000000
 N      1   2   0     5.631284624876    89.30270164     0.00000000
 N      3   1   2     5.507150144858    89.42644009     0.00000000
 C      1   2   3     4.505538045342   116.62082965   179.40054417
 C      5   1   2     2.895319420551    71.25200580   178.57442373
 C      1   2   3     2.542637952364    80.51805744   179.66763356
 C      1   2   3     2.542430629240   169.79818117   357.97022523
 C      7   1   2     2.612078292490   125.76656227     0.17933523
 C      8   1   7     2.612152305660   125.77894989   180.51229001
 C      2   1   3     2.571474188851    79.00182392   180.05957653
 C      3   1   2     2.571546075289    78.98578119   180.04479993
 C      2   1   3     2.600498836950   170.20659592     1.67778072
 C      3   1   2     2.600435945757   170.22494378     1.58550169
 C     11   2   1     2.701214496373   106.68913671   180.33444041
 C     12   3   1     2.701232340376   106.68868640   180.33209544
 C     15  11   2     2.585478073448   108.06500929     0.00000000
 C     16  12   3     2.585453198641   108.06552163   359.97694271
 C     13   2  11     2.610071228975   125.46928608   179.93536477
 C     14   3  12     2.610088108170   125.46211356   179.90588073
 C      4   3   1     2.568242982872   173.09697396   358.52859573
 C      4   3   1     2.568227326149    81.27152327   179.84264952
 C     21   4  22     2.736469310283   110.95462463     0.00000000
 C     23  21   4     2.562517847457   106.23152882     0.00000000
 H      5   1   2     2.063702443253   122.24060148   284.00745698
 H      5   1   2     2.062525486972   124.77447848    73.14241516
 H      6   5   1     2.063739040086   112.62948738   242.06014622
 H      6   5   1     2.062646624014   112.99487653   120.72109284
 H      9   7   1     2.046165804527   116.74849562   179.84380395
 H     10   8   1     2.046167949498   116.72449600   179.81241072
 H      2   1   3     1.907347469912    46.69870077   359.20679780
 H      3   1   2     1.907377563542    46.73724690   359.18425706
 H     15  11   2     2.037005588605   124.22541381   179.93656368
 H     16  12   3     2.036988911026   124.22340859   179.93499516
 H     17  15  11     2.037356878203   127.64953771   179.95286184
 H     18  16  12     2.037369242976   127.65243145   179.96019912
 H     19  13   2     2.046126640764   115.98919081   180.06319439
 H     20  14   3     2.046107526767   115.98031610   180.08105506
 H     23  21   4     2.039606110817   125.47173418   179.99943943
 H     24  23  21     2.039580835801   128.29953999   179.99981198

---------------------
BASIS SET INFORMATION
---------------------
There are 3 groups of distinct atoms

 Group   1 Type N   : 11s6p2d1f contracted to 5s3p2d1f pattern {62111/411/11/1}
 Group   2 Type C   : 11s6p2d1f contracted to 5s3p2d1f pattern {62111/411/11/1}
 Group   3 Type H   : 5s1p contracted to 3s1p pattern {311/1}

Atom   0N    basis set group =>   1
Atom   1N    basis set group =>   1
Atom   2N    basis set group =>   1
Atom   3N    basis set group =>   1
Atom   4C    basis set group =>   2
Atom   5C    basis set group =>   2
Atom   6C    basis set group =>   2
Atom   7C    basis set group =>   2
Atom   8C    basis set group =>   2
Atom   9C    basis set group =>   2
Atom  10C    basis set group =>   2
Atom  11C    basis set group =>   2
Atom  12C    basis set group =>   2
Atom  13C    basis set group =>   2
Atom  14C    basis set group =>   2
Atom  15C    basis set group =>   2
Atom  16C    basis set group =>   2
Atom  17C    basis set group =>   2
Atom  18C    basis set group =>   2
Atom  19C    basis set group =>   2
Atom  20C    basis set group =>   2
Atom  21C    basis set group =>   2
Atom  22C    basis set group =>   2
Atom  23C    basis set group =>   2
Atom  24H    basis set group =>   3
Atom  25H    basis set group =>   3
Atom  26H    basis set group =>   3
Atom  27H    basis set group =>   3
Atom  28H    basis set group =>   3
Atom  29H    basis set group =>   3
Atom  30H    basis set group =>   3
Atom  31H    basis set group =>   3
Atom  32H    basis set group =>   3
Atom  33H    basis set group =>   3
Atom  34H    basis set group =>   3
Atom  35H    basis set group =>   3
Atom  36H    basis set group =>   3
Atom  37H    basis set group =>   3
Atom  38H    basis set group =>   3
Atom  39H    basis set group =>   3
---------------------------------
AUXILIARY/J BASIS SET INFORMATION
---------------------------------
There are 3 groups of distinct atoms

 Group   1 Type N   : 12s5p4d2f1g contracted to 6s4p3d1f1g pattern {711111/2111/211/2/1}
 Group   2 Type C   : 12s5p4d2f1g contracted to 6s4p3d1f1g pattern {711111/2111/211/2/1}
 Group   3 Type H   : 5s2p1d contracted to 3s1p1d pattern {311/2/1}

Atom   0N    basis set group =>   1
Atom   1N    basis set group =>   1
Atom   2N    basis set group =>   1
Atom   3N    basis set group =>   1
Atom   4C    basis set group =>   2
Atom   5C    basis set group =>   2
Atom   6C    basis set group =>   2
Atom   7C    basis set group =>   2
Atom   8C    basis set group =>   2
Atom   9C    basis set group =>   2
Atom  10C    basis set group =>   2
Atom  11C    basis set group =>   2
Atom  12C    basis set group =>   2
Atom  13C    basis set group =>   2
Atom  14C    basis set group =>   2
Atom  15C    basis set group =>   2
Atom  16C    basis set group =>   2
Atom  17C    basis set group =>   2
Atom  18C    basis set group =>   2
Atom  19C    basis set group =>   2
Atom  20C    basis set group =>   2
Atom  21C    basis set group =>   2
Atom  22C    basis set group =>   2
Atom  23C    basis set group =>   2
Atom  24H    basis set group =>   3
Atom  25H    basis set group =>   3
Atom  26H    basis set group =>   3
Atom  27H    basis set group =>   3
Atom  28H    basis set group =>   3
Atom  29H    basis set group =>   3
Atom  30H    basis set group =>   3
Atom  31H    basis set group =>   3
Atom  32H    basis set group =>   3
Atom  33H    basis set group =>   3
Atom  34H    basis set group =>   3
Atom  35H    basis set group =>   3
Atom  36H    basis set group =>   3
Atom  37H    basis set group =>   3
Atom  38H    basis set group =>   3
Atom  39H    basis set group =>   3

Checking for AutoStart:
The File: tddft.gbw exists
Trying to determine its content:
     ... Fine, the file contains calculation information
     ... Fine, the calculation information was read
     ... Fine, the file contains a basis set
     ... Fine, the basis set was read
     ... Fine, the file contains a geometry
     ... Fine, the geometry was read
     ... Fine, the file contains a set of orbitals
     ... Fine, the orbitals can be read
     => possible old guess file was deleted
     => GBW file was renamed to GES file
     => GES file is set as startup file
     => Guess is set to MORead
     ... now leaving AutoStart



           ************************************************************
           *        Program running with 4 parallel MPI-processes     *
           *              working on a common directory               *
           ************************************************************
------------------------------------------------------------------------------
                             ORCA STARTUP CALCULATIONS
                           -- RI-GTO INTEGRALS CHOSEN --
------------------------------------------------------------------------------
------------------------------------------------------------------------------
                   ___                                                        
                  /   \      - P O W E R E D   B Y -                         
                 /     \                                                     
                 |  |  |   _    _      __       _____    __    __             
                 |  |  |  | |  | |    /  \     |  _  \  |  |  /  |          
                  \  \/   | |  | |   /    \    | | | |  |  | /  /          
                 / \  \   | |__| |  /  /\  \   | |_| |  |  |/  /          
                |  |  |   |  __  | /  /__\  \  |    /   |      \           
                |  |  |   | |  | | |   __   |  |    \   |  |\   \          
                \     /   | |  | | |  |  |  |  | |\  \  |  | \   \       
                 \___/    |_|  |_| |__|  |__|  |_| \__\ |__|  \__/        
                                                                              
                      - O R C A' S   B I G   F R I E N D -                    
                                      &                                       
                       - I N T E G R A L  F E E D E R -                       
                                                                              
 v1 FN, 2020, v2 2021, v3 2022-2024                                           
------------------------------------------------------------------------------


----------------------
SHARK INTEGRAL PACKAGE
----------------------

Number of atoms                             ...     40
Number of basis functions                   ...    840
Number of shells                            ...    328
Maximum angular momentum                    ...      3
Integral batch strategy                     ... SHARK/LIBINT Hybrid
RI-J (if used) integral strategy            ... SPLIT-RIJ (Revised 2003 algorithm where possible)
Printlevel                                  ...      1
Contraction scheme used                     ... SEGMENTED contraction
Prescreening option                         ... SCHWARTZ
   Thresh                                   ... 2.500e-11
   Tcut                                     ... 2.500e-12
   Tpresel                                  ... 2.500e-12 
Coulomb Range Separation                    ... NOT USED
Exchange Range Separation                   ... Long Range
   Mu parameter                             ... 2.500e-01
   Scaling (regular/separated)              ... 1.957e-01 8.043e-01
Robust (split-)RI terms used:
  metric    (central integrals)             ... YES
  density   (r.h.s.  integrals)             ... YES
  potential (l.h.s.  integrals)             ... YES
Multipole approximations                    ... NOT USED
Finite Nucleus Model                        ... NOT USED
CABS basis                                  ... NOT available
Auxiliary Coulomb fitting basis             ... AVAILABLE
   # of basis functions in Aux-J            ...   1352
   # of shells in Aux-J                     ...    440
   Maximum angular momentum in Aux-J        ...      4
Auxiliary J/K fitting basis                 ... NOT available
Auxiliary Correlation fitting basis         ... NOT available
Auxiliary 'external' fitting basis          ... NOT available

Checking pre-screening integrals            ... done (  0.0 sec) Dimension = 328
   => SHARK Basis and OBASIS are compatible. Storing Pre-screening
Shell pair information
Shell pair cut-off parameter TPreSel        ...   2.5e-12
Total number of shell pairs                 ...     53956
Shell pairs after pre-screening             ...     37824
Total number of primitive shell pairs       ...    166752
Primitive shell pairs kept                  ...     76791
          la=0 lb=0:   9536 shell pairs
          la=1 lb=0:  10889 shell pairs
          la=1 lb=1:   3113 shell pairs
          la=2 lb=0:   5384 shell pairs
          la=2 lb=1:   3181 shell pairs
          la=2 lb=2:    840 shell pairs
          la=3 lb=0:   2501 shell pairs
          la=3 lb=1:   1492 shell pairs
          la=3 lb=2:    718 shell pairs
          la=3 lb=3:    170 shell pairs

Checking whether 4 symmetric matrices of dimension 840 fit in memory
:Max Core in MB      =   3000.00
 MB in use           =     49.17
 MB left             =   2950.83
 MB needed           =     10.78
 Data fit in memory  = YES
Calculating RI/J V-Matrix + Cholesky decomp.... done (  0.3 sec)
Calculating Nuclear repulsion               ... done (  0.0 sec) ENN=   1892.562551637881 Eh

Diagonalization of the overlap matrix:
Smallest eigenvalue                        ... 1.002e-05
Time for diagonalization                   ...    0.309 sec
Threshold for overlap eigenvalues          ... 1.000e-07
Number of eigenvalues below threshold      ... 0
Time for construction of square roots      ...    0.143 sec
Total time needed                          ...    0.481 sec

-------------------
DFT GRID GENERATION
-------------------

General Integration Accuracy     IntAcc      ... 4.959
Radial Grid Type                 RadialGrid  ... OptM3 with GC (2021)
Angular Grid (max. ang.)         AngularGrid ... 6 (Lebedev-590)
Angular grid pruning method      GridPruning ... 4 (adaptive)
Weight generation scheme         WeightScheme... mBecke (2022)
Basis function cutoff            BFCut       ... 1.0000e-11
Integration weight cutoff        WCut        ... 1.0000e-14
Partially contracted basis set               ... off
Rotationally invariant grid construction     ... off
Angular grids for H and He will be reduced by one unit

Total number of grid points                  ...   475615
Total number of batches                      ...     7453
Average number of points per batch           ...       63
Average number of grid points per atom       ...    11890

--------------------
COSX GRID GENERATION
--------------------

GRIDX 1
-------
General Integration Accuracy     IntAcc      ... 4.020
Radial Grid Type                 RadialGrid  ... OptM3 with GC (2021)
Angular Grid (max. ang.)         AngularGrid ... 2 (Lebedev-110)
Angular grid pruning method      GridPruning ... 4 (adaptive)
Weight generation scheme         WeightScheme... mBecke (2022)
Basis function cutoff            BFCut       ... 1.0000e-11
Integration weight cutoff        WCut        ... 1.0000e-14
Partially contracted basis set               ... on
Rotationally invariant grid construction     ... off
Angular grids for H and He will be reduced by one unit

Total number of grid points                  ...    53828
Total number of batches                      ...      442
Average number of points per batch           ...      121
Average number of grid points per atom       ...     1346
UseSFitting                                  ... on

GRIDX 2
-------
General Integration Accuracy     IntAcc      ... 4.338
Radial Grid Type                 RadialGrid  ... OptM3 with GC (2021)
Angular Grid (max. ang.)         AngularGrid ... 3 (Lebedev-194)
Angular grid pruning method      GridPruning ... 4 (adaptive)
Weight generation scheme         WeightScheme... mBecke (2022)
Basis function cutoff            BFCut       ... 1.0000e-11
Integration weight cutoff        WCut        ... 1.0000e-14
Partially contracted basis set               ... on
Rotationally invariant grid construction     ... off
Angular grids for H and He will be reduced by one unit

Total number of grid points                  ...   117983
Total number of batches                      ...      942
Average number of points per batch           ...      125
Average number of grid points per atom       ...     2950
UseSFitting                                  ... on

GRIDX 3
-------
General Integration Accuracy     IntAcc      ... 4.871
Radial Grid Type                 RadialGrid  ... OptM3 with GC (2021)
Angular Grid (max. ang.)         AngularGrid ... 4 (Lebedev-302)
Angular grid pruning method      GridPruning ... 4 (adaptive)
Weight generation scheme         WeightScheme... mBecke (2022)
Basis function cutoff            BFCut       ... 1.0000e-11
Integration weight cutoff        WCut        ... 1.0000e-14
Partially contracted basis set               ... on
Rotationally invariant grid construction     ... off
Angular grids for H and He will be reduced by one unit

Total number of grid points                  ...   218991
Total number of batches                      ...     1733
Average number of points per batch           ...      126
Average number of grid points per atom       ...     5475
UseSFitting                                  ... on
Grids setup in  22.3 sec
Initializing property integral containers    ... done (  0.0 sec)

SHARK setup successfully completed in  24.5 seconds

Maximum memory used throughout the entire STARTUP-calculation: 151.3 MB


           ************************************************************
           *        Program running with 4 parallel MPI-processes     *
           *              working on a common directory               *
           ************************************************************
-------------------------------------------------------------------------------
                                 ORCA GUESS
                   Start orbitals & Density for SCF / CASSCF
-------------------------------------------------------------------------------

------------
SCF SETTINGS
------------
Hamiltonian:
 Density Functional     Method          .... DFT(GTOs)
 Exchange Functional    Exchange        .... WB97X-D3
 Correlation Functional Correlation     .... WB97X-D3
 Gradients option       PostSCFGGA      .... off
 Hybrid DFT is turned on
   Fraction HF Exchange ScalHFX         ....  0.195728
   Scaling of DF-GGA-X  ScalDFX         ....  0.000000
   Scaling of DF-GGA-C  ScalDFC         ....  1.000000
   Scaling of DF-LDA-C  ScalLDAC        ....  1.000000
   Perturbative correction              ....  0.000000
 Long-range corrected/Screened/Range-Separated Hybrid DFT is turned on
   Amount of maximum screened exact exchange              ....  0.804272
   Range separation parameter mu (erf(mu*r12)/r12)        ....  0.250000
 RI-approximation to the Coulomb term is turned on
   Number of AuxJ basis functions       .... 1352
   RIJ-COSX (HFX calculated with COS-X)).... on


General Settings:
 Integral files         IntName         .... tddft
 Hartree-Fock type      HFTyp           .... RHF
 Total Charge           Charge          ....    0
 Multiplicity           Mult            ....    1
 Number of Electrons    NEL             ....  164
 Basis Dimension        Dim             ....  840
 Nuclear Repulsion      ENuc            ....   1892.5625516379 Eh

Convergence Acceleration:
 AO-DIIS                CNVDIIS         .... on
   Start iteration      DIISMaxIt       ....    12
   Startup error        DIISStart       ....  0.200000
   # of expansion vecs  DIISMaxEq       ....     5
   Bias factor          DIISBfac        ....   1.050
   Max. coefficient     DIISMaxC        ....  10.000
 MO-DIIS                CNVKDIIS        .... off
 Trust-Rad. Augm. Hess. CNVTRAH         .... auto
   Auto Start mean grad. ratio tolernc. ....  1.125000
   Auto Start start iteration           ....     1
   Auto Start num. interpolation iter.  ....    10
   Max. Number of Micro iterations      ....    24
   Max. Number of Macro iterations      .... Maxiter - #DIIS iter
   Number of Davidson start vectors     ....     2
   Converg. threshold    (grad. norm)   ....   1.000e-05
   Grad. Scal. Fac. for Micro threshold ....   0.100
   Minimum threshold for Micro iter.    ....   1.000e-02
   NR start threshold (gradient norm)   ....   1.000e-04
   Initial trust radius                 ....   0.400
   Minimum AH scaling param. (alpha)    ....   1.000
   Maximum AH scaling param. (alpha)    .... 1000.000
   Quad. conv. algorithm                .... NR
   White noise on init. David. guess    .... on
   Maximum white noise                  ....   0.010
   Pseudo random numbers                .... off
   Inactive MOs                         .... canonical
   Orbital update algorithm             .... Taylor
   Preconditioner                       .... Diag
   Full preconditioner red. dimension   ....   250
 SOSCF                 CNVSOSCF           .... on
   Start iteration     SOSCFMaxIt         ....   150
   Startup grad/error  SOSCFStart         ....  0.003300
   Hessian update      SOSCFHessUp        .... L-BFGS
   Autom. constraints  SOSCFAutoConstrain .... off
 Level Shifting         CNVShift        .... on
   Level shift para.    LevelShift      ....    0.2500
   Turn off err/grad.   ShiftErr        ....    0.0010
 Zerner damping         CNVZerner       .... off
 Static damping         CNVDamp         .... on
   Fraction old density DampFac         ....    0.7000
   Max. Damping (<1)    DampMax         ....    0.9800
   Min. Damping (>=0)   DampMin         ....    0.0000
   Turn off err/grad.   DampErr         ....    0.1000

SCF Procedure:
 Maximum # iterations   MaxIter         ....   125
 SCF integral mode      SCFMode         .... Direct
   Integral package                     .... SHARK and LIBINT hybrid scheme
 Reset frequency        DirectResetFreq ....    20
 Integral Threshold     Thresh          ....  2.500e-11 Eh
 Primitive CutOff       TCut            ....  2.500e-12 Eh

Convergence Tolerance:
 Convergence Check Mode ConvCheckMode   .... Total+1el-Energy
 Convergence forced     ConvForced      .... 1
 Energy Change          TolE            ....  1.000e-08 Eh
 1-El. energy change                    ....  1.000e-05 Eh
 Orbital Gradient       TolG            ....  1.000e-05
 Orbital Rotation angle TolX            ....  1.000e-05
 DIIS Error             TolErr          ....  5.000e-07

---------------------
INITIAL GUESS: MOREAD
---------------------
Guess MOs are being read from file: tddft.ges
Input Geometry matches current geometry (good)
Input basis set matches current basis set (good)
Occupation numbers will be reassigned to an Aufbau configuration
MOs were renormalized
MOs were reorthogonalized (Cholesky)
                      ------------------
                      INITIAL GUESS DONE (   1.1 sec)
                      ------------------
             **** ENERGY FILE WAS UPDATED (tddft.en.tmp) ****
Finished Guess after   2.0 sec
Maximum memory used throughout the entire GUESS-calculation: 93.0 MB


           ************************************************************
           *        Program running with 4 parallel MPI-processes     *
           *              working on a common directory               *
           ************************************************************

-------------------------------------------------------------------------------------------
                                      ORCA LEAN-SCF
                              memory conserving SCF solver
-------------------------------------------------------------------------------------------

--------------------
CPCM SOLVATION MODEL
--------------------
CPCM parameters:
  Epsilon                                         ...       8.9990
  Refrac                                          ...       1.4242
  Rsolv                                           ...       1.3000
  Surface type                                    ... GAUSSIAN VDW
  Discretization scheme                           ... Constant charge density
    Threshold for H atoms                         ...       5.0000 (charges/Ang^2)
    Threshold for non-H atoms                     ...       5.0000 (charges/Ang^2)
  Epsilon function type                           ...         CPCM
Solvent:                                          ... DICHLOROMETHANE
Radii:
  Scheme                                          ... Element-dependent radii
  Radius for N  used is    3.5149 Bohr (=   1.8600 Ang.)
  Radius for C  used is    3.8550 Bohr (=   2.0400 Ang.)
  Radius for H  used is    2.4944 Bohr (=   1.3200 Ang.)
Calculating surface                               ...        done! (  0.0s)
Cavity surface points                             ...         3539
Cavity Volume                                     ...    2470.9683
Cavity Surface-area                               ...    1207.5649
Calculating surface distance matrix               ...        done! (  0.4s)
Performing Cholesky decomposition & store         ...        done! (  0.9s)
Overall time for CPCM initialization              ...                 1.3s

----------------------------------------D-I-I-S--------------------------------------------
Iteration    Energy (Eh)           Delta-E    RMSDP     MaxDP     DIISErr   Damp  Time(sec)
-------------------------------------------------------------------------------------------
               ***  Starting incremental Fock matrix formation  ***
                              *** Initializing SOSCF ***
---------------------------------------S-O-S-C-F--------------------------------------
Iteration    Energy (Eh)           Delta-E    RMSDP     MaxDP     MaxGrad    Time(sec)
--------------------------------------------------------------------------------------
    1    -990.8105046115415462     0.00e+00  6.71e-06  3.24e-04  3.46e-07   244.3
               *** Restarting incremental Fock matrix formation ***
    2    -990.8105046121218038    -5.80e-10  1.68e-06  8.88e-05  5.71e-07   327.2
                  *** Gradient check signals convergence ***

               *****************************************************
               *                     SUCCESS                       *
               *           SCF CONVERGED AFTER   2 CYCLES          *
               *****************************************************

Recomputing exchange energy using gridx3       ... done (  422.237 sec)
Old exchange energy                            :    -44.132314844 Eh
New exchange energy                            :    -44.132327875 Eh
Exchange energy change after final integration :     -0.000013032 Eh
Total energy after final integration           :   -990.810517569 Eh
             **** ENERGY FILE WAS UPDATED (tddft.en.tmp) ****

----------------
TOTAL SCF ENERGY
----------------

Total Energy       :       -990.81051756885802 Eh          -26961.32487 eV

Components:
Nuclear Repulsion  :       1892.56255163788092 Eh           51499.24520 eV
Electronic Energy  :      -2883.35548184984282 Eh          -78460.09150 eV
One Electron Energy:      -5102.96390022608011 Eh         -138858.70717 eV
Two Electron Energy:       2219.60841837623730 Eh           60398.61567 eV
CPCM Dielectric    :         -0.01757432526850 Eh              -0.47822 eV

Virial components:
Potential Energy   :      -1977.08473845879053 Eh          -53799.21083 eV
Kinetic Energy     :        986.27422088993251 Eh           26837.88596 eV
Virial Ratio       :          2.00459942740350

DFT components:
N(Alpha)           :       81.999987662151 electrons
N(Beta)            :       81.999987662151 electrons
N(Total)           :      163.999975324303 electrons
E(XC)              :      -98.037343956412 Eh       

CPCM Solvation Model Properties:
Surface-charge          :         -0.03537271567729
Corrected charge        :         -0.00000000000000
Outlying charge corr.   :          0.00005945584606 Eh               0.00162 eV
Free-energy (cav+disp)  :  This term is not implemented in the current solvation scheme

---------------
SCF CONVERGENCE
---------------

  Last Energy change         ...    5.8026e-10  Tolerance :   1.0000e-08
  Last MAX-Density change    ...    8.8804e-05  Tolerance :   1.0000e-07
  Last RMS-Density change    ...    1.6805e-06  Tolerance :   5.0000e-09
  Last DIIS Error            ...    2.3812e-06  Tolerance :   5.0000e-07
  Last Orbital Gradient      ...    5.7105e-07  Tolerance :   1.0000e-05
  Last Orbital Rotation      ...    1.8003e-06  Tolerance :   1.0000e-05


----------------
ORBITAL ENERGIES
----------------

  NO   OCC          E(Eh)            E(eV) 
   0   2.0000     -14.463489      -393.5715 
   1   2.0000     -14.463480      -393.5713 
   2   2.0000     -14.417265      -392.3137 
   3   2.0000     -14.401212      -391.8769 
   4   2.0000     -10.336931      -281.2822 
   5   2.0000     -10.336918      -281.2818 
   6   2.0000     -10.326526      -280.9991 
   7   2.0000     -10.326495      -280.9982 
   8   2.0000     -10.323516      -280.9172 
   9   2.0000     -10.323514      -280.9171 
  10   2.0000     -10.303612      -280.3755 
  11   2.0000     -10.303574      -280.3745 
  12   2.0000     -10.297609      -280.2122 
  13   2.0000     -10.297582      -280.2114 
  14   2.0000     -10.292212      -280.0653 
  15   2.0000     -10.292203      -280.0651 
  16   2.0000     -10.284791      -279.8634 
  17   2.0000     -10.284790      -279.8634 
  18   2.0000     -10.279744      -279.7261 
  19   2.0000     -10.279549      -279.7208 
  20   2.0000     -10.275561      -279.6122 
  21   2.0000     -10.275556      -279.6121 
  22   2.0000     -10.271687      -279.5068 
  23   2.0000     -10.270936      -279.4864 
  24   2.0000      -1.114464       -30.3261 
  25   2.0000      -1.112721       -30.2787 
  26   2.0000      -1.072989       -29.1975 
  27   2.0000      -1.064699       -28.9719 
  28   2.0000      -0.941669       -25.6241 
  29   2.0000      -0.917980       -24.9795 
  30   2.0000      -0.913343       -24.8533 
  31   2.0000      -0.911774       -24.8106 
  32   2.0000      -0.909824       -24.7576 
  33   2.0000      -0.884558       -24.0700 
  34   2.0000      -0.873318       -23.7642 
  35   2.0000      -0.859589       -23.3906 
  36   2.0000      -0.841520       -22.8989 
  37   2.0000      -0.776027       -21.1168 
  38   2.0000      -0.774446       -21.0738 
  39   2.0000      -0.724234       -19.7074 
  40   2.0000      -0.713954       -19.4277 
  41   2.0000      -0.705545       -19.1989 
  42   2.0000      -0.695266       -18.9191 
  43   2.0000      -0.690373       -18.7860 
  44   2.0000      -0.684663       -18.6306 
  45   2.0000      -0.681609       -18.5475 
  46   2.0000      -0.658904       -17.9297 
  47   2.0000      -0.620782       -16.8923 
  48   2.0000      -0.608898       -16.5690 
  49   2.0000      -0.605031       -16.4637 
  50   2.0000      -0.597344       -16.2546 
  51   2.0000      -0.579175       -15.7602 
  52   2.0000      -0.560302       -15.2466 
  53   2.0000      -0.548786       -14.9332 
  54   2.0000      -0.547149       -14.8887 
  55   2.0000      -0.544701       -14.8221 
  56   2.0000      -0.543751       -14.7962 
  57   2.0000      -0.536479       -14.5983 
  58   2.0000      -0.525145       -14.2899 
  59   2.0000      -0.520726       -14.1697 
  60   2.0000      -0.510589       -13.8938 
  61   2.0000      -0.510061       -13.8795 
  62   2.0000      -0.508795       -13.8450 
  63   2.0000      -0.489785       -13.3277 
  64   2.0000      -0.475896       -12.9498 
  65   2.0000      -0.474547       -12.9131 
  66   2.0000      -0.473595       -12.8872 
  67   2.0000      -0.468061       -12.7366 
  68   2.0000      -0.462968       -12.5980 
  69   2.0000      -0.459376       -12.5003 
  70   2.0000      -0.453834       -12.3495 
  71   2.0000      -0.452118       -12.3027 
  72   2.0000      -0.422957       -11.5092 
  73   2.0000      -0.378856       -10.3092 
  74   2.0000      -0.372896       -10.1470 
  75   2.0000      -0.371322       -10.1042 
  76   2.0000      -0.365630        -9.9493 
  77   2.0000      -0.365031        -9.9330 
  78   2.0000      -0.357841        -9.7374 
  79   2.0000      -0.333763        -9.0822 
  80   2.0000      -0.266886        -7.2623 
  81   2.0000      -0.249584        -6.7915 
  82   0.0000      -0.045376        -1.2348 
  83   0.0000      -0.021057        -0.5730 
  84   0.0000       0.067617         1.8400 
  85   0.0000       0.103430         2.8145 
  86   0.0000       0.118746         3.2312 
  87   0.0000       0.128531         3.4975 
  88   0.0000       0.142094         3.8666 
  89   0.0000       0.142610         3.8806 
  90   0.0000       0.142640         3.8814 
  91   0.0000       0.151681         4.1275 
  92   0.0000       0.153118         4.1666 
*Only the first 10 virtual orbitals were printed.

                    ********************************
                    * MULLIKEN POPULATION ANALYSIS *
                    ********************************

-----------------------
MULLIKEN ATOMIC CHARGES
-----------------------
   0 N :   -0.458061
   1 N :   -0.206183
   2 N :   -0.206236
   3 N :   -0.508751
   4 C :   -0.151403
   5 C :   -0.152107
   6 C :    0.230259
   7 C :    0.230532
   8 C :   -0.475753
   9 C :   -0.475411
  10 C :    0.295008
  11 C :    0.294529
  12 C :    0.229499
  13 C :    0.229456
  14 C :   -0.239764
  15 C :   -0.240197
  16 C :   -0.216036
  17 C :   -0.215440
  18 C :   -0.368692
  19 C :   -0.368791
  20 C :    0.291361
  21 C :    0.291271
  22 C :   -0.248155
  23 C :   -0.247986
  24 H :    0.133100
  25 H :    0.135540
  26 H :    0.133149
  27 H :    0.135623
  28 H :    0.165136
  29 H :    0.165141
  30 H :    0.233258
  31 H :    0.233166
  32 H :    0.170420
  33 H :    0.170405
  34 H :    0.173014
  35 H :    0.173025
  36 H :    0.174863
  37 H :    0.174859
  38 H :    0.158178
  39 H :    0.158174
Sum of atomic charges:    0.0000000

--------------------------------
MULLIKEN REDUCED ORBITAL CHARGES
--------------------------------
  0 N s       :     3.627956  s :     3.627956
      pz      :     1.218822  p :     3.761613
      px      :     1.317707
      py      :     1.225084
      dz2     :     0.005621  d :     0.064900
      dxz     :     0.010619
      dyz     :     0.011048
      dx2y2   :     0.022359
      dxy     :     0.015252
      f0      :     0.000636  f :     0.003592
      f+1     :     0.000289
      f-1     :     0.000314
      f+2     :     0.000458
      f-2     :     0.000137
      f+3     :     0.000987
      f-3     :     0.000771

  1 N s       :     3.435020  s :     3.435020
      pz      :     1.524697  p :     3.700834
      px      :     1.095756
      py      :     1.080381
      dz2     :     0.004870  d :     0.065785
      dxz     :     0.011413
      dyz     :     0.008840
      dx2y2   :     0.018573
      dxy     :     0.022088
      f0      :     0.000844  f :     0.004545
      f+1     :     0.000604
      f-1     :     0.000630
      f+2     :     0.000587
      f-2     :     0.000075
      f+3     :     0.000835
      f-3     :     0.000969

  2 N s       :     3.435377  s :     3.435377
      pz      :     1.524716  p :     3.700537
      px      :     1.084401
      py      :     1.091420
      dz2     :     0.004877  d :     0.065777
      dxz     :     0.011199
      dyz     :     0.009051
      dx2y2   :     0.018127
      dxy     :     0.022523
      f0      :     0.000844  f :     0.004545
      f+1     :     0.000609
      f-1     :     0.000625
      f+2     :     0.000570
      f-2     :     0.000093
      f+3     :     0.000795
      f-3     :     0.001009

  3 N s       :     3.622828  s :     3.622828
      pz      :     1.274186  p :     3.817500
      px      :     1.315874
      py      :     1.227439
      dz2     :     0.005701  d :     0.064765
      dxz     :     0.010891
      dyz     :     0.011916
      dx2y2   :     0.021765
      dxy     :     0.014493
      f0      :     0.000639  f :     0.003658
      f+1     :     0.000329
      f-1     :     0.000346
      f+2     :     0.000644
      f-2     :     0.000131
      f+3     :     0.000860
      f-3     :     0.000709

  4 C s       :     3.127702  s :     3.127702
      pz      :     1.062817  p :     2.939634
      px      :     0.882038
      py      :     0.994779
      dz2     :     0.003775  d :     0.078524
      dxz     :     0.015612
      dyz     :     0.017307
      dx2y2   :     0.024475
      dxy     :     0.017354
      f0      :     0.000567  f :     0.005544
      f+1     :     0.000135
      f-1     :     0.001125
      f+2     :     0.000248
      f-2     :     0.000789
      f+3     :     0.001359
      f-3     :     0.001320

  5 C s       :     3.128575  s :     3.128575
      pz      :     1.062853  p :     2.939428
      px      :     0.985121
      py      :     0.891454
      dz2     :     0.003782  d :     0.078558
      dxz     :     0.016550
      dyz     :     0.016376
      dx2y2   :     0.023982
      dxy     :     0.017869
      f0      :     0.000569  f :     0.005546
      f+1     :     0.001149
      f-1     :     0.000110
      f+2     :     0.000219
      f-2     :     0.000819
      f+3     :     0.001071
      f-3     :     0.001609

  6 C s       :     3.121635  s :     3.121635
      pz      :     0.839831  p :     2.482654
      px      :     0.866542
      py      :     0.776280
      dz2     :     0.001570  d :     0.151688
      dxz     :     0.027611
      dyz     :     0.036904
      dx2y2   :     0.042055
      dxy     :     0.043549
      f0      :     0.002050  f :     0.013764
      f+1     :     0.000768
      f-1     :     0.001015
      f+2     :     0.001589
      f-2     :     0.001206
      f+3     :     0.005117
      f-3     :     0.002019

  7 C s       :     3.121372  s :     3.121372
      pz      :     0.839798  p :     2.482592
      px      :     0.797056
      py      :     0.845738
      dz2     :     0.001564  d :     0.151736
      dxz     :     0.032676
      dyz     :     0.031852
      dx2y2   :     0.042018
      dxy     :     0.043627
      f0      :     0.002050  f :     0.013768
      f+1     :     0.001016
      f-1     :     0.000768
      f+2     :     0.001380
      f-2     :     0.001416
      f+3     :     0.003354
      f-3     :     0.003784

  8 C s       :     3.340387  s :     3.340387
      pz      :     1.119391  p :     3.060485
      px      :     0.905502
      py      :     1.035592
      dz2     :     0.003128  d :     0.067552
      dxz     :     0.021589
      dyz     :     0.003430
      dx2y2   :     0.030176
      dxy     :     0.009230
      f0      :     0.001561  f :     0.007329
      f+1     :     0.000737
      f-1     :     0.000700
      f+2     :     0.000448
      f-2     :     0.000686
      f+3     :     0.002073
      f-3     :     0.001124

  9 C s       :     3.339987  s :     3.339987
      pz      :     1.119395  p :     3.060586
      px      :     1.021439
      py      :     0.919752
      dz2     :     0.003125  d :     0.067510
      dxz     :     0.003278
      dyz     :     0.021736
      dx2y2   :     0.030810
      dxy     :     0.008560
      f0      :     0.001561  f :     0.007329
      f+1     :     0.000700
      f-1     :     0.000736
      f+2     :     0.000444
      f-2     :     0.000690
      f+3     :     0.001150
      f-3     :     0.002048

 10 C s       :     3.098903  s :     3.098903
      pz      :     0.875933  p :     2.441781
      px      :     0.822242
      py      :     0.743606
      dz2     :     0.003641  d :     0.150156
      dxz     :     0.038602
      dyz     :     0.035112
      dx2y2   :     0.035464
      dxy     :     0.037337
      f0      :     0.002397  f :     0.014152
      f+1     :     0.000869
      f-1     :     0.001061
      f+2     :     0.002031
      f-2     :     0.001269
      f+3     :     0.003870
      f-3     :     0.002655

 11 C s       :     3.099140  s :     3.099140
      pz      :     0.875909  p :     2.442077
      px      :     0.725196
      py      :     0.840973
      dz2     :     0.003639  d :     0.150100
      dxz     :     0.037857
      dyz     :     0.035856
      dx2y2   :     0.043691
      dxy     :     0.029058
      f0      :     0.002397  f :     0.014152
      f+1     :     0.001105
      f-1     :     0.000827
      f+2     :     0.002538
      f-2     :     0.000761
      f+3     :     0.002041
      f-3     :     0.004484

 12 C s       :     3.094233  s :     3.094233
      pz      :     0.973402  p :     2.519901
      px      :     0.718486
      py      :     0.828012
      dz2     :     0.004274  d :     0.142413
      dxz     :     0.035641
      dyz     :     0.029639
      dx2y2   :     0.043788
      dxy     :     0.029069
      f0      :     0.002394  f :     0.013954
      f+1     :     0.001125
      f-1     :     0.000864
      f+2     :     0.002512
      f-2     :     0.000557
      f+3     :     0.002025
      f-3     :     0.004477

 13 C s       :     3.093898  s :     3.093898
      pz      :     0.973330  p :     2.520349
      px      :     0.811486
      py      :     0.735534
      dz2     :     0.004261  d :     0.142342
      dxz     :     0.031382
      dyz     :     0.033904
      dx2y2   :     0.035189
      dxy     :     0.037606
      f0      :     0.002394  f :     0.013954
      f+1     :     0.000903
      f-1     :     0.001085
      f+2     :     0.001976
      f-2     :     0.001095
      f+3     :     0.003909
      f-3     :     0.002592

 14 C s       :     3.265894  s :     3.265894
      pz      :     1.024166  p :     2.884047
      px      :     0.902635
      py      :     0.957247
      dz2     :     0.005227  d :     0.082023
      dxz     :     0.020060
      dyz     :     0.007932
      dx2y2   :     0.029918
      dxy     :     0.018885
      f0      :     0.001614  f :     0.007800
      f+1     :     0.000553
      f-1     :     0.000891
      f+2     :     0.000092
      f-2     :     0.001199
      f+3     :     0.002207
      f-3     :     0.001243

 15 C s       :     3.266554  s :     3.266554
      pz      :     1.024058  p :     2.883812
      px      :     0.965612
      py      :     0.894143
      dz2     :     0.005227  d :     0.082031
      dxz     :     0.009445
      dyz     :     0.018549
      dx2y2   :     0.030901
      dxy     :     0.017909
      f0      :     0.001614  f :     0.007800
      f+1     :     0.000858
      f-1     :     0.000587
      f+2     :     0.000396
      f-2     :     0.000895
      f+3     :     0.001863
      f-3     :     0.001586

 16 C s       :     3.277738  s :     3.277738
      pz      :     0.964262  p :     2.843481
      px      :     0.974603
      py      :     0.904617
      dz2     :     0.005035  d :     0.086927
      dxz     :     0.010314
      dyz     :     0.023504
      dx2y2   :     0.030439
      dxy     :     0.017635
      f0      :     0.001590  f :     0.007890
      f+1     :     0.000837
      f-1     :     0.000558
      f+2     :     0.000543
      f-2     :     0.000942
      f+3     :     0.001893
      f-3     :     0.001528

 17 C s       :     3.277074  s :     3.277074
      pz      :     0.964303  p :     2.843570
      px      :     0.912101
      py      :     0.967167
      dz2     :     0.005034  d :     0.086907
      dxz     :     0.025735
      dyz     :     0.008074
      dx2y2   :     0.029893
      dxy     :     0.018171
      f0      :     0.001589  f :     0.007888
      f+1     :     0.000522
      f-1     :     0.000871
      f+2     :     0.000133
      f-2     :     0.001352
      f+3     :     0.002160
      f-3     :     0.001262

 18 C s       :     3.340843  s :     3.340843
      pz      :     0.961312  p :     2.938724
      px      :     1.044748
      py      :     0.932663
      dz2     :     0.002817  d :     0.081882
      dxz     :     0.003280
      dyz     :     0.032635
      dx2y2   :     0.033597
      dxy     :     0.009553
      f0      :     0.001482  f :     0.007243
      f+1     :     0.000652
      f-1     :     0.000641
      f+2     :     0.000433
      f-2     :     0.000841
      f+3     :     0.001073
      f-3     :     0.002120

 19 C s       :     3.341221  s :     3.341221
      pz      :     0.961364  p :     2.938423
      px      :     0.925894
      py      :     1.051164
      dz2     :     0.002820  d :     0.081905
      dxz     :     0.032269
      dyz     :     0.003632
      dx2y2   :     0.032932
      dxy     :     0.010252
      f0      :     0.001482  f :     0.007243
      f+1     :     0.000639
      f-1     :     0.000655
      f+2     :     0.000470
      f-2     :     0.000804
      f+3     :     0.002023
      f-3     :     0.001171

 20 C s       :     3.084378  s :     3.084378
      pz      :     0.952278  p :     2.466728
      px      :     0.768927
      py      :     0.745523
      dz2     :     0.003430  d :     0.143501
      dxz     :     0.032653
      dyz     :     0.027050
      dx2y2   :     0.039225
      dxy     :     0.041143
      f0      :     0.002232  f :     0.014032
      f+1     :     0.001040
      f-1     :     0.000885
      f+2     :     0.001583
      f-2     :     0.001097
      f+3     :     0.003047
      f-3     :     0.004148

 21 C s       :     3.084232  s :     3.084232
      pz      :     0.952178  p :     2.466997
      px      :     0.756532
      py      :     0.758287
      dz2     :     0.003427  d :     0.143469
      dxz     :     0.026523
      dyz     :     0.033170
      dx2y2   :     0.038896
      dxy     :     0.041453
      f0      :     0.002232  f :     0.014031
      f+1     :     0.000853
      f-1     :     0.001071
      f+2     :     0.002053
      f-2     :     0.000628
      f+3     :     0.005156
      f-3     :     0.002038

 22 C s       :     3.267434  s :     3.267434
      pz      :     1.008873  p :     2.889247
      px      :     0.953467
      py      :     0.926907
      dz2     :     0.004864  d :     0.083589
      dxz     :     0.007320
      dyz     :     0.022772
      dx2y2   :     0.028816
      dxy     :     0.019816
      f0      :     0.001542  f :     0.007885
      f+1     :     0.000843
      f-1     :     0.000500
      f+2     :     0.000074
      f-2     :     0.001376
      f+3     :     0.001305
      f-3     :     0.002245

 23 C s       :     3.267598  s :     3.267598
      pz      :     1.008851  p :     2.888925
      px      :     0.916285
      py      :     0.963789
      dz2     :     0.004864  d :     0.083578
      dxz     :     0.021012
      dyz     :     0.009074
      dx2y2   :     0.030782
      dxy     :     0.017846
      f0      :     0.001542  f :     0.007884
      f+1     :     0.000534
      f-1     :     0.000809
      f+2     :     0.000420
      f-2     :     0.001030
      f+3     :     0.001628
      f-3     :     0.001922

 24 H s       :     0.844969  s :     0.844969
      pz      :     0.010187  p :     0.021931
      px      :     0.004263
      py      :     0.007481

 25 H s       :     0.842589  s :     0.842589
      pz      :     0.009416  p :     0.021871
      px      :     0.004236
      py      :     0.008219

 26 H s       :     0.844920  s :     0.844920
      pz      :     0.010220  p :     0.021931
      px      :     0.007620
      py      :     0.004091

 27 H s       :     0.842509  s :     0.842509
      pz      :     0.009377  p :     0.021867
      px      :     0.008392
      py      :     0.004099

 28 H s       :     0.812014  s :     0.812014
      pz      :     0.005552  p :     0.022850
      px      :     0.003400
      py      :     0.013899

 29 H s       :     0.812008  s :     0.812008
      pz      :     0.005552  p :     0.022851
      px      :     0.013847
      py      :     0.003452

 30 H s       :     0.724181  s :     0.724181
      pz      :     0.010256  p :     0.042561
      px      :     0.013253
      py      :     0.019053

 31 H s       :     0.724254  s :     0.724254
      pz      :     0.010254  p :     0.042580
      px      :     0.015194
      py      :     0.017132

 32 H s       :     0.807587  s :     0.807587
      pz      :     0.004713  p :     0.021993
      px      :     0.003352
      py      :     0.013928

 33 H s       :     0.807604  s :     0.807604
      pz      :     0.004712  p :     0.021991
      px      :     0.013389
      py      :     0.003889

 34 H s       :     0.805240  s :     0.805240
      pz      :     0.004331  p :     0.021746
      px      :     0.013388
      py      :     0.004027

 35 H s       :     0.805226  s :     0.805226
      pz      :     0.004331  p :     0.021749
      px      :     0.003428
      py      :     0.013989

 36 H s       :     0.802885  s :     0.802885
      pz      :     0.004590  p :     0.022251
      px      :     0.014170
      py      :     0.003492

 37 H s       :     0.802891  s :     0.802891
      pz      :     0.004590  p :     0.022250
      px      :     0.003535
      py      :     0.014126

 38 H s       :     0.819847  s :     0.819847
      pz      :     0.004642  p :     0.021975
      px      :     0.013784
      py      :     0.003549

 39 H s       :     0.819853  s :     0.819853
      pz      :     0.004642  p :     0.021973
      px      :     0.004075
      py      :     0.013256



                     *******************************
                     * LOEWDIN POPULATION ANALYSIS *
                     *******************************

----------------------
LOEWDIN ATOMIC CHARGES
----------------------
   0 N :    0.112753
   1 N :    0.251729
   2 N :    0.251719
   3 N :    0.080746
   4 C :   -0.194038
   5 C :   -0.194080
   6 C :   -0.211837
   7 C :   -0.211939
   8 C :   -0.150137
   9 C :   -0.150132
  10 C :   -0.179451
  11 C :   -0.179442
  12 C :   -0.206545
  13 C :   -0.206540
  14 C :   -0.118163
  15 C :   -0.118070
  16 C :   -0.097499
  17 C :   -0.097527
  18 C :   -0.080049
  19 C :   -0.080039
  20 C :   -0.254527
  21 C :   -0.254418
  22 C :   -0.135992
  23 C :   -0.135926
  24 H :    0.150827
  25 H :    0.149902
  26 H :    0.150849
  27 H :    0.149908
  28 H :    0.166937
  29 H :    0.166951
  30 H :    0.187552
  31 H :    0.187552
  32 H :    0.152124
  33 H :    0.152157
  34 H :    0.154678
  35 H :    0.154646
  36 H :    0.172274
  37 H :    0.172260
  38 H :    0.145385
  39 H :    0.145403

-------------------------------
LOEWDIN REDUCED ORBITAL CHARGES
-------------------------------
  0 N s       :     3.032368  s :     3.032368
      pz      :     1.095499  p :     3.628870
      px      :     1.297073
      py      :     1.236299
      dz2     :     0.016982  d :     0.206885
      dxz     :     0.022601
      dyz     :     0.028329
      dx2y2   :     0.077235
      dxy     :     0.061738
      f0      :     0.001164  f :     0.019124
      f+1     :     0.001193
      f-1     :     0.001407
      f+2     :     0.002890
      f-2     :     0.000414
      f+3     :     0.007013
      f-3     :     0.005043

  1 N s       :     2.884758  s :     2.884758
      pz      :     1.338537  p :     3.611215
      px      :     1.135033
      py      :     1.137644
      dz2     :     0.013864  d :     0.234441
      dxz     :     0.034942
      dyz     :     0.024988
      dx2y2   :     0.072141
      dxy     :     0.088506
      f0      :     0.001200  f :     0.017858
      f+1     :     0.001646
      f-1     :     0.001728
      f+2     :     0.003627
      f-2     :     0.000405
      f+3     :     0.003413
      f-3     :     0.005840

  2 N s       :     2.884762  s :     2.884762
      pz      :     1.338566  p :     3.611240
      px      :     1.138075
      py      :     1.134599
      dz2     :     0.013867  d :     0.234420
      dxz     :     0.032424
      dyz     :     0.027496
      dx2y2   :     0.070627
      dxy     :     0.090007
      f0      :     0.001200  f :     0.017858
      f+1     :     0.001733
      f-1     :     0.001641
      f+2     :     0.003564
      f-2     :     0.000468
      f+3     :     0.003413
      f-3     :     0.005839

  3 N s       :     3.042041  s :     3.042041
      pz      :     1.145651  p :     3.655361
      px      :     1.284520
      py      :     1.225190
      dz2     :     0.016407  d :     0.202653
      dxz     :     0.025391
      dyz     :     0.032302
      dx2y2   :     0.071659
      dxy     :     0.056893
      f0      :     0.001082  f :     0.019198
      f+1     :     0.001161
      f-1     :     0.001344
      f+2     :     0.003875
      f-2     :     0.000322
      f+3     :     0.006496
      f-3     :     0.004918

  4 C s       :     2.764669  s :     2.764669
      pz      :     1.038676  p :     3.031202
      px      :     0.986145
      py      :     1.006382
      dz2     :     0.038412  d :     0.358181
      dxz     :     0.046055
      dyz     :     0.096940
      dx2y2   :     0.090777
      dxy     :     0.085997
      f0      :     0.003750  f :     0.039985
      f+1     :     0.003125
      f-1     :     0.004503
      f+2     :     0.004001
      f-2     :     0.005289
      f+3     :     0.009350
      f-3     :     0.009967

  5 C s       :     2.764665  s :     2.764665
      pz      :     1.038683  p :     3.031188
      px      :     1.004526
      py      :     0.987979
      dz2     :     0.038465  d :     0.358239
      dxz     :     0.095577
      dyz     :     0.047358
      dx2y2   :     0.085644
      dxy     :     0.091195
      f0      :     0.003755  f :     0.039989
      f+1     :     0.004538
      f-1     :     0.003077
      f+2     :     0.004115
      f-2     :     0.005188
      f+3     :     0.007590
      f-3     :     0.011725

  6 C s       :     2.725014  s :     2.725014
      pz      :     0.782596  p :     2.763268
      px      :     1.011754
      py      :     0.968917
      dz2     :     0.041171  d :     0.645147
      dxz     :     0.086223
      dyz     :     0.111667
      dx2y2   :     0.191434
      dxy     :     0.214652
      f0      :     0.005148  f :     0.078408
      f+1     :     0.003978
      f-1     :     0.006183
      f+2     :     0.010865
      f-2     :     0.006845
      f+3     :     0.032277
      f-3     :     0.013113

  7 C s       :     2.724991  s :     2.724991
      pz      :     0.782545  p :     2.763275
      px      :     0.963602
      py      :     1.017128
      dz2     :     0.041192  d :     0.645249
      dxz     :     0.100155
      dyz     :     0.097786
      dx2y2   :     0.196055
      dxy     :     0.210063
      f0      :     0.005148  f :     0.078424
      f+1     :     0.005858
      f-1     :     0.004306
      f+2     :     0.009928
      f-2     :     0.007786
      f+3     :     0.021634
      f-3     :     0.023763

  8 C s       :     2.748947  s :     2.748947
      pz      :     0.983072  p :     3.003708
      px      :     1.025632
      py      :     0.995005
      dz2     :     0.024334  d :     0.357699
      dxz     :     0.070270
      dyz     :     0.011262
      dx2y2   :     0.155402
      dxy     :     0.096431
      f0      :     0.003249  f :     0.039782
      f+1     :     0.004822
      f-1     :     0.003005
      f+2     :     0.002232
      f-2     :     0.005151
      f+3     :     0.012361
      f-3     :     0.008961

  9 C s       :     2.748933  s :     2.748933
      pz      :     0.983086  p :     3.003717
      px      :     0.991202
      py      :     1.029428
      dz2     :     0.024334  d :     0.357701
      dxz     :     0.011312
      dyz     :     0.070217
      dx2y2   :     0.151387
      dxy     :     0.100450
      f0      :     0.003249  f :     0.039782
      f+1     :     0.003007
      f-1     :     0.004820
      f+2     :     0.002080
      f-2     :     0.005303
      f+3     :     0.008952
      f-3     :     0.012371

 10 C s       :     2.699707  s :     2.699707
      pz      :     0.814865  p :     2.761261
      px      :     1.030264
      py      :     0.916132
      dz2     :     0.040007  d :     0.637007
      dxz     :     0.105724
      dyz     :     0.119663
      dx2y2   :     0.187045
      dxy     :     0.184568
      f0      :     0.005507  f :     0.081476
      f+1     :     0.004729
      f-1     :     0.006043
      f+2     :     0.013530
      f-2     :     0.008786
      f+3     :     0.025447
      f-3     :     0.017435

 11 C s       :     2.699706  s :     2.699706
      pz      :     0.814852  p :     2.761252
      px      :     0.914556
      py      :     1.031844
      dz2     :     0.040011  d :     0.637013
      dxz     :     0.127035
      dyz     :     0.098357
      dx2y2   :     0.197171
      dxy     :     0.174439
      f0      :     0.005506  f :     0.081472
      f+1     :     0.006378
      f-1     :     0.004395
      f+2     :     0.016567
      f-2     :     0.005748
      f+3     :     0.013864
      f-3     :     0.029013

 12 C s       :     2.694799  s :     2.694799
      pz      :     0.885474  p :     2.814443
      px      :     0.898864
      py      :     1.030105
      dz2     :     0.040359  d :     0.617265
      dxz     :     0.121325
      dyz     :     0.081809
      dx2y2   :     0.201532
      dxy     :     0.172240
      f0      :     0.005595  f :     0.080038
      f+1     :     0.006396
      f-1     :     0.004645
      f+2     :     0.016179
      f-2     :     0.004231
      f+3     :     0.014236
      f-3     :     0.028754

 13 C s       :     2.694798  s :     2.694798
      pz      :     0.885402  p :     2.814390
      px      :     1.028962
      py      :     0.900026
      dz2     :     0.040364  d :     0.617309
      dxz     :     0.086203
      dyz     :     0.116964
      dx2y2   :     0.190416
      dxy     :     0.183362
      f0      :     0.005595  f :     0.080043
      f+1     :     0.004975
      f-1     :     0.006067
      f+2     :     0.012781
[...]
  0-1A  -> 16-1A    5.584652   45043.3   222.0   0.131648084   0.04053  -0.12663   0.15649  -0.00135
  0-1A  -> 17-1A    5.922903   47771.4   209.3   0.002377962   0.00078  -0.02164  -0.01755   0.00007
  0-1A  -> 18-1A    6.100940   49207.4   203.2   0.105266206   0.03540  -0.11884   0.14587   0.00088
  0-1A  -> 19-1A    6.136616   49495.2   202.0   0.006083346   0.00206   0.03411   0.02991  -0.00013
  0-1A  -> 20-1A    6.139148   49515.6   202.0   0.012398500   0.00420  -0.04216   0.04909  -0.00292
  0-1A  -> 21-1A    6.508318   52493.1   190.5   0.000842242   0.00030   0.01350   0.01096   0.00003
  0-1A  -> 22-1A    6.582892   53094.6   188.3   0.028568441   0.01037  -0.06437   0.07888   0.00139
  0-1A  -> 23-1A    6.621530   53406.2   187.2   0.000016385   0.00001  -0.00203  -0.00136   0.00006
  0-1A  -> 24-1A    6.785431   54728.2   182.7   0.090966385   0.03403   0.11645  -0.14306   0.00014
  0-1A  -> 25-1A    6.805014   54886.1   182.2   0.003291417   0.00123   0.00660  -0.00800  -0.03357
  0-1A  -> 26-1A    6.945755   56021.3   178.5   0.113552499   0.04348  -0.16165  -0.13170  -0.00034
  0-1A  -> 27-1A    6.973545   56245.4   177.8   0.002362066   0.00091   0.01957  -0.02291  -0.00039
  0-1A  -> 28-1A    7.152846   57691.6   173.3   0.000000119   0.00000  -0.00020  -0.00008   0.00000
  0-1A  -> 29-1A    7.170625   57835.0   172.9   0.000000015   0.00000   0.00004   0.00007   0.00001
  0-1A  -> 30-1A    7.336588   59173.6   169.0   0.000001778   0.00000   0.00072   0.00044  -0.00009

------------------------------------------------------------------------------------------
                     CD SPECTRUM VIA TRANSITION ELECTRIC DIPOLE MOMENTS    
------------------------------------------------------------------------------------------
     Transition      Energy     Energy  Wavelength    R        MX        MY        MZ   
                      (eV)      (cm-1)    (nm)   (1e40*cgs)   (au)      (au)      (au)  
------------------------------------------------------------------------------------------
  0-1A  ->  1-1A    2.009710   16209.4   616.9    0.79477   0.00321  -0.00192  -0.89925
  0-1A  ->  2-1A    2.543854   20517.6   487.4   -0.05061   0.00051   0.00040  -0.00027
  0-1A  ->  3-1A    3.406888   27478.4   363.9  -11.47323   0.00412   0.00386   0.00032
  0-1A  ->  4-1A    3.605880   29083.4   343.8    1.42066   0.00122  -0.00082  -0.17284
  0-1A  ->  5-1A    4.424806   35688.5   280.2    0.01790  -0.00005  -0.00002  -0.00026
  0-1A  ->  6-1A    4.606907   37157.2   269.1    6.48320   0.00508  -0.00764   0.76377
  0-1A  ->  7-1A    4.701867   37923.1   263.7   -9.65374   0.19770  -0.24227  -0.00661
  0-1A  ->  8-1A    4.758149   38377.1   260.6    2.15964   0.00450  -0.00521  -0.10947
  0-1A  ->  9-1A    4.856670   39171.7   255.3   -1.59056   0.00285   0.00278   0.00044
  0-1A  -> 10-1A    4.927418   39742.3   251.6    8.70842  -0.19016   0.23300   0.03101
  0-1A  -> 11-1A    5.209676   42018.9   238.0    0.93221  -0.00232   0.00499  -0.84479
  0-1A  -> 12-1A    5.235598   42227.9   236.8    0.65068  -0.05563  -0.04549  -0.00084
  0-1A  -> 13-1A    5.268396   42492.5   235.3   -0.64214  -0.02092  -0.01711   0.00022
  0-1A  -> 14-1A    5.294013   42699.1   234.2   -0.27745  -0.00152  -0.00136  -0.00049
  0-1A  -> 15-1A    5.577459   44985.2   222.3   -0.13590  -0.00043  -0.00057  -0.00257
  0-1A  -> 16-1A    5.584652   45043.3   222.0    0.54292  -0.00235   0.00208   0.26088
  0-1A  -> 17-1A    5.922903   47771.4   209.3    0.04183  -0.00056  -0.00041   0.00029
  0-1A  -> 18-1A    6.100940   49207.4   203.2   -0.33430   0.00021   0.00006  -0.14916
  0-1A  -> 19-1A    6.136616   49495.2   202.0    0.23879   0.00199   0.00150  -0.01008
  0-1A  -> 20-1A    6.139148   49515.6   202.0    1.53954   0.00178  -0.00148  -0.30151
  0-1A  -> 21-1A    6.508318   52493.1   190.5    0.03355   0.00078   0.00060  -0.00017
  0-1A  -> 22-1A    6.582892   53094.6   188.3    0.66439   0.00003  -0.00018   0.21721
  0-1A  -> 23-1A    6.621530   53406.2   187.2    0.45934  -0.08134  -0.06646   0.00019
  0-1A  -> 24-1A    6.785431   54728.2   182.7    1.96902   0.00382  -0.00439  -0.03508
  0-1A  -> 25-1A    6.805014   54886.1   182.2   -2.34565  -0.06709   0.08233   0.00234
  0-1A  -> 26-1A    6.945755   56021.3   178.5   -0.24005   0.00027   0.00065  -0.00102
  0-1A  -> 27-1A    6.973545   56245.4   177.8    0.12619  -0.00016   0.00045  -0.24521
  0-1A  -> 28-1A    7.152846   57691.6   173.3   -0.05545   0.08699   0.07083   0.00031
  0-1A  -> 29-1A    7.170625   57835.0   172.9    0.01069   0.09287   0.07624   0.00021
  0-1A  -> 30-1A    7.336588   59173.6   169.0   -0.21467  -0.10846  -0.08729  -0.00011

------------------------------------------------------------------------------------------
                     CD SPECTRUM VIA TRANSITION VELOCITY DIPOLE MOMENTS    
------------------------------------------------------------------------------------------
     Transition      Energy     Energy  Wavelength    R        MX        MY        MZ   
                      (eV)      (cm-1)    (nm)   (1e40*cgs)   (au)      (au)      (au)  
------------------------------------------------------------------------------------------
  0-1A  ->  1-1A    2.009710   16209.4   616.9    1.00693   0.00321  -0.00192  -0.89925
  0-1A  ->  2-1A    2.543854   20517.6   487.4   -0.04889   0.00051   0.00040  -0.00027
  0-1A  ->  3-1A    3.406888   27478.4   363.9  -11.42433   0.00412   0.00386   0.00032
  0-1A  ->  4-1A    3.605880   29083.4   343.8    1.43602   0.00122  -0.00082  -0.17284
  0-1A  ->  5-1A    4.424806   35688.5   280.2    0.01769  -0.00005  -0.00002  -0.00026
  0-1A  ->  6-1A    4.606907   37157.2   269.1    6.45462   0.00508  -0.00764   0.76377
  0-1A  ->  7-1A    4.701867   37923.1   263.7   -9.71053   0.19770  -0.24227  -0.00661
  0-1A  ->  8-1A    4.758149   38377.1   260.6    2.11124   0.00450  -0.00521  -0.10947
  0-1A  ->  9-1A    4.856670   39171.7   255.3   -1.59165   0.00285   0.00278   0.00044
  0-1A  -> 10-1A    4.927418   39742.3   251.6    8.91692  -0.19016   0.23300   0.03101
  0-1A  -> 11-1A    5.209676   42018.9   238.0    0.85320  -0.00232   0.00499  -0.84479
  0-1A  -> 12-1A    5.235598   42227.9   236.8    0.67360  -0.05563  -0.04549  -0.00084
  0-1A  -> 13-1A    5.268396   42492.5   235.3   -0.67283  -0.02092  -0.01711   0.00022
  0-1A  -> 14-1A    5.294013   42699.1   234.2   -0.28966  -0.00152  -0.00136  -0.00049
  0-1A  -> 15-1A    5.577459   44985.2   222.3   -0.13510  -0.00043  -0.00057  -0.00257
  0-1A  -> 16-1A    5.584652   45043.3   222.0    0.62542  -0.00235   0.00208   0.26088
  0-1A  -> 17-1A    5.922903   47771.4   209.3    0.04171  -0.00056  -0.00041   0.00029
  0-1A  -> 18-1A    6.100940   49207.4   203.2   -0.31067   0.00021   0.00006  -0.14916
  0-1A  -> 19-1A    6.136616   49495.2   202.0    0.23789   0.00199   0.00150  -0.01008
  0-1A  -> 20-1A    6.139148   49515.6   202.0    1.52885   0.00178  -0.00148  -0.30151
  0-1A  -> 21-1A    6.508318   52493.1   190.5    0.03365   0.00078   0.00060  -0.00017
  0-1A  -> 22-1A    6.582892   53094.6   188.3    0.55696   0.00003  -0.00018   0.21721
  0-1A  -> 23-1A    6.621530   53406.2   187.2    0.49522  -0.08134  -0.06646   0.00019
  0-1A  -> 24-1A    6.785431   54728.2   182.7    2.02046   0.00382  -0.00439  -0.03508
  0-1A  -> 25-1A    6.805014   54886.1   182.2   -2.22526  -0.06709   0.08233   0.00234
  0-1A  -> 26-1A    6.945755   56021.3   178.5   -0.24054   0.00027   0.00065  -0.00102
  0-1A  -> 27-1A    6.973545   56245.4   177.8    0.15040  -0.00016   0.00045  -0.24521
  0-1A  -> 28-1A    7.152846   57691.6   173.3   -0.04149   0.08699   0.07083   0.00031
  0-1A  -> 29-1A    7.170625   57835.0   172.9    0.01518   0.09287   0.07624   0.00021
  0-1A  -> 30-1A    7.336588   59173.6   169.0   -0.20342  -0.10846  -0.08729  -0.00011

Total run time:    15663.525 sec

           *** ORCA-CIS/TD-DFT FINISHED WITHOUT ERROR ***
-----------------------
CIS/TD-DFT TOTAL ENERGY
-----------------------

    E(SCF)  =   -990.810517569 Eh
    DE(CIS) =      0.073855477 Eh (Root  1)
    ----------------------------- ---------
    E(tot)  =   -990.736662091 Eh


Maximum memory used throughout the entire CIS-calculation: 2730.8 MB
=> NOW LEAVING ORCA_CIS


-------------------------------------------------------------------------------
                          DFT DISPERSION CORRECTION                            
                                                                               
                              DFTD3 V3.1  Rev 1                                
                              USING zero damping                               
-------------------------------------------------------------------------------
The omegaB97X-D3 functional is recognized. Fit by Chai et al.
Active option DFTDOPT                   ...         3   

molecular C6(AA) [au] = 20149.794345 


            DFT-D V3
 parameters
 s6 scaling factor         :     1.0000 
 rs6 scaling factor        :     1.2810 
 s8 scaling factor         :     1.0000 
 rs8 scaling factor        :     1.0940 
 Damping factor alpha6     :    14.0000 
 Damping factor alpha8     :    16.0000 
 ad hoc parameters k1-k3   :    16.0000     1.3333    -4.0000 

 Edisp/kcal,au: -11.661937643665  -0.018584478612 
 E6   /kcal   :  -5.371383007 
 E8   /kcal   :  -6.290554637 
 % E8         :  53.940904412 

-------------------------   ----------------
Dispersion correction           -0.018584479
-------------------------   ----------------


-------------------------   --------------------
FINAL SINGLE POINT ENERGY      -990.755246570050
-------------------------   --------------------



           ************************************************************
           *        Program running with 4 parallel MPI-processes     *
           *              working on a common directory               *
           ************************************************************

------------------------------------------------------------------------------
                              ORCA PROPERTY CALCULATIONS
------------------------------------------------------------------------------

GBWName                                 ... tddft.gbw
Number of atoms                         ...     40
Number of basis functions               ...    840
Max core memory                         ...   3000 MB

Electric properties:
Dipole moment                           ... YES
Quadrupole moment                       ...  NO
Static polarizability (Dipole/Dipole)   ...  NO
Static polarizability (Dipole/Quad.)    ...  NO
Static polarizability (Quad./Quad.)     ...  NO
Static polarizability (Velocity)        ...  NO
Static hyperpolarizability              ...  NO

Atomic electric properties:
Dipole moment                           ...  NO
Quadrupole moment                       ...  NO
Static polarizability                   ...  NO

Choice of electric origin               ... Center of mass
Position of electric origin             ...     0.027872     0.039055     0.014275

General magnetic properties:
Magnetizability                         ...  NO

EPR properties:
g-Tensor (aka g-matrix)                 ...  NO
Zero-Field splitting spin-orbit         ...  NO
Zero-field splitting spin-spin          ...  NO
Hyperfine couplings                     ...  NO (   0 nuclei)
Quadrupole couplings                    ...  NO (   0 nuclei)
Contact density                         ...  NO (   0 nuclei)

NMR properties:
Chemical shifts                         ...  NO (   0 nuclei)
Spin-rotation constants                 ...  NO (   0 nuclei)
Spin-spin couplings                     ...  NO (   0 nuclei,    0 pairs)

Choice of magnetic origin               ... GIAO
Position of magnetic origin             ...     0.000000     0.000000     0.000000

Properties with geometric perturbations:
SCF Hessian                             ...  NO
IR spectrum                             ...  NO
VCD spectrum                            ...  NO
X-ray spectroscopy properties:
SCF XES/XAS/RIXS spectra                ...  NO

SCF SOC stabilization energy            ...  NO
Diagonal Born-Oppenheimer correction    ...  NO

-------------
DIPOLE MOMENT
-------------

Method             : SCF
Type of density    : Electron Density
Multiplicity       :   1
Irrep              :   0
Energy             :  -990.8105175688580175 Eh
Basis              : AO
                                X                 Y                 Z
Electronic contribution:     -5.156072688      -4.208235731      -0.015094578
Nuclear contribution   :      6.179261674       5.041669180       0.018645980
                        -----------------------------------------
Total Dipole Moment    :      1.023188986       0.833433448       0.003551401
                        -----------------------------------------
Magnitude (a.u.)       :      1.319674061
Magnitude (Debye)      :      3.354344888



--------------------
Rotational spectrum 
--------------------
 
Rotational constants in cm-1:             0.008875             0.008531             0.004357 
Rotational constants in MHz :           266.075502           255.748443           130.616067 

Dipole components along the rotational axes: 
x,y,z [a.u.] :     1.319666    -0.004434     0.001535 
x,y,z [Debye]:     3.354324    -0.011271     0.003903 

 

Dipole moment calculation done in   0.0 sec 

Maximum memory used throughout the entire PROP-calculation: 84.4 MB

--------------------------------
SUGGESTED CITATIONS FOR THIS RUN
--------------------------------

Below you find a list of papers that are relevant to this ORCA run
We neither can nor want to force you to cite these papers, but we appreciate if you do
You receive ORCA, which is the product of decades of hard work by many enthusiastic individuals, for free
The only thing we kindly ask in return is that you cite our papers,
We deeply appreciate it, if you show your appreciation for ORCA by not just citing the generic ORCA reference.

Please note that relegating all ORCA citations to the supporting information does *not* help us.
SI sections are not indexed - citations you put there will not count into any citation statistics
But we need these citations in order to attract the funding resources that allow us to do what we are doing

Therefore, if you are a happy ORCA user, please consider citing a few of the papers listed below in the main body of your paper

In addition to the list printed below, the program has created the file tddft.bibtex that contains the list in bibtex format
You can import this file easily into all common literature databanks and citation aid programs

It goes without saying that in many instances, there are alternative algorithms to achieve similar
results as the ones you have gotten from ORCA. It is, of course, also the case that in some instances
ORCA just re-implements algorithms worked out by others. We are fully aware of that and we are also
fully appreciative of our colleagues work. Hence this citation list should not be read as indicating
that the listed papers, which are focused on our own work, are the only ones worth citing. It simply
meant to make it easier for users to cite ORCA specific papers. It is not a substitute for doing your
own literature research and citing the relevant literature in a scientifically appropriate manner.

List of essential papers. We consider these as the minimum necessary citations

  1. Neese, F.
     Software update: the ORCA program system, version 6.0
     WIRES Comput. Molec. Sci. 2025 15(1), e70019
     doi.org/10.1002/wcms.70019

List of papers to cite with high priority. The work reported in these papers was absolutely
necessary for this run to complete.
Our perspective: the developers of density functionals and basis sets usually get cited in chemistry papers
Good! But without the algorithms to do something with them, the functionals or basis sets would not do anything.
Hence, in our opinion, the algorithm design and method developments papers are equally worthy of getting cited

  1. Neese, F.; Olbrich, G.
     Efficient use of the resolution of the identity approximation in time-dependent density functional calculations with hybrid density functionals
     Chem. Phys. Lett. 2002 362 , 170-178
     doi.org/10.1016/s0009-2614(02)01053-9
  2. Neese, F.
     An improvement of the resolution of the identity approximation for the formation of the Coulomb matrix
     J. Comp. Chem. 2003 24(14), 1740-1747
     doi.org/10.1002/jcc.10318
  3. Neese, F.; Wennmohs, F.; Hansen, A.; Becker, U.
     Efficient, approximate and parallel Hartree-Fock and hybrid DFT calculations. A 'chain-of-spheres' algorithm for the Hartree-Fock exchange
     Chem. Phys. 2009 356(1-3), 98-109
     doi.org/10.1016/j.chemphys.2008.10.036
  4. Grimme, S.; Antony, J.; Ehrlich, S.; Krieg, H.
     A consistent and accurate ab initio parametrization of density functional dispersion correction (DFT-D) for the 94 elements H-Pu
     J. Chem. Phys. 2010 132 , 154104
     doi.org/10.1063/1.3382344
  5. Garcia-Rates, M.; Neese, F.
     Effect of the Solute Cavity on the Solvation Energy and its Derivatives within the Framework of the Gaussian Charge Scheme
     J. Comput. Chem. 2020 41 , 922-939
     doi.org/10.1002/jcc.26139
  6. Helmich-Paris, B.; de Souza, B.; Neese, F.; Izsák, R.
     An improved chain of spheres for exchange algorithm
     J. Chem. Phys. 2021 155(10), 104109
     doi.org/10.1063/5.0058766
  7. Neese, F.
     The SHARK Integral Generation and Digestion System
     J. Comp. Chem. 2022 44(3), 381
     doi.org/10.1002/jcc.26942

List of suggested additional citations. These are papers that are important in the 'surrounding' of 
of this run, or papers that preceded the highly important papers. If you like your results we are grateful for a citation.

  1. Izsak, R.; Neese, F.
     An overlap fitted chain of spheres exchange method
     J. Chem. Phys. 2011 135 , 144105
     doi.org/10.1063/1.3646921
  2. Izsak, R.; Hansen, A.; Neese, F.
     The resolution of identity and chain of spheres approximations for the LPNO-CCSD singles Fock term
     Molec. Phys. 2012 110 , 2413-2417
     doi.org/10.1080/00268976.2012.687466
  3. Neese, F.
     The ORCA program system
     WIRES Comput. Molec. Sci. 2012 2(1), 73-78
     doi.org/10.1002/wcms.81
  4. Izsak, R.; Neese, F.; Klopper, W.
     Robust fitting techniques in the chain of spheres approximation to the Fock exchange: The role of the complementary space
     J. Chem. Phys. 2013 139 , 
     doi.org/10.1063/1.4819264
  5. Neese, F.
     Software update: the ORCA program system, version 4.0
     WIRES Comput. Molec. Sci. 2018 8(1), 1-6
     doi.org/10.1002/wcms.1327
  6. Neese, F.; Wennmohs, F.; Becker, U.; Riplinger, C.
     The ORCA quantum chemistry program package
     J. Chem. Phys. 2020 152(22), 224108
     doi.org/10.1063/5.0004608
  7. Neese, F.
     Software update: The ORCA program system—Version 5.0
     WIRES Comput. Molec. Sci. 2022 12(1), e1606
     doi.org/10.1002/wcms.1606

List of optional additional citations

  1. Neese, F.
     Approximate second-order SCF convergence for spin unrestricted wavefunctions
     Chem. Phys. Lett. 2000 325(1-3), 93-98
     doi.org/10.1016/s0009-2614(00)00662-x

Timings for individual modules:

Sum of individual times          ...    16799.823 sec (= 279.997 min)
Startup calculation              ...       24.973 sec (=   0.416 min)   0.1 %
SCF iterations                   ...     1107.932 sec (=  18.466 min)   6.6 %
Property integrals               ...        2.310 sec (=   0.038 min)   0.0 %
Property calculations            ...        0.534 sec (=   0.009 min)   0.0 %
CIS module                       ...    15664.074 sec (= 261.068 min)  93.2 %
                             ****ORCA TERMINATED NORMALLY****
TOTAL RUN TIME: 0 days 4 hours 40 minutes 0 seconds 245 msec
