
                                 *****************
                                 * O   R   C   A *
                                 *****************

                                            #,                                       
                                            ###                                      
                                            ####                                     
                                            #####                                    
                                            ######                                   
                                           ########,                                 
                                     ,,################,,,,,                         
                               ,,#################################,,                 
                          ,,##########################################,,             
                       ,#########################################, ''#####,          
                    ,#############################################,,   '####,        
                  ,##################################################,,,,####,       
                ,###########''''           ''''###############################       
              ,#####''   ,,,,##########,,,,          '''####'''          '####       
            ,##' ,,,,###########################,,,                        '##       
           ' ,,###''''                  '''############,,,                           
         ,,##''                                '''############,,,,        ,,,,,,###''
      ,#''                                            '''#######################'''  
     '                                                          ''''####''''         
             ,#######,   #######,   ,#######,      ##                                
            ,#'     '#,  ##    ##  ,#'     '#,    #''#        ,####,    ,#,          
            ##       ##  ##   ,#'  ##            #'  '#       #'       ,# #          
            ##       ##  #######   ##           ,######,      #####,      #          
            '#,     ,#'  ##    ##  '#,     ,#' ,#      #,     #,   #      #          
             '#######'   ##     ##  '#######'  #'      '#     '####' #    #          



                #########################################################
                #                        -***-                          #
                #          Department of theory and spectroscopy        #
                #                                                       #
                #                      Frank Neese                      #
                #                                                       #
                #     Directorship, Architecture, Infrastructure        #
                #                    SHARK, DRIVERS                     #
                #        Core code/Algorithms in most modules           #
                #                                                       #
                #        Max Planck Institute fuer Kohlenforschung      #
                #                Kaiser Wilhelm Platz 1                 #
                #                 D-45470 Muelheim/Ruhr                 #
                #                      Germany                          #
                #                                                       #
                #                  All rights reserved                  #
                #                        -***-                          #
                #########################################################


                         Program Version 6.1.1  -  RELEASE   -
                                (GIT: $487d211c$)
                          ($2025-11-21 10:33:24 +0100$)


 With contributions from (in alphabetic order):
[Max-Planck-Institut fuer Kohlenforschung]                               
  Daniel Aravena         : Magnetic Suceptibility                        
  Michael Atanasov       : Ab Initio Ligand Field Theory (pilot matlab implementation)
  Alexander A. Auer      : GIAO ZORA, VPT2 properties, NMR spectrum      
  Ute Becker             : All parallelization in ORCA, NUMFREQ, NUMCALC 
  Giovanni Bistoni       : ED, misc. LED, open-shell LED, HFLD           
  Dmytro Bykov           : pre 5.0 version of the SCF Hessian            
  Marcos Casanova-Páez   : Triplet and SCS-CIS(D). UHF-(DLPNO)-IP/EA/STEOM-CCSD. UHF-CVS-IP/STEOM-CCSD   
  Vijay G. Chilkuri      : MRCI spin determinant printing, contributions to CSF-ICE 
  Pauline Colinet        : FMM embedding                                 
  Dipayan Datta          : RHF DLPNO-CCSD density                        
  Achintya Kumar Dutta   : EOM-CC, STEOM-CC                              
  Nicolas Foglia         : Exact transition moments, OPA infrastructure, MCD improvements    
  Dmitry Ganyushin       : Spin-Orbit,Spin-Spin,Magnetic field MRCI      
  Miquel Garcia-Rates    : C-PCM and meta-GGA Hessian, CCSD/C-PCM, Gaussian charge scheme 
  Tiago L. C. Gouveia    : GS-ROHF, GS-ROCIS                             
  Yang Guo               : DLPNO-NEVPT2, F12-NEVPT2, CIM, IAO-localization        
  Andreas Hansen         : Spin unrestricted coupled pair/coupled cluster methods 
  Ingolf Harden          : AUTO-CI MPn and infrastructure                
  Benjamin Helmich-Paris : MC-RPA, TRAH-(SCF,CASSCF), AVAS, COSX integrals, SCF dyn. polar., MC-PDFT, srDFT 
  Lee Huntington         : MR-EOM, pCC                                   
  Robert Izsak           : Overlap fitted RIJCOSX, COSX-SCS-MP3, EOM     
  Riya Kayal             : Wick's Theorem for AUTO-CI, AUTO-CI UHF-CCSDT 
  Emily Kempfer          : AUTO-CI RHF CISDT and CCSDT, approximate NEVPT4
  Christian Kollmar      : KDIIS, OOCD, Brueckner-CCSD(T), CCSD density, CASPT2, CASPT2-K, improved NEVPT2 
  Axel Koslowski         : Symmetry handling                             
  Simone Kossmann        : meta-GGA functionals, TD-DFT gradient, OOMP2, (MP2 Hessian; deprecated post 5.0) 
  Lucas Lang             : DCDCAS, Hyperfine gauge corrections, ICE-SOC+SSC
  Marvin Lechner         : AUTO-CI (C++ implementation), FIC-MRCC        
  Spencer Leger          : CASSCF response                               
  Dagmar Lenk            : GEPOL surface, SMD, ORCA-2-JSON               
  Dimitrios Liakos       : Extrapolation schemes; Compound Job, Property file
  Dimitrios Manganas     : Further ROCIS development; embedding schemes. LFT, Crystal Embedding 
  Dimitrios Pantazis     : SARC Basis sets                               
  Anastasios Papadopoulos: AUTO-CI, single reference methods and gradients 
  Taras Petrenko         : pre 6.0 DFT Hessian and TD-DFT gradient,  ECA, NRVS 
  Petra Pikulova         : Analytic Raman intensities                    
  Peter Pinski           : DLPNO-MP2, DLPNO-MP2 Gradient                 
  Shashank Vittal Rao    : ES-AILFT, MagRelax                            
  Christoph Reimann      : Effective Core Potentials                     
  Marius Retegan         : Local ZFS, SOC                                
  Christoph Riplinger    : Optimizer, TS searches, QM/MM, DLPNO-CCSD(T), (RO)-DLPNO pert. Triples 
  Michael Roemelt        : Original ROCIS implementation, recursive CI coupling coefficients
  Masaaki Saitow         : Open-shell DLPNO-CCSD energy and density      
  Barbara Sandhoefer     : DKH picture change effects                    
  Yorick L. A. Schmerwitz: GMF and freeze-and-release deltaSCF, NEB S-IDPP initial path                    
  Kantharuban Sivalingam : CASSCF convergence/infrastructure, NEVPT2, NEVPT3, NEVPT4(SD), FIC-MRCI and CEPA variants
  Bernardo de Souza      : ESD, SOC TD-DFT                               
  Georgi L. Stoychev     : AutoAux, RI-MP2 NMR, DLPNO-MP2 response, X2C  
  Van Anh Tran           : RI-MP2 g-tensors                              
  Willem Van den Heuvel  : Paramagnetic NMR                              
  Zikuan Wang            : NOTCH, Electric field optimization            
  Frank Wennmohs         : Technical directorship and infrastructure     
  Hang Xu                : AUTO-CI-Response properties                   
                                                                         
[FACCTs GmbH]                                                            
  Markus Bursch, Nicolas Foglia, Miquel Garcia-Rates, Ingolf Harden, Hagen Neugebauer, Anastasios Papadopoulos, 
  Christoph Riplinger, Bernardo de Souza, Georgi L. Stoychev                                                    
                                                                 
  APM, various basis sets, CI-OPT, improved COSX, DLPNO-Multilevel,           
  DOCKER, DRACO, updates on ESD, Fragmentator, GOAT, IRC, LR-CPCM, L-BFGS, MBIS, meta-GGA TD-DFT gradient, ML-optimized integration grids, 
  MM, NACMEs, nearIR, NEB, NEB-TS, NL-DFT gradient (VV10), 2- and 3-layer-ONIOM, interface openCOSMO-RS, QMMM,   
  Crystal-QMMM, RESP, rigid body optimization, SF, symmetry and pop. for TD-DFT, various functionals, SOLVATOR                                   
                                                                         
[Other institutions]                                                     
  V. Asgeirsson          : NEB                                           
  Christoph Bannwarth    : sTDA-DFT, sTD-DFT, PBEh-3c, B97-3c, D3        
  Giovanni Bistoni       : ETS/NOCV, ADLD/ADEX, COVALED                  
  Martin Brehm           : Molecular dynamics                            
  Ronald Cardenas        : ETS/NOCV                                      
  Martina Colucci        : COVALED                                       
  Sebastian Ehlert       : rSCAN, r2SCAN, r2SCAN-3c, D4, dhf basis sets  
  Marvin Friede          : D4 for Fr, Ra, Ac-Lr                          
  Lars Goerigk           : TD-DFT with DH, B97 family of functionals     
  Stefan Grimme          : VdW corrections, initial TS optimization, DFT functionals, gCP, sTDA/sTD-DF 
  Waldemar Hujo          : DFT-NL                                        
  H. Jonsson             : NEB                                           
  Holger Kruse           : gCP                                           
  Marcel Mueller         : wB97X-3c, vDZP basis set                      
  Hagen Neugebauer       : wr2SCAN, Native XTB                           
  Gianluca Regni         : ADLD/ADEX                                     
  Tobias Risthaus        : pre 6.0 range-separated hybrid DFT and stability analysis
  Lukas Wittmann         : regularized MP2, r2SCAN double-hybrids, wr2SCAN        
                                                                         
We gratefully acknowledge several colleagues who have allowed us to      
interface, adapt or use parts of their codes:                            
  Ed Valeev, F. Pavosevic, A. Kumar             : LibInt (2-el integral package), F12 methods 
  Garnet Chan, S. Sharma, J. Yang, R. Olivares  : DMRG                   
  Ulf Ekstrom                                   : XCFun DFT Library      
  Mihaly Kallay                                 : mrcc  (arbitrary order and MRCC methods)
  Frank Weinhold                                : gennbo (NPA and NBO analysis)           
  Simon Mueller                                 : openCOSMO-RS                            
  Christopher J. Cramer and Donald G. Truhlar   : smd solvation model                     
  S Lehtola, MJT Oliveira, MAL Marques          : LibXC Library                           
  Liviu Ungur et al                             : ANISO software                          


 Your calculation uses the libint2 library for the computation of 2-el integrals
 For citations please refer to: http://libint.valeyev.net

 Your ORCA version has been built with support for libXC version: 7.0.0
 For citations please refer to: https://libxc.gitlab.io

 This ORCA versions uses:
   CBLAS   interface :  Fast vector & matrix operations
   LAPACKE interface :  Fast linear algebra routines
   SCALAPACK package :  Parallel linear algebra routines
   Shared memory     :  Shared parallel matrices
   BLAS/LAPACK       :  OpenBLAS 0.3.29  USE64BITINT DYNAMIC_ARCH NO_AFFINITY Haswell SINGLE_THREADED
        Core in use  :  Haswell
   Copyright (c) 2011-2014, The OpenBLAS Project


  ***********************************
  * Starting time: Sat Jul  4 18:05:06 2026
  * Host name:     steezy
  * Process ID:    1141197
  * Working dir.:  /home/jannes/chlorophyll-ladder/006-core-ladder/chlorin/03_tddft_ch2cl2/tpss
  ***********************************

NOTE: MaxCore=3000 MB was set to SCF,MP2,MDCI,CIPSI,MRCI,RASCI and CIS
      => If you want to overwrite this, your respective input block should be placed after the MaxCore statement


***************************************
The coordinates will be read from file: /home/jannes/chlorophyll-ladder/006-core-ladder/chlorin/01_opt/chlorin_opt_b3lypd4_tzvp.xyz
***************************************


================================================================================

----- Orbital basis set information -----
Your calculation utilizes the basis: def2-TZVP
   F. Weigend and R. Ahlrichs, Phys. Chem. Chem. Phys. 7, 3297 (2005).

----- AuxJ basis set information -----
Your calculation utilizes the auxiliary basis: def2/J
   H-Rn: F. Weigend, Phys. Chem. Chem. Phys. 8, 1057 (2006).
   Fr-Lr: K. Eichkorn, F. Weigend, O. Treutler, R. Ahlrichs; Theor. Chem. Acc. 97, 119 (1997).

================================================================================
                                        WARNINGS
                       Please study these warnings very carefully!
================================================================================

WARNING: Old DensityContainer found on disk!
         Will remove this file - 
         If you want to keep old densities, please start your calculation with a different basename. 



WARNING: Found flag for RIJCOSX approximation but no HF exchange needed!
  ===> : RIJCOSX  will be disabled and Split-RI-J is turned on

WARNING: CIS/ROCIS methods need fully converged wavefunctions
  ===> : Setting SCFConvForced true
         You can overwrite this default with %scf ConvForced false 


================================================================================
                                       INPUT FILE
================================================================================
NAME = tddft.inp
|  1> %pal nprocs 4 end
|  2> %maxcore 3000
|  3> ! TPSS def2-TZVP def2/J RIJCOSX DefGrid3 TightSCF CPCM(CH2Cl2)
|  4> %tddft
|  5>   nroots 30
|  6>   tda false
|  7>   triplets false
|  8> end
|  9> * xyzfile 0 1 /home/jannes/chlorophyll-ladder/006-core-ladder/chlorin/01_opt/chlorin_opt_b3lypd4_tzvp.xyz
| 10> 
| 11>                          ****END OF INPUT****
================================================================================

                       ****************************
                       * Single Point Calculation *
                       ****************************

---------------------------------
CARTESIAN COORDINATES (ANGSTROEM)
---------------------------------
  N      1.618227    1.329539    0.010388
  N     -1.347453    1.611774   -0.002562
  N      1.299801   -1.633340    0.016623
  N     -1.594487   -1.292971    0.004403
  C      2.883781    3.350039   -0.011841
  C      3.851475    2.163431    0.042672
  C      1.523344    2.671646   -0.001121
  C      2.913786    0.967045    0.025095
  C      0.347597    3.398417   -0.007862
  C      3.389899   -0.330654    0.029706
  C     -0.962451    2.916936   -0.005688
  C      2.655655   -1.517560    0.022965
  C     -2.719608    1.507344   -0.001102
  C      0.922713   -2.956749    0.011975
  C     -2.159571    3.698056   -0.005314
  C      3.181168   -2.846885    0.021102
  C     -3.225682    2.840557   -0.002326
  C      2.127534   -3.719625    0.014237
  C     -3.433390    0.324889    0.000791
  C     -0.378790   -3.419108    0.006952
  C     -2.915388   -0.973209    0.002604
  C     -1.546550   -2.651173    0.004333
  C     -3.736898   -2.165706    0.001564
  C     -2.879748   -3.216467    0.002261
  H      3.006350    3.950792   -0.915543
  H      2.991185    4.026676    0.837789
  H      4.461299    2.159809    0.948624
  H      4.539467    2.135032   -0.804231
  H      0.441481    4.477104   -0.014399
  H      4.465522   -0.454657    0.038870
  H     -0.727891    0.815001   -0.008146
  H      0.642943   -0.867003    0.022426
  H     -2.180284    4.775793   -0.006376
  H      4.232912   -3.083014    0.023985
  H     -4.273839    3.092971   -0.000559
  H      2.164848   -4.797103    0.010566
  H     -4.511820    0.421664    0.000686
  H     -0.499907   -4.495064    0.005089
  H     -4.816074   -2.182825    0.000119
  H     -3.113257   -4.270204    0.001847

----------------------------
CARTESIAN COORDINATES (A.U.)
----------------------------
  NO LB      ZA    FRAG     MASS         X           Y           Z
   0 N     7.0000    0    14.007    3.058005    2.512465    0.019630
   1 N     7.0000    0    14.007   -2.546317    3.045812   -0.004842
   2 N     7.0000    0    14.007    2.456268   -3.086566    0.031414
   3 N     7.0000    0    14.007   -3.013143   -2.443361    0.008320
   4 C     6.0000    0    12.011    5.449556    6.330657   -0.022376
   5 C     6.0000    0    12.011    7.278233    4.088291    0.080639
   6 C     6.0000    0    12.011    2.878702    5.048679   -0.002119
   7 C     6.0000    0    12.011    5.506257    1.827451    0.047422
   8 C     6.0000    0    12.011    0.656864    6.422078   -0.014857
   9 C     6.0000    0    12.011    6.405982   -0.624846    0.056137
  10 C     6.0000    0    12.011   -1.818769    5.512210   -0.010750
  11 C     6.0000    0    12.011    5.018461   -2.867773    0.043397
  12 C     6.0000    0    12.011   -5.139315    2.848467   -0.002082
  13 C     6.0000    0    12.011    1.743676   -5.587446    0.022630
  14 C     6.0000    0    12.011   -4.080998    6.988313   -0.010042
  15 C     6.0000    0    12.011    6.011537   -5.379833    0.039877
  16 C     6.0000    0    12.011   -6.095656    5.367875   -0.004396
  17 C     6.0000    0    12.011    4.020456   -7.029073    0.026903
  18 C     6.0000    0    12.011   -6.488167    0.613952    0.001495
  19 C     6.0000    0    12.011   -0.715809   -6.461177    0.013137
  20 C     6.0000    0    12.011   -5.509286   -1.839098    0.004922
  21 C     6.0000    0    12.011   -2.922556   -5.009990    0.008188
  22 C     6.0000    0    12.011   -7.061713   -4.092591    0.002955
  23 C     6.0000    0    12.011   -5.441934   -6.078243    0.004272
  24 H     1.0000    0     1.008    5.681179    7.465915   -1.730125
  25 H     1.0000    0     1.008    5.652521    7.609315    1.583193
  26 H     1.0000    0     1.008    8.430634    4.081448    1.792639
  27 H     1.0000    0     1.008    8.578349    4.034626   -1.519777
  28 H     1.0000    0     1.008    0.834279    8.460500   -0.027211
  29 H     1.0000    0     1.008    8.438614   -0.859177    0.073454
  30 H     1.0000    0     1.008   -1.375514    1.540128   -0.015393
  31 H     1.0000    0     1.008    1.214987   -1.638398    0.042380
  32 H     1.0000    0     1.008   -4.120140    9.024942   -0.012049
  33 H     1.0000    0     1.008    7.999044   -5.826052    0.045325
  34 H     1.0000    0     1.008   -8.076386    5.844869   -0.001056
  35 H     1.0000    0     1.008    4.090969   -9.065210    0.019967
  36 H     1.0000    0     1.008   -8.526105    0.796830    0.001296
  37 H     1.0000    0     1.008   -0.944687   -8.494440    0.009617
  38 H     1.0000    0     1.008   -9.101061   -4.124942    0.000224
  39 H     1.0000    0     1.008   -5.883202   -8.069517    0.003490

--------------------------------
INTERNAL COORDINATES (ANGSTROEM)
--------------------------------
 N      0   0   0     0.000000000000     0.00000000     0.00000000
 N      1   0   0     2.979107177231     0.00000000     0.00000000
 N      1   2   0     2.979947476934    89.30270164     0.00000000
 N      3   1   2     2.914258339345    89.42644009     0.00000000
 C      1   2   3     2.384228044724   116.62082965   179.40054417
 C      5   1   2     1.532137048104    71.25200580   178.57442373
 C      1   2   3     1.345506053350    80.51805744   179.66763356
 C      1   2   3     1.345396342678   169.79818117   357.97022523
 C      7   1   2     1.382252298681   125.76656227     0.17933523
 C      8   1   7     1.382291464764   125.77894989   180.51229001
 C      2   1   3     1.360765532472    79.00182392   180.05957653
 C      3   1   2     1.360803573136    78.98578119   180.04479993
 C      2   1   3     1.376124714725   170.20659592     1.67778072
 C      3   1   2     1.376091434139   170.22494378     1.58550169
 C     11   2   1     1.429421146210   106.68913671   180.33444041
 C     12   3   1     1.429430588850   106.68868640   180.33209544
 C     15  11   2     1.368176069028   108.06500929     0.00000000
 C     16  12   3     1.368162905847   108.06552163   359.97694271
 C     13   2  11     1.381190206413   125.46928608   179.93536477
 C     14   3  12     1.381199138498   125.46211356   179.90588073
 C      4   3   1     1.359055651912   173.09697396   358.52859573
 C      4   3   1     1.359047366731    81.27152327   179.84264952
 C     21   4  22     1.448077190214   110.95462463     0.00000000
 C     23  21   4     1.356026040736   106.23152882     0.00000000
 H      5   1   2     1.092064297682   122.24060148   284.00745698
 H      5   1   2     1.091441479244   124.77447848    73.14241516
 H      6   5   1     1.092083663892   112.62948738   242.06014622
 H      6   5   1     1.091505582205   112.99487653   120.72109284
 H      9   7   1     1.082784308159   116.74849562   179.84380395
 H     10   8   1     1.082785443229   116.72449600   179.81241072
 H      2   1   3     1.009324809386    46.69870077   359.20679780
 H      3   1   2     1.009340734249    46.73724690   359.18425706
 H     15  11   2     1.077936930670   124.22541381   179.93656368
 H     16  12   3     1.077928105275   124.22340859   179.93499516
 H     17  15  11     1.078122825118   127.64953771   179.95286184
 H     18  16  12     1.078129368274   127.65243145   179.96019912
 H     19  13   2     1.082763583588   115.98919081   180.06319439
 H     20  14   3     1.082753468896   115.98031610   180.08105506
 H     23  21   4     1.079313067754   125.47173418   179.99943943
 H     24  23  21     1.079299692791   128.29953999   179.99981198

---------------------------
INTERNAL COORDINATES (A.U.)
---------------------------
 N      0   0   0     0.000000000000     0.00000000     0.00000000
 N      1   0   0     5.629696688565     0.00000000     0.00000000
 N      1   2   0     5.631284624876    89.30270164     0.00000000
 N      3   1   2     5.507150144858    89.42644009     0.00000000
 C      1   2   3     4.505538045342   116.62082965   179.40054417
 C      5   1   2     2.895319420551    71.25200580   178.57442373
 C      1   2   3     2.542637952364    80.51805744   179.66763356
 C      1   2   3     2.542430629240   169.79818117   357.97022523
 C      7   1   2     2.612078292490   125.76656227     0.17933523
 C      8   1   7     2.612152305660   125.77894989   180.51229001
 C      2   1   3     2.571474188851    79.00182392   180.05957653
 C      3   1   2     2.571546075289    78.98578119   180.04479993
 C      2   1   3     2.600498836950   170.20659592     1.67778072
 C      3   1   2     2.600435945757   170.22494378     1.58550169
 C     11   2   1     2.701214496373   106.68913671   180.33444041
 C     12   3   1     2.701232340376   106.68868640   180.33209544
 C     15  11   2     2.585478073448   108.06500929     0.00000000
 C     16  12   3     2.585453198641   108.06552163   359.97694271
 C     13   2  11     2.610071228975   125.46928608   179.93536477
 C     14   3  12     2.610088108170   125.46211356   179.90588073
 C      4   3   1     2.568242982872   173.09697396   358.52859573
 C      4   3   1     2.568227326149    81.27152327   179.84264952
 C     21   4  22     2.736469310283   110.95462463     0.00000000
 C     23  21   4     2.562517847457   106.23152882     0.00000000
 H      5   1   2     2.063702443253   122.24060148   284.00745698
 H      5   1   2     2.062525486972   124.77447848    73.14241516
 H      6   5   1     2.063739040086   112.62948738   242.06014622
 H      6   5   1     2.062646624014   112.99487653   120.72109284
 H      9   7   1     2.046165804527   116.74849562   179.84380395
 H     10   8   1     2.046167949498   116.72449600   179.81241072
 H      2   1   3     1.907347469912    46.69870077   359.20679780
 H      3   1   2     1.907377563542    46.73724690   359.18425706
 H     15  11   2     2.037005588605   124.22541381   179.93656368
 H     16  12   3     2.036988911026   124.22340859   179.93499516
 H     17  15  11     2.037356878203   127.64953771   179.95286184
 H     18  16  12     2.037369242976   127.65243145   179.96019912
 H     19  13   2     2.046126640764   115.98919081   180.06319439
 H     20  14   3     2.046107526767   115.98031610   180.08105506
 H     23  21   4     2.039606110817   125.47173418   179.99943943
 H     24  23  21     2.039580835801   128.29953999   179.99981198

---------------------
BASIS SET INFORMATION
---------------------
There are 3 groups of distinct atoms

 Group   1 Type N   : 11s6p2d1f contracted to 5s3p2d1f pattern {62111/411/11/1}
 Group   2 Type C   : 11s6p2d1f contracted to 5s3p2d1f pattern {62111/411/11/1}
 Group   3 Type H   : 5s1p contracted to 3s1p pattern {311/1}

Atom   0N    basis set group =>   1
Atom   1N    basis set group =>   1
Atom   2N    basis set group =>   1
Atom   3N    basis set group =>   1
Atom   4C    basis set group =>   2
Atom   5C    basis set group =>   2
Atom   6C    basis set group =>   2
Atom   7C    basis set group =>   2
Atom   8C    basis set group =>   2
Atom   9C    basis set group =>   2
Atom  10C    basis set group =>   2
Atom  11C    basis set group =>   2
Atom  12C    basis set group =>   2
Atom  13C    basis set group =>   2
Atom  14C    basis set group =>   2
Atom  15C    basis set group =>   2
Atom  16C    basis set group =>   2
Atom  17C    basis set group =>   2
Atom  18C    basis set group =>   2
Atom  19C    basis set group =>   2
Atom  20C    basis set group =>   2
Atom  21C    basis set group =>   2
Atom  22C    basis set group =>   2
Atom  23C    basis set group =>   2
Atom  24H    basis set group =>   3
Atom  25H    basis set group =>   3
Atom  26H    basis set group =>   3
Atom  27H    basis set group =>   3
Atom  28H    basis set group =>   3
Atom  29H    basis set group =>   3
Atom  30H    basis set group =>   3
Atom  31H    basis set group =>   3
Atom  32H    basis set group =>   3
Atom  33H    basis set group =>   3
Atom  34H    basis set group =>   3
Atom  35H    basis set group =>   3
Atom  36H    basis set group =>   3
Atom  37H    basis set group =>   3
Atom  38H    basis set group =>   3
Atom  39H    basis set group =>   3
---------------------------------
AUXILIARY/J BASIS SET INFORMATION
---------------------------------
There are 3 groups of distinct atoms

 Group   1 Type N   : 12s5p4d2f1g contracted to 6s4p3d1f1g pattern {711111/2111/211/2/1}
 Group   2 Type C   : 12s5p4d2f1g contracted to 6s4p3d1f1g pattern {711111/2111/211/2/1}
 Group   3 Type H   : 5s2p1d contracted to 3s1p1d pattern {311/2/1}

Atom   0N    basis set group =>   1
Atom   1N    basis set group =>   1
Atom   2N    basis set group =>   1
Atom   3N    basis set group =>   1
Atom   4C    basis set group =>   2
Atom   5C    basis set group =>   2
Atom   6C    basis set group =>   2
Atom   7C    basis set group =>   2
Atom   8C    basis set group =>   2
Atom   9C    basis set group =>   2
Atom  10C    basis set group =>   2
Atom  11C    basis set group =>   2
Atom  12C    basis set group =>   2
Atom  13C    basis set group =>   2
Atom  14C    basis set group =>   2
Atom  15C    basis set group =>   2
Atom  16C    basis set group =>   2
Atom  17C    basis set group =>   2
Atom  18C    basis set group =>   2
Atom  19C    basis set group =>   2
Atom  20C    basis set group =>   2
Atom  21C    basis set group =>   2
Atom  22C    basis set group =>   2
Atom  23C    basis set group =>   2
Atom  24H    basis set group =>   3
Atom  25H    basis set group =>   3
Atom  26H    basis set group =>   3
Atom  27H    basis set group =>   3
Atom  28H    basis set group =>   3
Atom  29H    basis set group =>   3
Atom  30H    basis set group =>   3
Atom  31H    basis set group =>   3
Atom  32H    basis set group =>   3
Atom  33H    basis set group =>   3
Atom  34H    basis set group =>   3
Atom  35H    basis set group =>   3
Atom  36H    basis set group =>   3
Atom  37H    basis set group =>   3
Atom  38H    basis set group =>   3
Atom  39H    basis set group =>   3

Checking for AutoStart:
The File: tddft.gbw exists
Trying to determine its content:
     ... Fine, the file contains calculation information
     ... Fine, the calculation information was read
     ... Fine, the file contains a basis set
     ... Fine, the basis set was read
     ... Fine, the file contains a geometry
     ... Fine, the geometry was read
     ... Fine, the file contains a set of orbitals
     ... Fine, the orbitals can be read
     => possible old guess file was deleted
     => GBW file was renamed to GES file
     => GES file is set as startup file
     => Guess is set to MORead
     ... now leaving AutoStart



           ************************************************************
           *        Program running with 4 parallel MPI-processes     *
           *              working on a common directory               *
           ************************************************************
------------------------------------------------------------------------------
                             ORCA STARTUP CALCULATIONS
                           -- RI-GTO INTEGRALS CHOSEN --
------------------------------------------------------------------------------
------------------------------------------------------------------------------
                   ___                                                        
                  /   \      - P O W E R E D   B Y -                         
                 /     \                                                     
                 |  |  |   _    _      __       _____    __    __             
                 |  |  |  | |  | |    /  \     |  _  \  |  |  /  |          
                  \  \/   | |  | |   /    \    | | | |  |  | /  /          
                 / \  \   | |__| |  /  /\  \   | |_| |  |  |/  /          
                |  |  |   |  __  | /  /__\  \  |    /   |      \           
                |  |  |   | |  | | |   __   |  |    \   |  |\   \          
                \     /   | |  | | |  |  |  |  | |\  \  |  | \   \       
                 \___/    |_|  |_| |__|  |__|  |_| \__\ |__|  \__/        
                                                                              
                      - O R C A' S   B I G   F R I E N D -                    
                                      &                                       
                       - I N T E G R A L  F E E D E R -                       
                                                                              
 v1 FN, 2020, v2 2021, v3 2022-2024                                           
------------------------------------------------------------------------------


----------------------
SHARK INTEGRAL PACKAGE
----------------------

Number of atoms                             ...     40
Number of basis functions                   ...    840
Number of shells                            ...    328
Maximum angular momentum                    ...      3
Integral batch strategy                     ... SHARK/LIBINT Hybrid
RI-J (if used) integral strategy            ... SPLIT-RIJ (Revised 2003 algorithm where possible)
Printlevel                                  ...      1
Contraction scheme used                     ... SEGMENTED contraction
Prescreening option                         ... SCHWARTZ
   Thresh                                   ... 2.500e-11
   Tcut                                     ... 2.500e-12
   Tpresel                                  ... 2.500e-12 
Coulomb Range Separation                    ... NOT USED
Exchange Range Separation                   ... NOT USED
Multipole approximations                    ... NOT USED
Finite Nucleus Model                        ... NOT USED
CABS basis                                  ... NOT available
Auxiliary Coulomb fitting basis             ... AVAILABLE
   # of basis functions in Aux-J            ...   1352
   # of shells in Aux-J                     ...    440
   Maximum angular momentum in Aux-J        ...      4
Auxiliary J/K fitting basis                 ... NOT available
Auxiliary Correlation fitting basis         ... NOT available
Auxiliary 'external' fitting basis          ... NOT available

Checking pre-screening integrals            ... done (  0.0 sec) Dimension = 328
   => SHARK Basis and OBASIS are compatible. Storing Pre-screening
Shell pair information
Shell pair cut-off parameter TPreSel        ...   2.5e-12
Total number of shell pairs                 ...     53956
Shell pairs after pre-screening             ...     37824
Total number of primitive shell pairs       ...    166752
Primitive shell pairs kept                  ...     76791
          la=0 lb=0:   9536 shell pairs
          la=1 lb=0:  10889 shell pairs
          la=1 lb=1:   3113 shell pairs
          la=2 lb=0:   5384 shell pairs
          la=2 lb=1:   3181 shell pairs
          la=2 lb=2:    840 shell pairs
          la=3 lb=0:   2501 shell pairs
          la=3 lb=1:   1492 shell pairs
          la=3 lb=2:    718 shell pairs
          la=3 lb=3:    170 shell pairs

Checking whether 4 symmetric matrices of dimension 840 fit in memory
:Max Core in MB      =   3000.00
 MB in use           =     49.17
 MB left             =   2950.83
 MB needed           =     10.78
 Data fit in memory  = YES
Calculating RI/J V-Matrix + Cholesky decomp.... done (  0.3 sec)
Calculating Nuclear repulsion               ... done (  0.0 sec) ENN=   1892.562551637881 Eh

Diagonalization of the overlap matrix:
Smallest eigenvalue                        ... 1.002e-05
Time for diagonalization                   ...    0.336 sec
Threshold for overlap eigenvalues          ... 1.000e-07
Number of eigenvalues below threshold      ... 0
Time for construction of square roots      ...    0.143 sec
Total time needed                          ...    0.505 sec

-------------------
DFT GRID GENERATION
-------------------

General Integration Accuracy     IntAcc      ... 4.959
Radial Grid Type                 RadialGrid  ... OptM3 with GC (2021)
Angular Grid (max. ang.)         AngularGrid ... 6 (Lebedev-590)
Angular grid pruning method      GridPruning ... 4 (adaptive)
Weight generation scheme         WeightScheme... mBecke (2022)
Basis function cutoff            BFCut       ... 1.0000e-11
Integration weight cutoff        WCut        ... 1.0000e-14
Partially contracted basis set               ... off
Rotationally invariant grid construction     ... off
Angular grids for H and He will be reduced by one unit

Total number of grid points                  ...   475615
Total number of batches                      ...     7453
Average number of points per batch           ...       63
Average number of grid points per atom       ...    11890
Grids setup in  12.2 sec
Initializing property integral containers    ... done (  0.0 sec)

SHARK setup successfully completed in  14.4 seconds

Maximum memory used throughout the entire STARTUP-calculation: 151.3 MB


           ************************************************************
           *        Program running with 4 parallel MPI-processes     *
           *              working on a common directory               *
           ************************************************************
-------------------------------------------------------------------------------
                                 ORCA GUESS
                   Start orbitals & Density for SCF / CASSCF
-------------------------------------------------------------------------------

------------
SCF SETTINGS
------------
Hamiltonian:
 Density Functional     Method          .... DFT(GTOs)
 Exchange Functional    Exchange        .... TPSS
 Correlation Functional Correlation     .... TPSS
 LDA part of GGA corr.  LDAOpt          .... PW91-LDA
 Gradients option       PostSCFGGA      .... off
   NL short-range parameter             ....  5.000000
 RI-approximation to the Coulomb term is turned on
   Number of AuxJ basis functions       .... 1352


General Settings:
 Integral files         IntName         .... tddft
 Hartree-Fock type      HFTyp           .... RHF
 Total Charge           Charge          ....    0
 Multiplicity           Mult            ....    1
 Number of Electrons    NEL             ....  164
 Basis Dimension        Dim             ....  840
 Nuclear Repulsion      ENuc            ....   1892.5625516379 Eh

Convergence Acceleration:
 AO-DIIS                CNVDIIS         .... on
   Start iteration      DIISMaxIt       ....    12
   Startup error        DIISStart       ....  0.200000
   # of expansion vecs  DIISMaxEq       ....     5
   Bias factor          DIISBfac        ....   1.050
   Max. coefficient     DIISMaxC        ....  10.000
 MO-DIIS                CNVKDIIS        .... off
 Trust-Rad. Augm. Hess. CNVTRAH         .... auto
   Auto Start mean grad. ratio tolernc. ....  1.125000
   Auto Start start iteration           ....     1
   Auto Start num. interpolation iter.  ....    10
   Max. Number of Micro iterations      ....    24
   Max. Number of Macro iterations      .... Maxiter - #DIIS iter
   Number of Davidson start vectors     ....     2
   Converg. threshold    (grad. norm)   ....   1.000e-05
   Grad. Scal. Fac. for Micro threshold ....   0.100
   Minimum threshold for Micro iter.    ....   1.000e-02
   NR start threshold (gradient norm)   ....   1.000e-04
   Initial trust radius                 ....   0.400
   Minimum AH scaling param. (alpha)    ....   1.000
   Maximum AH scaling param. (alpha)    .... 1000.000
   Quad. conv. algorithm                .... NR
   White noise on init. David. guess    .... on
   Maximum white noise                  ....   0.010
   Pseudo random numbers                .... off
   Inactive MOs                         .... canonical
   Orbital update algorithm             .... Taylor
   Preconditioner                       .... Diag
   Full preconditioner red. dimension   ....   250
 SOSCF                 CNVSOSCF           .... on
   Start iteration     SOSCFMaxIt         ....   150
   Startup grad/error  SOSCFStart         ....  0.003300
   Hessian update      SOSCFHessUp        .... L-BFGS
   Autom. constraints  SOSCFAutoConstrain .... off
 Level Shifting         CNVShift        .... on
   Level shift para.    LevelShift      ....    0.2500
   Turn off err/grad.   ShiftErr        ....    0.0010
 Zerner damping         CNVZerner       .... off
 Static damping         CNVDamp         .... on
   Fraction old density DampFac         ....    0.7000
   Max. Damping (<1)    DampMax         ....    0.9800
   Min. Damping (>=0)   DampMin         ....    0.0000
   Turn off err/grad.   DampErr         ....    0.1000

SCF Procedure:
 Maximum # iterations   MaxIter         ....   125
 SCF integral mode      SCFMode         .... Direct
   Integral package                     .... SHARK and LIBINT hybrid scheme
 Reset frequency        DirectResetFreq ....    20
 Integral Threshold     Thresh          ....  2.500e-11 Eh
 Primitive CutOff       TCut            ....  2.500e-12 Eh

Convergence Tolerance:
 Convergence Check Mode ConvCheckMode   .... Total+1el-Energy
 Convergence forced     ConvForced      .... 1
 Energy Change          TolE            ....  1.000e-08 Eh
 1-El. energy change                    ....  1.000e-05 Eh
 Orbital Gradient       TolG            ....  1.000e-05
 Orbital Rotation angle TolX            ....  1.000e-05
 DIIS Error             TolErr          ....  5.000e-07

---------------------
INITIAL GUESS: MOREAD
---------------------
Guess MOs are being read from file: tddft.ges
Input Geometry matches current geometry (good)
Input basis set matches current basis set (good)
Occupation numbers will be reassigned to an Aufbau configuration
MOs were renormalized
MOs were reorthogonalized (Cholesky)
                      ------------------
                      INITIAL GUESS DONE (   1.0 sec)
                      ------------------
             **** ENERGY FILE WAS UPDATED (tddft.en.tmp) ****
Finished Guess after   1.7 sec
Maximum memory used throughout the entire GUESS-calculation: 93.0 MB


           ************************************************************
           *        Program running with 4 parallel MPI-processes     *
           *              working on a common directory               *
           ************************************************************

-------------------------------------------------------------------------------------------
                                      ORCA LEAN-SCF
                              memory conserving SCF solver
-------------------------------------------------------------------------------------------

--------------------
CPCM SOLVATION MODEL
--------------------
CPCM parameters:
  Epsilon                                         ...       8.9990
  Refrac                                          ...       1.4242
  Rsolv                                           ...       1.3000
  Surface type                                    ... GAUSSIAN VDW
  Discretization scheme                           ... Constant charge density
    Threshold for H atoms                         ...       5.0000 (charges/Ang^2)
    Threshold for non-H atoms                     ...       5.0000 (charges/Ang^2)
  Epsilon function type                           ...         CPCM
Solvent:                                          ... DICHLOROMETHANE
Radii:
  Scheme                                          ... Element-dependent radii
  Radius for N  used is    3.5149 Bohr (=   1.8600 Ang.)
  Radius for C  used is    3.8550 Bohr (=   2.0400 Ang.)
  Radius for H  used is    2.4944 Bohr (=   1.3200 Ang.)
Calculating surface                               ...        done! (  0.0s)
Cavity surface points                             ...         3539
Cavity Volume                                     ...    2470.9683
Cavity Surface-area                               ...    1207.5649
Calculating surface distance matrix               ...        done! (  0.3s)
Performing Cholesky decomposition & store         ...        done! (  0.9s)
Overall time for CPCM initialization              ...                 1.2s

----------------------------------------D-I-I-S--------------------------------------------
Iteration    Energy (Eh)           Delta-E    RMSDP     MaxDP     DIISErr   Damp  Time(sec)
-------------------------------------------------------------------------------------------
               ***  Starting incremental Fock matrix formation  ***
                              *** Initializing SOSCF ***
---------------------------------------S-O-S-C-F--------------------------------------
Iteration    Energy (Eh)           Delta-E    RMSDP     MaxDP     MaxGrad    Time(sec)
--------------------------------------------------------------------------------------
    1    -991.3191288734806221     0.00e+00  6.46e-06  2.00e-04  4.68e-06    31.4
               *** Restarting incremental Fock matrix formation ***
    2    -991.3191288748967054    -1.42e-09  1.39e-06  3.91e-05  4.57e-06    29.9
    3    -991.3191288618954786     1.30e-08  2.51e-06  1.11e-04  7.99e-06    17.1
    4    -991.3191288587286181     3.17e-09  5.83e-06  2.75e-04  8.27e-07    18.0
                 **** Energy Check signals convergence ****

               *****************************************************
               *                     SUCCESS                       *
               *           SCF CONVERGED AFTER   4 CYCLES          *
               *****************************************************

             **** ENERGY FILE WAS UPDATED (tddft.en.tmp) ****

----------------
TOTAL SCF ENERGY
----------------

Total Energy       :       -991.31912887632507 Eh          -26975.16489 eV

Components:
Nuclear Repulsion  :       1892.56255163788092 Eh           51499.24520 eV
Electronic Energy  :      -2883.86697982293435 Eh          -78474.01006 eV
One Electron Energy:      -5103.34978865916855 Eh         -138869.20772 eV
Two Electron Energy:       2219.48280883623420 Eh           60395.19766 eV
CPCM Dielectric    :         -0.01470069127143 Eh              -0.40003 eV

Virial components:
Potential Energy   :      -1978.66153516883423 Eh          -53842.11765 eV
Kinetic Energy     :        987.34240629250917 Eh           26866.95276 eV
Virial Ratio       :          2.00402770361981

DFT components:
N(Alpha)           :       81.999987718275 electrons
N(Beta)            :       81.999987718275 electrons
N(Total)           :      163.999975436550 electrons
E(X)               :     -137.232625809681 Eh       
E(C)               :       -5.548790783189 Eh       
E(XC)              :     -142.781416592869 Eh       

CPCM Solvation Model Properties:
Surface-charge          :         -0.03572138025172
Corrected charge        :         -0.00000000000000
Outlying charge corr.   :          0.00006063372082 Eh               0.00165 eV
Free-energy (cav+disp)  :  This term is not implemented in the current solvation scheme

---------------
SCF CONVERGENCE
---------------

  Last Energy change         ...   -3.1669e-09  Tolerance :   1.0000e-08
  Last MAX-Density change    ...    2.7495e-04  Tolerance :   1.0000e-07
  Last RMS-Density change    ...    5.8319e-06  Tolerance :   5.0000e-09
  Last DIIS Error            ...    1.2491e-05  Tolerance :   5.0000e-07
  Last Orbital Gradient      ...    8.2656e-07  Tolerance :   1.0000e-05
  Last Orbital Rotation      ...    5.7547e-06  Tolerance :   1.0000e-05


----------------
ORBITAL ENERGIES
----------------

  NO   OCC          E(Eh)            E(eV) 
   0   2.0000     -14.137949      -384.7132 
   1   2.0000     -14.137931      -384.7126 
   2   2.0000     -14.095895      -383.5688 
   3   2.0000     -14.074456      -382.9854 
   4   2.0000     -10.033677      -273.0302 
   5   2.0000     -10.033673      -273.0301 
   6   2.0000     -10.027959      -272.8746 
   7   2.0000     -10.027944      -272.8742 
   8   2.0000     -10.023560      -272.7549 
   9   2.0000     -10.023541      -272.7544 
  10   2.0000     -10.009460      -272.3712 
  11   2.0000     -10.009447      -272.3709 
  12   2.0000      -9.996446      -272.0171 
  13   2.0000      -9.996431      -272.0167 
  14   2.0000      -9.992751      -271.9166 
  15   2.0000      -9.992748      -271.9165 
  16   2.0000      -9.990333      -271.8508 
  17   2.0000      -9.990326      -271.8506 
  18   2.0000      -9.987828      -271.7826 
  19   2.0000      -9.987714      -271.7795 
  20   2.0000      -9.987523      -271.7743 
  21   2.0000      -9.987517      -271.7742 
  22   2.0000      -9.978232      -271.5215 
  23   2.0000      -9.977684      -271.5066 
  24   2.0000      -0.926506       -25.2115 
  25   2.0000      -0.924986       -25.1701 
  26   2.0000      -0.886482       -24.1224 
  27   2.0000      -0.878439       -23.9035 
  28   2.0000      -0.761375       -20.7181 
  29   2.0000      -0.739482       -20.1223 
  30   2.0000      -0.736169       -20.0322 
  31   2.0000      -0.734648       -19.9908 
  32   2.0000      -0.732256       -19.9257 
  33   2.0000      -0.710056       -19.3216 
  34   2.0000      -0.699022       -19.0214 
  35   2.0000      -0.686632       -18.6842 
  36   2.0000      -0.668505       -18.1909 
  37   2.0000      -0.609609       -16.5883 
  38   2.0000      -0.608223       -16.5506 
  39   2.0000      -0.562715       -15.3123 
  40   2.0000      -0.554986       -15.1019 
  41   2.0000      -0.547864       -14.9082 
  42   2.0000      -0.537046       -14.6138 
  43   2.0000      -0.533137       -14.5074 
  44   2.0000      -0.528281       -14.3752 
  45   2.0000      -0.523158       -14.2359 
  46   2.0000      -0.504491       -13.7279 
  47   2.0000      -0.469029       -12.7629 
  48   2.0000      -0.458070       -12.4647 
  49   2.0000      -0.455494       -12.3946 
  50   2.0000      -0.447310       -12.1719 
  51   2.0000      -0.431816       -11.7503 
  52   2.0000      -0.415476       -11.3057 
  53   2.0000      -0.405089       -11.0230 
  54   2.0000      -0.400983       -10.9113 
  55   2.0000      -0.396594       -10.7919 
  56   2.0000      -0.394631       -10.7385 
  57   2.0000      -0.394346       -10.7307 
  58   2.0000      -0.382438       -10.4067 
  59   2.0000      -0.380543       -10.3551 
  60   2.0000      -0.370795       -10.0898 
  61   2.0000      -0.368548       -10.0287 
  62   2.0000      -0.363933        -9.9031 
  63   2.0000      -0.353417        -9.6170 
  64   2.0000      -0.341326        -9.2879 
  65   2.0000      -0.339513        -9.2386 
  66   2.0000      -0.336105        -9.1459 
  67   2.0000      -0.333666        -9.0795 
  68   2.0000      -0.327853        -8.9213 
  69   2.0000      -0.323608        -8.8058 
  70   2.0000      -0.318949        -8.6790 
  71   2.0000      -0.316384        -8.6093 
  72   2.0000      -0.292084        -7.9480 
  73   2.0000      -0.260017        -7.0754 
  74   2.0000      -0.245912        -6.6916 
  75   2.0000      -0.240830        -6.5533 
  76   2.0000      -0.238551        -6.4913 
  77   2.0000      -0.237276        -6.4566 
  78   2.0000      -0.235364        -6.4046 
  79   2.0000      -0.216171        -5.8823 
  80   2.0000      -0.182491        -4.9658 
  81   2.0000      -0.176661        -4.8072 
  82   0.0000      -0.107744        -2.9319 
  83   0.0000      -0.091108        -2.4792 
  84   0.0000      -0.031718        -0.8631 
  85   0.0000      -0.003283        -0.0893 
  86   0.0000       0.021252         0.5783 
  87   0.0000       0.029707         0.8084 
  88   0.0000       0.033230         0.9042 
  89   0.0000       0.050874         1.3844 
  90   0.0000       0.051528         1.4021 
  91   0.0000       0.052801         1.4368 
  92   0.0000       0.057864         1.5745 
*Only the first 10 virtual orbitals were printed.

                    ********************************
                    * MULLIKEN POPULATION ANALYSIS *
                    ********************************

-----------------------
MULLIKEN ATOMIC CHARGES
-----------------------
   0 N :   -0.355414
   1 N :   -0.134716
   2 N :   -0.134730
   3 N :   -0.443555
   4 C :   -0.112941
   5 C :   -0.113376
   6 C :    0.183088
   7 C :    0.183842
   8 C :   -0.458777
   9 C :   -0.459229
  10 C :    0.294621
  11 C :    0.294463
  12 C :    0.299504
  13 C :    0.299606
  14 C :   -0.223893
  15 C :   -0.223768
  16 C :   -0.228753
  17 C :   -0.228850
  18 C :   -0.468941
  19 C :   -0.468915
  20 C :    0.345897
  21 C :    0.345959
  22 C :   -0.237521
  23 C :   -0.237693
  24 H :    0.109547
  25 H :    0.112586
  26 H :    0.109550
  27 H :    0.112638
  28 H :    0.139154
  29 H :    0.139134
  30 H :    0.235351
  31 H :    0.235460
  32 H :    0.139285
  33 H :    0.139309
  34 H :    0.140096
  35 H :    0.140067
  36 H :    0.141580
  37 H :    0.141600
  38 H :    0.124372
  39 H :    0.124360
Sum of atomic charges:    0.0000000

--------------------------------
MULLIKEN REDUCED ORBITAL CHARGES
--------------------------------
  0 N s       :     3.632673  s :     3.632673
      pz      :     1.179742  p :     3.657859
      px      :     1.284645
      py      :     1.193472
      dz2     :     0.004756  d :     0.061158
      dxz     :     0.010509
      dyz     :     0.011471
      dx2y2   :     0.018833
      dxy     :     0.015589
      f0      :     0.000621  f :     0.003723
      f+1     :     0.000264
      f-1     :     0.000288
      f+2     :     0.000542
      f-2     :     0.000143
      f+3     :     0.001026
      f-3     :     0.000840

  1 N s       :     3.428103  s :     3.428103
      pz      :     1.496606  p :     3.634476
      px      :     1.074076
      py      :     1.063794
      dz2     :     0.004612  d :     0.067483
      dxz     :     0.011712
      dyz     :     0.009436
      dx2y2   :     0.017592
      dxy     :     0.024131
      f0      :     0.000795  f :     0.004655
      f+1     :     0.000595
      f-1     :     0.000636
      f+2     :     0.000600
      f-2     :     0.000094
      f+3     :     0.000926
      f-3     :     0.001009

  2 N s       :     3.428137  s :     3.428137
      pz      :     1.496577  p :     3.634457
      px      :     1.066294
      py      :     1.071587
      dz2     :     0.004614  d :     0.067481
      dxz     :     0.011728
      dyz     :     0.009417
      dx2y2   :     0.017065
      dxy     :     0.024657
      f0      :     0.000795  f :     0.004655
      f+1     :     0.000604
      f-1     :     0.000628
      f+2     :     0.000598
      f-2     :     0.000096
      f+3     :     0.000881
      f-3     :     0.001053

  3 N s       :     3.627599  s :     3.627599
      pz      :     1.271600  p :     3.752185
      px      :     1.283753
      py      :     1.196833
      dz2     :     0.005021  d :     0.060044
      dxz     :     0.010160
      dyz     :     0.011087
      dx2y2   :     0.019167
      dxy     :     0.014610
      f0      :     0.000625  f :     0.003726
      f+1     :     0.000317
      f-1     :     0.000335
      f+2     :     0.000623
      f-2     :     0.000129
      f+3     :     0.000912
      f-3     :     0.000784

  4 C s       :     3.054154  s :     3.054154
      pz      :     1.039893  p :     2.963362
      px      :     0.905439
      py      :     1.018030
      dz2     :     0.004589  d :     0.088543
      dxz     :     0.017048
      dyz     :     0.023106
      dx2y2   :     0.025763
      dxy     :     0.018037
      f0      :     0.000638  f :     0.006882
      f+1     :     0.000316
      f-1     :     0.001449
      f+2     :     0.000640
      f-2     :     0.000931
      f+3     :     0.001476
      f-3     :     0.001432

  5 C s       :     3.054610  s :     3.054610
      pz      :     1.039917  p :     2.963308
      px      :     1.013722
      py      :     0.909669
      dz2     :     0.004600  d :     0.088574
      dxz     :     0.022503
      dyz     :     0.017651
      dx2y2   :     0.025772
      dxy     :     0.018048
      f0      :     0.000641  f :     0.006884
      f+1     :     0.001472
      f-1     :     0.000290
      f+2     :     0.000648
      f-2     :     0.000925
      f+3     :     0.001192
      f-3     :     0.001718

  6 C s       :     3.149971  s :     3.149971
      pz      :     0.885141  p :     2.494961
      px      :     0.854995
      py      :     0.754825
      dz2     :     0.003751  d :     0.157868
      dxz     :     0.026955
      dyz     :     0.033587
      dx2y2   :     0.042920
      dxy     :     0.050655
      f0      :     0.001854  f :     0.014112
      f+1     :     0.000699
      f-1     :     0.001035
      f+2     :     0.001559
      f-2     :     0.001194
      f+3     :     0.005362
      f-3     :     0.002410

  7 C s       :     3.149521  s :     3.149521
      pz      :     0.885116  p :     2.494660
      px      :     0.784381
      py      :     0.825163
      dz2     :     0.003754  d :     0.157863
      dxz     :     0.030187
      dyz     :     0.030360
      dx2y2   :     0.045127
      dxy     :     0.048436
      f0      :     0.001854  f :     0.014114
      f+1     :     0.001032
      f-1     :     0.000703
      f+2     :     0.001336
      f-2     :     0.001416
      f+3     :     0.003697
      f-3     :     0.004076

  8 C s       :     3.413496  s :     3.413496
      pz      :     1.069349  p :     2.959228
      px      :     0.924541
      py      :     0.965337
      dz2     :     0.002385  d :     0.078263
      dxz     :     0.024566
      dyz     :     0.003805
      dx2y2   :     0.037753
      dxy     :     0.009754
      f0      :     0.001408  f :     0.007790
      f+1     :     0.000640
      f-1     :     0.000815
      f+2     :     0.000546
      f-2     :     0.000814
      f+3     :     0.002178
      f-3     :     0.001390

  9 C s       :     3.413807  s :     3.413807
      pz      :     1.069332  p :     2.959365
      px      :     0.952613
      py      :     0.937421
      dz2     :     0.002389  d :     0.078266
      dxz     :     0.003668
      dyz     :     0.024703
      dx2y2   :     0.037938
      dxy     :     0.009568
      f0      :     0.001408  f :     0.007790
      f+1     :     0.000816
      f-1     :     0.000639
      f+2     :     0.000540
      f-2     :     0.000820
      f+3     :     0.001428
      f-3     :     0.002140

 10 C s       :     3.097467  s :     3.097467
      pz      :     0.919800  p :     2.435932
      px      :     0.794553
      py      :     0.721579
      dz2     :     0.005551  d :     0.157731
      dxz     :     0.035956
      dyz     :     0.033474
      dx2y2   :     0.037741
      dxy     :     0.045009
      f0      :     0.002159  f :     0.014249
      f+1     :     0.000845
      f-1     :     0.001091
      f+2     :     0.002011
      f-2     :     0.001241
      f+3     :     0.004049
      f-3     :     0.002853

 11 C s       :     3.097488  s :     3.097488
      pz      :     0.919812  p :     2.436076
      px      :     0.696916
      py      :     0.819348
      dz2     :     0.005552  d :     0.157724
      dxz     :     0.035818
      dyz     :     0.033614
      dx2y2   :     0.042727
      dxy     :     0.040013
      f0      :     0.002158  f :     0.014249
      f+1     :     0.001143
      f-1     :     0.000794
      f+2     :     0.002528
      f-2     :     0.000723
      f+3     :     0.002276
      f-3     :     0.004627

 12 C s       :     3.080386  s :     3.080386
      pz      :     0.957773  p :     2.450451
      px      :     0.688683
      py      :     0.803995
      dz2     :     0.006022  d :     0.155488
      dxz     :     0.034485
      dyz     :     0.031739
      dx2y2   :     0.042793
      dxy     :     0.040449
      f0      :     0.002187  f :     0.014170
      f+1     :     0.001136
      f-1     :     0.000794
      f+2     :     0.002546
      f-2     :     0.000623
      f+3     :     0.002259
      f-3     :     0.004626

 13 C s       :     3.080393  s :     3.080393
      pz      :     0.957709  p :     2.450334
      px      :     0.778345
      py      :     0.714281
      dz2     :     0.006024  d :     0.155495
      dxz     :     0.033568
      dyz     :     0.032655
      dx2y2   :     0.037543
      dxy     :     0.045705
      f0      :     0.002187  f :     0.014171
      f+1     :     0.000838
      f-1     :     0.001091
      f+2     :     0.002033
      f-2     :     0.001137
      f+3     :     0.004088
      f-3     :     0.002797

 14 C s       :     3.299674  s :     3.299674
      pz      :     1.013042  p :     2.827647
      px      :     0.910864
      py      :     0.903742
      dz2     :     0.005258  d :     0.088437
      dxz     :     0.021080
      dyz     :     0.008059
      dx2y2   :     0.037369
      dxy     :     0.016672
      f0      :     0.001440  f :     0.008134
      f+1     :     0.000484
      f-1     :     0.000984
      f+2     :     0.000131
      f-2     :     0.001351
      f+3     :     0.002294
      f-3     :     0.001450

 15 C s       :     3.299755  s :     3.299755
      pz      :     1.012929  p :     2.827438
      px      :     0.910035
      py      :     0.904474
      dz2     :     0.005258  d :     0.088441
      dxz     :     0.009442
      dyz     :     0.019698
      dx2y2   :     0.035169
      dxy     :     0.018873
      f0      :     0.001440  f :     0.008134
      f+1     :     0.000935
      f-1     :     0.000534
      f+2     :     0.000458
      f-2     :     0.001023
      f+3     :     0.002005
      f-3     :     0.001738

 16 C s       :     3.312716  s :     3.312716
      pz      :     0.992545  p :     2.818596
      px      :     0.917257
      py      :     0.908794
      dz2     :     0.005105  d :     0.089299
      dxz     :     0.009688
      dyz     :     0.021376
      dx2y2   :     0.034130
      dxy     :     0.018999
      f0      :     0.001419  f :     0.008142
      f+1     :     0.000921
      f-1     :     0.000526
      f+2     :     0.000536
      f-2     :     0.001012
      f+3     :     0.002032
      f-3     :     0.001696

 17 C s       :     3.312629  s :     3.312629
      pz      :     0.992618  p :     2.818785
      px      :     0.914865
      py      :     0.911302
      dz2     :     0.005105  d :     0.089295
      dxz     :     0.023037
      dyz     :     0.008022
      dx2y2   :     0.036868
      dxy     :     0.016263
      f0      :     0.001418  f :     0.008141
      f+1     :     0.000475
      f-1     :     0.000972
      f+2     :     0.000152
      f-2     :     0.001395
      f+3     :     0.002263
      f-3     :     0.001466

 18 C s       :     3.465134  s :     3.465134
      pz      :     0.999076  p :     2.909756
      px      :     0.962535
      py      :     0.948144
      dz2     :     0.002664  d :     0.086413
      dxz     :     0.003582
      dyz     :     0.029526
      dx2y2   :     0.040441
      dxy     :     0.010199
      f0      :     0.001320  f :     0.007639
      f+1     :     0.000778
      f-1     :     0.000592
      f+2     :     0.000503
      f-2     :     0.000873
      f+3     :     0.001361
      f-3     :     0.002212

 19 C s       :     3.465201  s :     3.465201
      pz      :     0.999067  p :     2.909657
      px      :     0.939779
      py      :     0.970812
      dz2     :     0.002664  d :     0.086417
      dxz     :     0.029232
      dyz     :     0.003871
      dx2y2   :     0.039862
      dxy     :     0.010789
      f0      :     0.001320  f :     0.007639
      f+1     :     0.000590
      f-1     :     0.000781
      f+2     :     0.000542
      f-2     :     0.000834
      f+3     :     0.002126
      f-3     :     0.001447

 20 C s       :     3.070892  s :     3.070892
      pz      :     0.933761  p :     2.409106
      px      :     0.744626
      py      :     0.730719
      dz2     :     0.005164  d :     0.159673
      dxz     :     0.032763
      dyz     :     0.029645
      dx2y2   :     0.043371
      dxy     :     0.048731
      f0      :     0.002042  f :     0.014432
      f+1     :     0.001044
      f-1     :     0.000815
      f+2     :     0.001686
      f-2     :     0.001148
      f+3     :     0.003349
      f-3     :     0.004350

 21 C s       :     3.070886  s :     3.070886
      pz      :     0.933732  p :     2.409058
      px      :     0.742386
      py      :     0.732940
      dz2     :     0.005165  d :     0.159665
      dxz     :     0.028380
      dyz     :     0.034021
      dx2y2   :     0.039775
      dxy     :     0.052323
      f0      :     0.002042  f :     0.014432
      f+1     :     0.000780
      f-1     :     0.001079
      f+2     :     0.002154
      f-2     :     0.000679
      f+3     :     0.005334
      f-3     :     0.002364

 22 C s       :     3.313443  s :     3.313443
      pz      :     1.006984  p :     2.827399
      px      :     0.890831
      py      :     0.929584
      dz2     :     0.005051  d :     0.088545
      dxz     :     0.007670
      dyz     :     0.021165
      dx2y2   :     0.036696
      dxy     :     0.017963
      f0      :     0.001366  f :     0.008133
      f+1     :     0.000937
      f-1     :     0.000439
      f+2     :     0.000103
      f-2     :     0.001399
      f+3     :     0.001525
      f-3     :     0.002364

 23 C s       :     3.313837  s :     3.313837
      pz      :     1.006892  p :     2.827192
      px      :     0.920954
      py      :     0.899346
      dz2     :     0.005049  d :     0.088531
      dxz     :     0.019835
      dyz     :     0.008995
      dx2y2   :     0.035317
      dxy     :     0.019334
      f0      :     0.001366  f :     0.008132
      f+1     :     0.000490
      f-1     :     0.000886
      f+2     :     0.000431
      f-2     :     0.001071
      f+3     :     0.001807
      f-3     :     0.002081

 24 H s       :     0.870099  s :     0.870099
      pz      :     0.008754  p :     0.020354
      px      :     0.004600
      py      :     0.007000

 25 H s       :     0.867122  s :     0.867122
      pz      :     0.008171  p :     0.020291
      px      :     0.004578
      py      :     0.007542

 26 H s       :     0.870096  s :     0.870096
      pz      :     0.008778  p :     0.020354
      px      :     0.007124
      py      :     0.004452

 27 H s       :     0.867074  s :     0.867074
      pz      :     0.008143  p :     0.020287
      px      :     0.007688
      py      :     0.004457

 28 H s       :     0.840378  s :     0.840378
      pz      :     0.005442  p :     0.020468
      px      :     0.003534
      py      :     0.011491

 29 H s       :     0.840397  s :     0.840397
      pz      :     0.005443  p :     0.020469
      px      :     0.011455
      py      :     0.003571

 30 H s       :     0.724920  s :     0.724920
      pz      :     0.010120  p :     0.039729
      px      :     0.012253
      py      :     0.017356

 31 H s       :     0.724809  s :     0.724809
      pz      :     0.010118  p :     0.039732
      px      :     0.014098
      py      :     0.015516

 32 H s       :     0.840738  s :     0.840738
      pz      :     0.004863  p :     0.019977
      px      :     0.003509
      py      :     0.011605

 33 H s       :     0.840715  s :     0.840715
      pz      :     0.004862  p :     0.019976
      px      :     0.011204
      py      :     0.003910

 34 H s       :     0.839991  s :     0.839991
      pz      :     0.004722  p :     0.019913
      px      :     0.011201
      py      :     0.003990

 35 H s       :     0.840019  s :     0.840019
      pz      :     0.004722  p :     0.019914
      px      :     0.003539
      py      :     0.011652

 36 H s       :     0.838158  s :     0.838158
      pz      :     0.005052  p :     0.020262
      px      :     0.011656
      py      :     0.003554

 37 H s       :     0.838139  s :     0.838139
      pz      :     0.005052  p :     0.020260
      px      :     0.003593
      py      :     0.011615

 38 H s       :     0.855684  s :     0.855684
      pz      :     0.004834  p :     0.019944
      px      :     0.011408
      py      :     0.003703

 39 H s       :     0.855696  s :     0.855696
      pz      :     0.004834  p :     0.019944
      px      :     0.004102
      py      :     0.011009



                     *******************************
                     * LOEWDIN POPULATION ANALYSIS *
                     *******************************

----------------------
LOEWDIN ATOMIC CHARGES
----------------------
   0 N :    0.135775
   1 N :    0.261216
   2 N :    0.261217
   3 N :    0.088051
   4 C :   -0.192755
   5 C :   -0.192797
   6 C :   -0.221819
   7 C :   -0.221923
   8 C :   -0.127531
   9 C :   -0.127522
  10 C :   -0.191106
  11 C :   -0.191107
  12 C :   -0.198559
  13 C :   -0.198560
  14 C :   -0.113600
  15 C :   -0.113524
  16 C :   -0.106697
  17 C :   -0.106742
  18 C :   -0.091609
  19 C :   -0.091574
  20 C :   -0.246098
  21 C :   -0.246019
  22 C :   -0.129874
  23 C :   -0.129797
  24 H :    0.147191
  25 H :    0.146315
  26 H :    0.147213
  27 H :    0.146314
  28 H :    0.164876
  29 H :    0.164892
  30 H :    0.184383
  31 H :    0.184405
  32 H :    0.147510
  33 H :    0.147538
  34 H :    0.148728
  35 H :    0.148699
  36 H :    0.166506
  37 H :    0.166493
  38 H :    0.140932
  39 H :    0.140954

-------------------------------
LOEWDIN REDUCED ORBITAL CHARGES
-------------------------------
  0 N s       :     3.041349  s :     3.041349
      pz      :     1.069125  p :     3.592772
      px      :     1.291261
      py      :     1.232386
      dz2     :     0.016862  d :     0.210595
      dxz     :     0.023995
      dyz     :     0.030525
      dx2y2   :     0.076733
      dxy     :     0.062480
      f0      :     0.001181  f :     0.019509
      f+1     :     0.001200
      f-1     :     0.001416
      f+2     :     0.003276
      f-2     :     0.000410
      f+3     :     0.006954
      f-3     :     0.005073

  1 N s       :     2.893863  s :     2.893863
      pz      :     1.323254  p :     3.588488
      px      :     1.130943
      py      :     1.134292
      dz2     :     0.014336  d :     0.238433
      dxz     :     0.034328
      dyz     :     0.026535
      dx2y2   :     0.072751
      dxy     :     0.090483
      f0      :     0.001224  f :     0.018000
      f+1     :     0.001684
      f-1     :     0.001765
      f+2     :     0.003664
      f-2     :     0.000436
      f+3     :     0.003460
      f-3     :     0.005767

  2 N s       :     2.893872  s :     2.893872
      pz      :     1.323244  p :     3.588492
      px      :     1.135046
      py      :     1.130201
      dz2     :     0.014337  d :     0.238419
      dxz     :     0.033825
      dyz     :     0.027032
      dx2y2   :     0.071205
      dxy     :     0.092019
      f0      :     0.001224  f :     0.018000
      f+1     :     0.001763
      f-1     :     0.001687
      f+2     :     0.003666
      f-2     :     0.000433
      f+3     :     0.003461
      f-3     :     0.005767

  3 N s       :     3.049716  s :     3.049716
      pz      :     1.151465  p :     3.641322
      px      :     1.273602
      py      :     1.216255
      dz2     :     0.016526  d :     0.201579
      dxz     :     0.024483
      dyz     :     0.030529
      dx2y2   :     0.071871
      dxy     :     0.058170
      f0      :     0.001162  f :     0.019331
      f+1     :     0.001199
      f-1     :     0.001388
      f+2     :     0.003699
      f-2     :     0.000320
      f+3     :     0.006538
      f-3     :     0.005025

  4 C s       :     2.770629  s :     2.770629
      pz      :     1.030552  p :     3.015185
      px      :     0.984321
      py      :     1.000312
      dz2     :     0.039224  d :     0.365782
      dxz     :     0.047869
      dyz     :     0.100097
      dx2y2   :     0.091467
      dxy     :     0.087124
      f0      :     0.003778  f :     0.041159
      f+1     :     0.003377
      f-1     :     0.004815
      f+2     :     0.004416
      f-2     :     0.005338
      f+3     :     0.009426
      f-3     :     0.010010

  5 C s       :     2.770622  s :     2.770622
      pz      :     1.030555  p :     3.015176
      px      :     0.999044
      py      :     0.985577
      dz2     :     0.039282  d :     0.365837
      dxz     :     0.099516
      dyz     :     0.048384
      dx2y2   :     0.086360
      dxy     :     0.092296
      f0      :     0.003783  f :     0.041162
      f+1     :     0.004849
      f-1     :     0.003329
      f+2     :     0.004468
      f-2     :     0.005298
      f+3     :     0.007750
      f-3     :     0.011684

  6 C s       :     2.728040  s :     2.728040
      pz      :     0.814532  p :     2.778106
      px      :     1.003927
      py      :     0.959647
      dz2     :     0.042804  d :     0.638148
      dxz     :     0.081988
      dyz     :     0.104121
      dx2y2   :     0.193311
      dxy     :     0.215924
      f0      :     0.004943  f :     0.077525
      f+1     :     0.004065
      f-1     :     0.006365
      f+2     :     0.010407
      f-2     :     0.006620
      f+3     :     0.031618
      f-3     :     0.013506

  7 C s       :     2.728013  s :     2.728013
      pz      :     0.814494  p :     2.778123
      px      :     0.954568
      py      :     1.009061
      dz2     :     0.042824  d :     0.638247
      dxz     :     0.094235
      dyz     :     0.091920
      dx2y2   :     0.198283
      dxy     :     0.210985
      f0      :     0.004944  f :     0.077540
      f+1     :     0.006041
      f-1     :     0.004393
      f+2     :     0.009462
      f-2     :     0.007569
      f+3     :     0.021681
      f-3     :     0.023451

  8 C s       :     2.755797  s :     2.755797
      pz      :     0.946864  p :     2.962264
      px      :     1.024408
      py      :     0.990992
      dz2     :     0.024773  d :     0.368858
      dxz     :     0.076897
      dyz     :     0.011927
      dx2y2   :     0.157907
      dxy     :     0.097355
      f0      :     0.003300  f :     0.040612
      f+1     :     0.004798
      f-1     :     0.003108
      f+2     :     0.002366
      f-2     :     0.005698
      f+3     :     0.012210
      f-3     :     0.009133

  9 C s       :     2.755785  s :     2.755785
      pz      :     0.946860  p :     2.962258
      px      :     0.987390
      py      :     1.028008
      dz2     :     0.024773  d :     0.368866
      dxz     :     0.011797
      dyz     :     0.077030
      dx2y2   :     0.154039
      dxy     :     0.101228
      f0      :     0.003301  f :     0.040612
      f+1     :     0.003109
      f-1     :     0.004797
      f+2     :     0.002237
      f-2     :     0.005826
      f+3     :     0.009095
      f-3     :     0.012247

 10 C s       :     2.702328  s :     2.702328
      pz      :     0.845556  p :     2.776757
      px      :     1.021616
      py      :     0.909585
      dz2     :     0.041098  d :     0.631220
      dxz     :     0.098336
      dyz     :     0.117589
      dx2y2   :     0.188622
      dxy     :     0.185576
      f0      :     0.005235  f :     0.080801
      f+1     :     0.004851
      f-1     :     0.006205
      f+2     :     0.013159
      f-2     :     0.008653
      f+3     :     0.025167
      f-3     :     0.017530

 11 C s       :     2.702326  s :     2.702326
      pz      :     0.845562  p :     2.776762
      px      :     0.907587
      py      :     1.023614
      dz2     :     0.041101  d :     0.631222
      dxz     :     0.123741
      dyz     :     0.092182
      dx2y2   :     0.198515
      dxy     :     0.175684
      f0      :     0.005234  f :     0.080797
      f+1     :     0.006551
      f-1     :     0.004506
      f+2     :     0.016303
      f-2     :     0.005508
      f+3     :     0.014164
      f-3     :     0.028531

 12 C s       :     2.700321  s :     2.700321
      pz      :     0.874021  p :     2.797150
      px      :     0.895701
      py      :     1.027428
      dz2     :     0.041252  d :     0.621256
      dxz     :     0.118721
      dyz     :     0.086260
      dx2y2   :     0.202146
      dxy     :     0.172877
      f0      :     0.005268  f :     0.079832
      f+1     :     0.006494
      f-1     :     0.004662
      f+2     :     0.016013
      f-2     :     0.004769
      f+3     :     0.014442
      f-3     :     0.028185

 13 C s       :     2.700317  s :     2.700317
      pz      :     0.873977  p :     2.797119
      px      :     1.025927
      py      :     0.897215
      dz2     :     0.041258  d :     0.621286
      dxz     :     0.090715
      dyz     :     0.114281
      dx2y2   :     0.191131
      dxy     :     0.183900
      f0      :     0.005268  f :     0.079838
      f+1     :     0.004997
      f-1     :     0.006159
      f+2     :     0.012848
      f-2     :     0.007936
      f+3     :     0.025318
      f-3     :     0.017313

 14 C s       :     2.764198  s :     2.764198
      pz      :     0.915785  p :     2.930630
      px      :     1.018832
      py      :     0.996013
      dz2     :     0.026524  d :     0.371867
      dxz     :     0.071076
      dyz     :     0.018646
      dx2y2   :     0.152742
      dxy     :     0.102878
      f0      :     0.003085  f :     0.046905
      f+1     :     0.003833
      f-1     :     0.003909
      f+2     :     0.000663
      f-2     :     0.009310
      f+3     :     0.016609
      f-3     :     0.009496

 15 C s       :     2.764198  s :     2.764198
      pz      :     0.915710  p :     2.930554
      px      :     1.006923
      py      :     1.007921
      dz2     :     0.026526  d :     0.371867
      dxz     :     0.022787
      dyz     :     0.066939
      dx2y2   :     0.151698
      dxy     :     0.103918
      f0      :     0.003086  f :     0.046905
      f+1     :     0.003939
      f-1     :     0.003803
      f+2     :     0.002623
      f-2     :     0.007351
      f+3     :     0.013980
      f-3     :     0.012124

 16 C s       :     2.764430  s :     2.764430
      pz      :     0.898687  p :     2.918025
      px      :     1.008420
      py      :     1.010918
      dz2     :     0.026385  d :     0.376861
      dxz     :     0.023560
      dyz     :     0.072028
      dx2y2   :     0.150097
      dxy     :     0.104790
      f0      :     0.003057  f :     0.047382
      f+1     :     0.003927
      f-1     :     0.003781
      f+2     :     0.003073
      f-2     :     0.007449
      f+3     :     0.014305
      f-3     :     0.011790

 17 C s       :     2.764426  s :     2.764426
      pz      :     0.898734  p :     2.918072
      px      :     1.021564
      py      :     0.997773
      dz2     :     0.026388  d :     0.376862
      dxz     :     0.076945
      dyz     :     0.018637
      dx2y2   :     0.152554
      dxy     :     0.102338
      f0      :     0.003057  f :     0.047382
      f+1     :     0.003806
      f-1     :     0.003902
      f+2     :     0.000756
      f-2     :     0.009766
      f+3     :     0.016425
      f-3     :     0.009671

 18 C s       :     2.759176  s :     2.759176
      pz      :     0.888782  p :     2.913783
      px      :     0.993141
      py      :     1.031861
      dz2     :     0.024470  d :     0.377970
      dxz     :     0.011686
      dyz     :     0.089710
      dx2y2   :     0.153488
      dxy     :     0.098615
      f0      :     0.003227  f :     0.040680
      f+1     :     0.003097
      f-1     :     0.004596
      f+2     :     0.002114
      f-2     :     0.006468
      f+3     :     0.008847
      f-3     :     0.012331

 19 C s       :     2.759181  s :     2.759181
      pz      :     0.888783  p :     2.913776
      px      :     1.030388
      py      :     0.994605
      dz2     :     0.024470  d :     0.377937
      dxz     :     0.089020
      dyz     :     0.012357
      dx2y2   :     0.153919
      dxy     :     0.098171
      f0      :     0.003227  f :     0.040681
      f+1     :     0.004608
      f-1     :     0.003084
      f+2     :     0.002427
      f-2     :     0.006155
      f+3     :     0.012093
      f-3     :     0.009086

 20 C s       :     2.711918  s :     2.711918
      pz      :     0.854848  p :     2.806508
      px      :     0.952433
      py      :     0.999227
      dz2     :     0.044154  d :     0.647980
      dxz     :     0.111498
      dyz     :     0.081257
      dx2y2   :     0.201993
      dxy     :     0.209078
      f0      :     0.004706  f :     0.079692
      f+1     :     0.006087
      f-1     :     0.004679
      f+2     :     0.011123
      f-2     :     0.007596
      f+3     :     0.019305
      f-3     :     0.026197

 21 C s       :     2.711916  s :     2.711916
      pz      :     0.854822  p :     2.806453
      px      :     0.999348
      py      :     0.952283
      dz2     :     0.044152  d :     0.647955
      dxz     :     0.078652
[...]
  0-1A  -> 26-1A    5.599493   45163.0   221.4   0.000104210   0.00076  -0.02129  -0.01750   0.00028
  0-1A  -> 27-1A    5.626064   45377.3   220.4   0.025921249   0.18806   0.33590   0.27428   0.00058
  0-1A  -> 28-1A    5.632824   45431.8   220.1   0.045898643   0.33259   0.44667   0.36480   0.00073
  0-1A  -> 29-1A    5.662900   45674.4   218.9   0.006385145   0.04602  -0.13590   0.16597  -0.00292
  0-1A  -> 30-1A    5.688288   45879.1   218.0   0.000016560   0.00012  -0.00859  -0.00671  -0.00002

----------------------------------------------------------------------------------------------------
                     ABSORPTION SPECTRUM VIA TRANSITION VELOCITY DIPOLE MOMENTS    
----------------------------------------------------------------------------------------------------
     Transition      Energy     Energy  Wavelength fosc(P2)      P2        PX        PY        PZ   
                      (eV)      (cm-1)    (nm)                 (au**2)    (au)      (au)      (au)  
----------------------------------------------------------------------------------------------------
  0-1A  ->  1-1A    2.231055   17994.7   555.7   0.117184395   0.01441   0.07594  -0.09298   0.00063
  0-1A  ->  2-1A    2.356599   19007.3   526.1   0.007009060   0.00091  -0.02342  -0.01903  -0.00005
  0-1A  ->  3-1A    3.069767   24759.3   403.9   0.096410817   0.01631  -0.09913  -0.08055  -0.00019
  0-1A  ->  4-1A    3.093289   24949.1   400.8   0.712699878   0.12153   0.22032  -0.27016   0.00142
  0-1A  ->  5-1A    3.268947   26365.8   379.3   1.146232269   0.20655  -0.35209  -0.28737  -0.00066
  0-1A  ->  6-1A    3.512176   28327.6   353.0   0.000237665   0.00005  -0.00098   0.00116  -0.00661
  0-1A  ->  7-1A    3.599923   29035.3   344.4   0.078867784   0.01565   0.07898  -0.09693   0.00407
  0-1A  ->  8-1A    3.609299   29111.0   343.5   0.025034030   0.00498  -0.04437   0.05435   0.00760
  0-1A  ->  9-1A    3.677099   29657.8   337.2   0.101899639   0.02065  -0.09090   0.11131  -0.00084
  0-1A  -> 10-1A    3.755727   30292.0   330.1   0.060301385   0.01248  -0.08653  -0.07069  -0.00016
  0-1A  -> 11-1A    3.939147   31771.4   314.7   0.000019593   0.00000  -0.00160  -0.00130  -0.00000
  0-1A  -> 12-1A    3.986528   32153.5   311.0   0.216646877   0.04761  -0.13777   0.16919  -0.00040
  0-1A  -> 13-1A    4.012189   32360.5   309.0   0.000338177   0.00007   0.00671   0.00545   0.00002
  0-1A  -> 14-1A    4.100903   33076.0   302.3   0.083787351   0.01894  -0.10666  -0.08697  -0.00022
  0-1A  -> 15-1A    4.189201   33788.2   296.0   0.004966866   0.00115  -0.02614  -0.02154  -0.00003
  0-1A  -> 16-1A    4.239730   34195.7   292.4   0.155673404   0.03638  -0.12065   0.14773  -0.00066
  0-1A  -> 17-1A    4.354769   35123.6   284.7   0.016096279   0.00386  -0.04819  -0.03927  -0.00010
  0-1A  -> 18-1A    4.368011   35230.4   283.8   0.096896257   0.02333   0.09661  -0.11831   0.00121
  0-1A  -> 19-1A    4.659786   37583.7   266.1   0.000263721   0.00007   0.00657   0.00495   0.00011
  0-1A  -> 20-1A    4.764150   38425.5   260.2   0.131244089   0.03447  -0.11738   0.14383  -0.00057
  0-1A  -> 21-1A    5.026477   40541.3   246.7   0.004174749   0.00116   0.02146  -0.02635  -0.00134
  0-1A  -> 22-1A    5.215066   42062.3   237.7   0.070407155   0.02024   0.08994  -0.11023  -0.00085
  0-1A  -> 23-1A    5.331447   43001.0   232.6   0.004465917   0.00131   0.02075  -0.02965  -0.00170
  0-1A  -> 24-1A    5.334578   43026.3   232.4   0.014860696   0.00437  -0.05211  -0.04068  -0.00015
  0-1A  -> 25-1A    5.547083   44740.2   223.5   0.000056777   0.00002  -0.00321  -0.00265  -0.00000
  0-1A  -> 26-1A    5.599493   45163.0   221.4   0.000108221   0.00003   0.00447   0.00367  -0.00004
  0-1A  -> 27-1A    5.626064   45377.3   220.4   0.024960714   0.00774  -0.06815  -0.05565  -0.00012
  0-1A  -> 28-1A    5.632824   45431.8   220.1   0.044238411   0.01374  -0.09077  -0.07414  -0.00015
  0-1A  -> 29-1A    5.662900   45674.4   218.9   0.006446467   0.00201   0.02841  -0.03471   0.00059
  0-1A  -> 30-1A    5.688288   45879.1   218.0   0.000016370   0.00001   0.00179   0.00139   0.00000

------------------------------------------------------------------------------------------
                     CD SPECTRUM VIA TRANSITION ELECTRIC DIPOLE MOMENTS    
------------------------------------------------------------------------------------------
     Transition      Energy     Energy  Wavelength    R        MX        MY        MZ   
                      (eV)      (cm-1)    (nm)   (1e40*cgs)   (au)      (au)      (au)  
------------------------------------------------------------------------------------------
  0-1A  ->  1-1A    2.231055   17994.7   555.7    0.10354  -0.00279   0.00191   0.67282
  0-1A  ->  2-1A    2.356599   19007.3   526.1   -0.10310   0.00047   0.00039  -0.00029
  0-1A  ->  3-1A    3.069767   24759.3   403.9   -0.95630   0.00130   0.00121   0.00015
  0-1A  ->  4-1A    3.093289   24949.1   400.8   -3.01532  -0.00099   0.00148  -0.06546
  0-1A  ->  5-1A    3.268947   26365.8   379.3   -8.44207   0.00338   0.00316   0.00013
  0-1A  ->  6-1A    3.512176   28327.6   353.0    1.21854  -0.12564   0.15400  -0.00334
  0-1A  ->  7-1A    3.599923   29035.3   344.4  -23.97603  -0.04291   0.05180   0.41155
  0-1A  ->  8-1A    3.609299   29111.0   343.5   34.91327  -0.10290   0.12655  -0.21703
  0-1A  ->  9-1A    3.677099   29657.8   337.2   -5.94520   0.00999  -0.01117  -0.54767
  0-1A  -> 10-1A    3.755727   30292.0   330.1   -0.83031   0.00165   0.00137   0.00026
  0-1A  -> 11-1A    3.939147   31771.4   314.7   -0.40319   0.04591   0.03752   0.00024
  0-1A  -> 12-1A    3.986528   32153.5   311.0   -0.02854  -0.00081   0.00008   0.30453
  0-1A  -> 13-1A    4.012189   32360.5   309.0   -0.06575  -0.00178  -0.00152   0.00004
  0-1A  -> 14-1A    4.100903   33076.0   302.3   -0.55423   0.00089   0.00090   0.00049
  0-1A  -> 15-1A    4.189201   33788.2   296.0   -0.07317   0.00053   0.00045  -0.00022
  0-1A  -> 16-1A    4.239730   34195.7   292.4    0.26603  -0.00079   0.00057   0.14395
  0-1A  -> 17-1A    4.354769   35123.6   284.7   -0.23017   0.00089   0.00084   0.00028
  0-1A  -> 18-1A    4.368011   35230.4   283.8    1.12006   0.00021  -0.00065   0.21645
  0-1A  -> 19-1A    4.659786   37583.7   266.1   -0.05646  -0.00208  -0.00171  -0.00040
  0-1A  -> 20-1A    4.764150   38425.5   260.2    0.87675  -0.00174   0.00159   0.19207
  0-1A  -> 21-1A    5.026477   40541.3   246.7    3.06372   0.00366  -0.00263  -0.75481
  0-1A  -> 22-1A    5.215066   42062.3   237.7    0.92625   0.00186  -0.00204   0.02990
  0-1A  -> 23-1A    5.331447   43001.0   232.6    0.09676   0.00043  -0.00047  -0.00880
  0-1A  -> 24-1A    5.334578   43026.3   232.4   -0.19742   0.00089   0.00086   0.00076
  0-1A  -> 25-1A    5.547083   44740.2   223.5   -0.09211   0.00731   0.00594   0.00001
  0-1A  -> 26-1A    5.599493   45163.0   221.4    0.24841   0.01473   0.01219   0.00021
  0-1A  -> 27-1A    5.626064   45377.3   220.4   -0.65977   0.00241   0.00216  -0.00047
  0-1A  -> 28-1A    5.632824   45431.8   220.1    0.58908  -0.00172  -0.00131  -0.00026
  0-1A  -> 29-1A    5.662900   45674.4   218.9   -0.38180   0.00012   0.00039  -0.26106
  0-1A  -> 30-1A    5.688288   45879.1   218.0    0.03149   0.00476   0.00386  -0.00031

------------------------------------------------------------------------------------------
                     CD SPECTRUM VIA TRANSITION VELOCITY DIPOLE MOMENTS    
------------------------------------------------------------------------------------------
     Transition      Energy     Energy  Wavelength    R        MX        MY        MZ   
                      (eV)      (cm-1)    (nm)   (1e40*cgs)   (au)      (au)      (au)  
------------------------------------------------------------------------------------------
  0-1A  ->  1-1A    2.231055   17994.7   555.7    0.21367  -0.00279   0.00191   0.67282
  0-1A  ->  2-1A    2.356599   19007.3   526.1   -0.10106   0.00047   0.00039  -0.00029
  0-1A  ->  3-1A    3.069767   24759.3   403.9   -0.94376   0.00130   0.00121   0.00015
  0-1A  ->  4-1A    3.093289   24949.1   400.8   -2.94605  -0.00099   0.00148  -0.06546
  0-1A  ->  5-1A    3.268947   26365.8   379.3   -8.23363   0.00338   0.00316   0.00013
  0-1A  ->  6-1A    3.512176   28327.6   353.0    1.18310  -0.12564   0.15400  -0.00334
  0-1A  ->  7-1A    3.599923   29035.3   344.4  -24.00268  -0.04291   0.05180   0.41155
  0-1A  ->  8-1A    3.609299   29111.0   343.5   34.81752  -0.10290   0.12655  -0.21703
  0-1A  ->  9-1A    3.677099   29657.8   337.2   -5.89214   0.00999  -0.01117  -0.54767
  0-1A  -> 10-1A    3.755727   30292.0   330.1   -0.81866   0.00165   0.00137   0.00026
  0-1A  -> 11-1A    3.939147   31771.4   314.7   -0.39834   0.04591   0.03752   0.00024
  0-1A  -> 12-1A    3.986528   32153.5   311.0    0.00767  -0.00081   0.00008   0.30453
  0-1A  -> 13-1A    4.012189   32360.5   309.0   -0.06473  -0.00178  -0.00152   0.00004
  0-1A  -> 14-1A    4.100903   33076.0   302.3   -0.54476   0.00089   0.00090   0.00049
  0-1A  -> 15-1A    4.189201   33788.2   296.0   -0.07192   0.00053   0.00045  -0.00022
  0-1A  -> 16-1A    4.239730   34195.7   292.4    0.25534  -0.00079   0.00057   0.14395
  0-1A  -> 17-1A    4.354769   35123.6   284.7   -0.22362   0.00089   0.00084   0.00028
  0-1A  -> 18-1A    4.368011   35230.4   283.8    1.05203   0.00021  -0.00065   0.21645
  0-1A  -> 19-1A    4.659786   37583.7   266.1   -0.06113  -0.00208  -0.00171  -0.00040
  0-1A  -> 20-1A    4.764150   38425.5   260.2    0.87178  -0.00174   0.00159   0.19207
  0-1A  -> 21-1A    5.026477   40541.3   246.7    2.96099   0.00366  -0.00263  -0.75481
  0-1A  -> 22-1A    5.215066   42062.3   237.7    0.90233   0.00186  -0.00204   0.02990
  0-1A  -> 23-1A    5.331447   43001.0   232.6    0.09107   0.00043  -0.00047  -0.00880
  0-1A  -> 24-1A    5.334578   43026.3   232.4   -0.19654   0.00089   0.00086   0.00076
  0-1A  -> 25-1A    5.547083   44740.2   223.5   -0.09077   0.00731   0.00594   0.00001
  0-1A  -> 26-1A    5.599493   45163.0   221.4    0.25316   0.01473   0.01219   0.00021
  0-1A  -> 27-1A    5.626064   45377.3   220.4   -0.64743   0.00241   0.00216  -0.00047
  0-1A  -> 28-1A    5.632824   45431.8   220.1    0.57833  -0.00172  -0.00131  -0.00026
  0-1A  -> 29-1A    5.662900   45674.4   218.9   -0.37186   0.00012   0.00039  -0.26106
  0-1A  -> 30-1A    5.688288   45879.1   218.0    0.03131   0.00476   0.00386  -0.00031

Total run time:     7039.658 sec

           *** ORCA-CIS/TD-DFT FINISHED WITHOUT ERROR ***
-----------------------
CIS/TD-DFT TOTAL ENERGY
-----------------------

    E(SCF)  =   -991.319128876 Eh
    DE(CIS) =      0.081989772 Eh (Root  1)
    ----------------------------- ---------
    E(tot)  =   -991.237139105 Eh


Maximum memory used throughout the entire CIS-calculation: 1573.6 MB
=> NOW LEAVING ORCA_CIS

-------------------------   --------------------
FINAL SINGLE POINT ENERGY      -991.237139104584
-------------------------   --------------------



           ************************************************************
           *        Program running with 4 parallel MPI-processes     *
           *              working on a common directory               *
           ************************************************************

------------------------------------------------------------------------------
                              ORCA PROPERTY CALCULATIONS
------------------------------------------------------------------------------

GBWName                                 ... tddft.gbw
Number of atoms                         ...     40
Number of basis functions               ...    840
Max core memory                         ...   3000 MB

Electric properties:
Dipole moment                           ... YES
Quadrupole moment                       ...  NO
Static polarizability (Dipole/Dipole)   ...  NO
Static polarizability (Dipole/Quad.)    ...  NO
Static polarizability (Quad./Quad.)     ...  NO
Static polarizability (Velocity)        ...  NO
Static hyperpolarizability              ...  NO

Atomic electric properties:
Dipole moment                           ...  NO
Quadrupole moment                       ...  NO
Static polarizability                   ...  NO

Choice of electric origin               ... Center of mass
Position of electric origin             ...     0.027872     0.039055     0.014275

General magnetic properties:
Magnetizability                         ...  NO

EPR properties:
g-Tensor (aka g-matrix)                 ...  NO
Zero-Field splitting spin-orbit         ...  NO
Zero-field splitting spin-spin          ...  NO
Hyperfine couplings                     ...  NO (   0 nuclei)
Quadrupole couplings                    ...  NO (   0 nuclei)
Contact density                         ...  NO (   0 nuclei)

NMR properties:
Chemical shifts                         ...  NO (   0 nuclei)
Spin-rotation constants                 ...  NO (   0 nuclei)
Spin-spin couplings                     ...  NO (   0 nuclei,    0 pairs)

Choice of magnetic origin               ... GIAO
Position of magnetic origin             ...     0.000000     0.000000     0.000000

Properties with geometric perturbations:
SCF Hessian                             ...  NO
IR spectrum                             ...  NO
VCD spectrum                            ...  NO
X-ray spectroscopy properties:
SCF XES/XAS/RIXS spectra                ...  NO

SCF SOC stabilization energy            ...  NO
Diagonal Born-Oppenheimer correction    ...  NO

-------------
DIPOLE MOMENT
-------------

Method             : SCF
Type of density    : Electron Density
Multiplicity       :   1
Irrep              :   0
Energy             :  -991.3191288763250668 Eh
Basis              : AO
                                X                 Y                 Z
Electronic contribution:     -5.094788473      -4.157874565      -0.015065998
Nuclear contribution   :      6.179261674       5.041669180       0.018645980
                        -----------------------------------------
Total Dipole Moment    :      1.084473201       0.883794615       0.003579981
                        -----------------------------------------
Magnitude (a.u.)       :      1.398995304
Magnitude (Debye)      :      3.555963466



--------------------
Rotational spectrum 
--------------------
 
Rotational constants in cm-1:             0.008875             0.008531             0.004357 
Rotational constants in MHz :           266.075502           255.748443           130.616067 

Dipole components along the rotational axes: 
x,y,z [a.u.] :     1.398988    -0.004357     0.001444 
x,y,z [Debye]:     3.555944    -0.011074     0.003671 

 

Dipole moment calculation done in   0.1 sec 

Maximum memory used throughout the entire PROP-calculation: 84.4 MB

--------------------------------
SUGGESTED CITATIONS FOR THIS RUN
--------------------------------

Below you find a list of papers that are relevant to this ORCA run
We neither can nor want to force you to cite these papers, but we appreciate if you do
You receive ORCA, which is the product of decades of hard work by many enthusiastic individuals, for free
The only thing we kindly ask in return is that you cite our papers,
We deeply appreciate it, if you show your appreciation for ORCA by not just citing the generic ORCA reference.

Please note that relegating all ORCA citations to the supporting information does *not* help us.
SI sections are not indexed - citations you put there will not count into any citation statistics
But we need these citations in order to attract the funding resources that allow us to do what we are doing

Therefore, if you are a happy ORCA user, please consider citing a few of the papers listed below in the main body of your paper

In addition to the list printed below, the program has created the file tddft.bibtex that contains the list in bibtex format
You can import this file easily into all common literature databanks and citation aid programs

It goes without saying that in many instances, there are alternative algorithms to achieve similar
results as the ones you have gotten from ORCA. It is, of course, also the case that in some instances
ORCA just re-implements algorithms worked out by others. We are fully aware of that and we are also
fully appreciative of our colleagues work. Hence this citation list should not be read as indicating
that the listed papers, which are focused on our own work, are the only ones worth citing. It simply
meant to make it easier for users to cite ORCA specific papers. It is not a substitute for doing your
own literature research and citing the relevant literature in a scientifically appropriate manner.

List of essential papers. We consider these as the minimum necessary citations

  1. Neese, F.
     Software update: the ORCA program system, version 6.0
     WIRES Comput. Molec. Sci. 2025 15(1), e70019
     doi.org/10.1002/wcms.70019

List of papers to cite with high priority. The work reported in these papers was absolutely
necessary for this run to complete.
Our perspective: the developers of density functionals and basis sets usually get cited in chemistry papers
Good! But without the algorithms to do something with them, the functionals or basis sets would not do anything.
Hence, in our opinion, the algorithm design and method developments papers are equally worthy of getting cited

  1. Neese, F.; Olbrich, G.
     Efficient use of the resolution of the identity approximation in time-dependent density functional calculations with hybrid density functionals
     Chem. Phys. Lett. 2002 362 , 170-178
     doi.org/10.1016/s0009-2614(02)01053-9
  2. Neese, F.
     An improvement of the resolution of the identity approximation for the formation of the Coulomb matrix
     J. Comp. Chem. 2003 24(14), 1740-1747
     doi.org/10.1002/jcc.10318
  3. Garcia-Rates, M.; Neese, F.
     Effect of the Solute Cavity on the Solvation Energy and its Derivatives within the Framework of the Gaussian Charge Scheme
     J. Comput. Chem. 2020 41 , 922-939
     doi.org/10.1002/jcc.26139
  4. Neese, F.
     The SHARK Integral Generation and Digestion System
     J. Comp. Chem. 2022 44(3), 381
     doi.org/10.1002/jcc.26942

List of suggested additional citations. These are papers that are important in the 'surrounding' of 
of this run, or papers that preceded the highly important papers. If you like your results we are grateful for a citation.

  1. Neese, F.
     The ORCA program system
     WIRES Comput. Molec. Sci. 2012 2(1), 73-78
     doi.org/10.1002/wcms.81
  2. Neese, F.
     Software update: the ORCA program system, version 4.0
     WIRES Comput. Molec. Sci. 2018 8(1), 1-6
     doi.org/10.1002/wcms.1327
  3. Neese, F.; Wennmohs, F.; Becker, U.; Riplinger, C.
     The ORCA quantum chemistry program package
     J. Chem. Phys. 2020 152(22), 224108
     doi.org/10.1063/5.0004608
  4. Neese, F.
     Software update: The ORCA program system—Version 5.0
     WIRES Comput. Molec. Sci. 2022 12(1), e1606
     doi.org/10.1002/wcms.1606

List of optional additional citations

  1. Neese, F.
     Approximate second-order SCF convergence for spin unrestricted wavefunctions
     Chem. Phys. Lett. 2000 325(1-3), 93-98
     doi.org/10.1016/s0009-2614(00)00662-x

Timings for individual modules:

Sum of individual times          ...     7179.941 sec (= 119.666 min)
Startup calculation              ...       14.658 sec (=   0.244 min)   0.2 %
SCF iterations                   ...      121.961 sec (=   2.033 min)   1.7 %
Property integrals               ...        1.327 sec (=   0.022 min)   0.0 %
Property calculations            ...        1.686 sec (=   0.028 min)   0.0 %
CIS module                       ...     7040.310 sec (= 117.338 min)  98.1 %
                             ****ORCA TERMINATED NORMALLY****
TOTAL RUN TIME: 0 days 1 hours 59 minutes 40 seconds 555 msec
