
                                 *****************
                                 * O   R   C   A *
                                 *****************

                                            #,                                       
                                            ###                                      
                                            ####                                     
                                            #####                                    
                                            ######                                   
                                           ########,                                 
                                     ,,################,,,,,                         
                               ,,#################################,,                 
                          ,,##########################################,,             
                       ,#########################################, ''#####,          
                    ,#############################################,,   '####,        
                  ,##################################################,,,,####,       
                ,###########''''           ''''###############################       
              ,#####''   ,,,,##########,,,,          '''####'''          '####       
            ,##' ,,,,###########################,,,                        '##       
           ' ,,###''''                  '''############,,,                           
         ,,##''                                '''############,,,,        ,,,,,,###''
      ,#''                                            '''#######################'''  
     '                                                          ''''####''''         
             ,#######,   #######,   ,#######,      ##                                
            ,#'     '#,  ##    ##  ,#'     '#,    #''#        ,####,    ,#,          
            ##       ##  ##   ,#'  ##            #'  '#       #'       ,# #          
            ##       ##  #######   ##           ,######,      #####,      #          
            '#,     ,#'  ##    ##  '#,     ,#' ,#      #,     #,   #      #          
             '#######'   ##     ##  '#######'  #'      '#     '####' #    #          



                #########################################################
                #                        -***-                          #
                #          Department of theory and spectroscopy        #
                #                                                       #
                #                      Frank Neese                      #
                #                                                       #
                #     Directorship, Architecture, Infrastructure        #
                #                    SHARK, DRIVERS                     #
                #        Core code/Algorithms in most modules           #
                #                                                       #
                #        Max Planck Institute fuer Kohlenforschung      #
                #                Kaiser Wilhelm Platz 1                 #
                #                 D-45470 Muelheim/Ruhr                 #
                #                      Germany                          #
                #                                                       #
                #                  All rights reserved                  #
                #                        -***-                          #
                #########################################################


                         Program Version 6.1.1  -  RELEASE   -
                                (GIT: $487d211c$)
                          ($2025-11-21 10:33:24 +0100$)


 With contributions from (in alphabetic order):
[Max-Planck-Institut fuer Kohlenforschung]                               
  Daniel Aravena         : Magnetic Suceptibility                        
  Michael Atanasov       : Ab Initio Ligand Field Theory (pilot matlab implementation)
  Alexander A. Auer      : GIAO ZORA, VPT2 properties, NMR spectrum      
  Ute Becker             : All parallelization in ORCA, NUMFREQ, NUMCALC 
  Giovanni Bistoni       : ED, misc. LED, open-shell LED, HFLD           
  Dmytro Bykov           : pre 5.0 version of the SCF Hessian            
  Marcos Casanova-Páez   : Triplet and SCS-CIS(D). UHF-(DLPNO)-IP/EA/STEOM-CCSD. UHF-CVS-IP/STEOM-CCSD   
  Vijay G. Chilkuri      : MRCI spin determinant printing, contributions to CSF-ICE 
  Pauline Colinet        : FMM embedding                                 
  Dipayan Datta          : RHF DLPNO-CCSD density                        
  Achintya Kumar Dutta   : EOM-CC, STEOM-CC                              
  Nicolas Foglia         : Exact transition moments, OPA infrastructure, MCD improvements    
  Dmitry Ganyushin       : Spin-Orbit,Spin-Spin,Magnetic field MRCI      
  Miquel Garcia-Rates    : C-PCM and meta-GGA Hessian, CCSD/C-PCM, Gaussian charge scheme 
  Tiago L. C. Gouveia    : GS-ROHF, GS-ROCIS                             
  Yang Guo               : DLPNO-NEVPT2, F12-NEVPT2, CIM, IAO-localization        
  Andreas Hansen         : Spin unrestricted coupled pair/coupled cluster methods 
  Ingolf Harden          : AUTO-CI MPn and infrastructure                
  Benjamin Helmich-Paris : MC-RPA, TRAH-(SCF,CASSCF), AVAS, COSX integrals, SCF dyn. polar., MC-PDFT, srDFT 
  Lee Huntington         : MR-EOM, pCC                                   
  Robert Izsak           : Overlap fitted RIJCOSX, COSX-SCS-MP3, EOM     
  Riya Kayal             : Wick's Theorem for AUTO-CI, AUTO-CI UHF-CCSDT 
  Emily Kempfer          : AUTO-CI RHF CISDT and CCSDT, approximate NEVPT4
  Christian Kollmar      : KDIIS, OOCD, Brueckner-CCSD(T), CCSD density, CASPT2, CASPT2-K, improved NEVPT2 
  Axel Koslowski         : Symmetry handling                             
  Simone Kossmann        : meta-GGA functionals, TD-DFT gradient, OOMP2, (MP2 Hessian; deprecated post 5.0) 
  Lucas Lang             : DCDCAS, Hyperfine gauge corrections, ICE-SOC+SSC
  Marvin Lechner         : AUTO-CI (C++ implementation), FIC-MRCC        
  Spencer Leger          : CASSCF response                               
  Dagmar Lenk            : GEPOL surface, SMD, ORCA-2-JSON               
  Dimitrios Liakos       : Extrapolation schemes; Compound Job, Property file
  Dimitrios Manganas     : Further ROCIS development; embedding schemes. LFT, Crystal Embedding 
  Dimitrios Pantazis     : SARC Basis sets                               
  Anastasios Papadopoulos: AUTO-CI, single reference methods and gradients 
  Taras Petrenko         : pre 6.0 DFT Hessian and TD-DFT gradient,  ECA, NRVS 
  Petra Pikulova         : Analytic Raman intensities                    
  Peter Pinski           : DLPNO-MP2, DLPNO-MP2 Gradient                 
  Shashank Vittal Rao    : ES-AILFT, MagRelax                            
  Christoph Reimann      : Effective Core Potentials                     
  Marius Retegan         : Local ZFS, SOC                                
  Christoph Riplinger    : Optimizer, TS searches, QM/MM, DLPNO-CCSD(T), (RO)-DLPNO pert. Triples 
  Michael Roemelt        : Original ROCIS implementation, recursive CI coupling coefficients
  Masaaki Saitow         : Open-shell DLPNO-CCSD energy and density      
  Barbara Sandhoefer     : DKH picture change effects                    
  Yorick L. A. Schmerwitz: GMF and freeze-and-release deltaSCF, NEB S-IDPP initial path                    
  Kantharuban Sivalingam : CASSCF convergence/infrastructure, NEVPT2, NEVPT3, NEVPT4(SD), FIC-MRCI and CEPA variants
  Bernardo de Souza      : ESD, SOC TD-DFT                               
  Georgi L. Stoychev     : AutoAux, RI-MP2 NMR, DLPNO-MP2 response, X2C  
  Van Anh Tran           : RI-MP2 g-tensors                              
  Willem Van den Heuvel  : Paramagnetic NMR                              
  Zikuan Wang            : NOTCH, Electric field optimization            
  Frank Wennmohs         : Technical directorship and infrastructure     
  Hang Xu                : AUTO-CI-Response properties                   
                                                                         
[FACCTs GmbH]                                                            
  Markus Bursch, Nicolas Foglia, Miquel Garcia-Rates, Ingolf Harden, Hagen Neugebauer, Anastasios Papadopoulos, 
  Christoph Riplinger, Bernardo de Souza, Georgi L. Stoychev                                                    
                                                                 
  APM, various basis sets, CI-OPT, improved COSX, DLPNO-Multilevel,           
  DOCKER, DRACO, updates on ESD, Fragmentator, GOAT, IRC, LR-CPCM, L-BFGS, MBIS, meta-GGA TD-DFT gradient, ML-optimized integration grids, 
  MM, NACMEs, nearIR, NEB, NEB-TS, NL-DFT gradient (VV10), 2- and 3-layer-ONIOM, interface openCOSMO-RS, QMMM,   
  Crystal-QMMM, RESP, rigid body optimization, SF, symmetry and pop. for TD-DFT, various functionals, SOLVATOR                                   
                                                                         
[Other institutions]                                                     
  V. Asgeirsson          : NEB                                           
  Christoph Bannwarth    : sTDA-DFT, sTD-DFT, PBEh-3c, B97-3c, D3        
  Giovanni Bistoni       : ETS/NOCV, ADLD/ADEX, COVALED                  
  Martin Brehm           : Molecular dynamics                            
  Ronald Cardenas        : ETS/NOCV                                      
  Martina Colucci        : COVALED                                       
  Sebastian Ehlert       : rSCAN, r2SCAN, r2SCAN-3c, D4, dhf basis sets  
  Marvin Friede          : D4 for Fr, Ra, Ac-Lr                          
  Lars Goerigk           : TD-DFT with DH, B97 family of functionals     
  Stefan Grimme          : VdW corrections, initial TS optimization, DFT functionals, gCP, sTDA/sTD-DF 
  Waldemar Hujo          : DFT-NL                                        
  H. Jonsson             : NEB                                           
  Holger Kruse           : gCP                                           
  Marcel Mueller         : wB97X-3c, vDZP basis set                      
  Hagen Neugebauer       : wr2SCAN, Native XTB                           
  Gianluca Regni         : ADLD/ADEX                                     
  Tobias Risthaus        : pre 6.0 range-separated hybrid DFT and stability analysis
  Lukas Wittmann         : regularized MP2, r2SCAN double-hybrids, wr2SCAN        
                                                                         
We gratefully acknowledge several colleagues who have allowed us to      
interface, adapt or use parts of their codes:                            
  Ed Valeev, F. Pavosevic, A. Kumar             : LibInt (2-el integral package), F12 methods 
  Garnet Chan, S. Sharma, J. Yang, R. Olivares  : DMRG                   
  Ulf Ekstrom                                   : XCFun DFT Library      
  Mihaly Kallay                                 : mrcc  (arbitrary order and MRCC methods)
  Frank Weinhold                                : gennbo (NPA and NBO analysis)           
  Simon Mueller                                 : openCOSMO-RS                            
  Christopher J. Cramer and Donald G. Truhlar   : smd solvation model                     
  S Lehtola, MJT Oliveira, MAL Marques          : LibXC Library                           
  Liviu Ungur et al                             : ANISO software                          


 Your calculation uses the libint2 library for the computation of 2-el integrals
 For citations please refer to: http://libint.valeyev.net

 Your ORCA version has been built with support for libXC version: 7.0.0
 For citations please refer to: https://libxc.gitlab.io

 This ORCA versions uses:
   CBLAS   interface :  Fast vector & matrix operations
   LAPACKE interface :  Fast linear algebra routines
   SCALAPACK package :  Parallel linear algebra routines
   Shared memory     :  Shared parallel matrices
   BLAS/LAPACK       :  OpenBLAS 0.3.29  USE64BITINT DYNAMIC_ARCH NO_AFFINITY Haswell SINGLE_THREADED
        Core in use  :  Haswell
   Copyright (c) 2011-2014, The OpenBLAS Project


  ***********************************
  * Starting time: Sat Jul  4 18:05:06 2026
  * Host name:     steezy
  * Process ID:    1141156
  * Working dir.:  /home/jannes/chlorophyll-ladder/006-core-ladder/porphin/03_tddft_ch2cl2/tpss
  ***********************************

NOTE: MaxCore=3000 MB was set to SCF,MP2,MDCI,CIPSI,MRCI,RASCI and CIS
      => If you want to overwrite this, your respective input block should be placed after the MaxCore statement


***************************************
The coordinates will be read from file: /home/jannes/chlorophyll-ladder/006-core-ladder/porphin/01_opt/porphin_opt_b3lypd4_tzvp.xyz
***************************************


================================================================================

----- Orbital basis set information -----
Your calculation utilizes the basis: def2-TZVP
   F. Weigend and R. Ahlrichs, Phys. Chem. Chem. Phys. 7, 3297 (2005).

----- AuxJ basis set information -----
Your calculation utilizes the auxiliary basis: def2/J
   H-Rn: F. Weigend, Phys. Chem. Chem. Phys. 8, 1057 (2006).
   Fr-Lr: K. Eichkorn, F. Weigend, O. Treutler, R. Ahlrichs; Theor. Chem. Acc. 97, 119 (1997).

================================================================================
                                        WARNINGS
                       Please study these warnings very carefully!
================================================================================

WARNING: Old DensityContainer found on disk!
         Will remove this file - 
         If you want to keep old densities, please start your calculation with a different basename. 



WARNING: Found flag for RIJCOSX approximation but no HF exchange needed!
  ===> : RIJCOSX  will be disabled and Split-RI-J is turned on

WARNING: CIS/ROCIS methods need fully converged wavefunctions
  ===> : Setting SCFConvForced true
         You can overwrite this default with %scf ConvForced false 


================================================================================
                                       INPUT FILE
================================================================================
NAME = tddft.inp
|  1> %pal nprocs 4 end
|  2> %maxcore 3000
|  3> ! TPSS def2-TZVP def2/J RIJCOSX DefGrid3 TightSCF CPCM(CH2Cl2)
|  4> %tddft
|  5>   nroots 30
|  6>   tda false
|  7>   triplets false
|  8> end
|  9> * xyzfile 0 1 /home/jannes/chlorophyll-ladder/006-core-ladder/porphin/01_opt/porphin_opt_b3lypd4_tzvp.xyz
| 10> 
| 11>                          ****END OF INPUT****
================================================================================

                       ****************************
                       * Single Point Calculation *
                       ****************************

---------------------------------
CARTESIAN COORDINATES (ANGSTROEM)
---------------------------------
  N     -2.180891    2.518466    3.532389
  H      1.690443   -2.236382    3.933896
  C     -4.367841    3.017687    3.515126
  C     -0.395315   -1.565610    3.903357
  N      0.088551    0.689208    3.671590
  C      0.950736   -1.453154    3.869075
  H     -0.990663   -2.460360    4.002368
  C      2.882772    1.818374    3.512765
  N     -0.256644    4.697916    3.282877
  C     -1.118820    6.840288    3.085562
  C      2.527769    0.484722    3.650265
  C      2.690769    4.048684    3.296192
  N      2.012819    2.868614    3.422204
  C      4.083084    3.724839    3.307617
  C     -0.919803   -0.214146    3.778525
  C      1.236865   -0.033970    3.723482
  C     -2.858871    1.338374    3.658064
  H     -1.173514    2.603115    3.511443
  H      1.005441    2.783922    3.442823
  C     -3.050836    3.568698    3.441639
  C     -4.251194    1.662224    3.646465
  C     -2.280939    0.082808    3.772232
  C     -2.695851    4.902359    3.304255
  C      4.199763    2.369381    3.439069
  C     -1.404950    5.421089    3.231097
  C      0.227221    6.952725    3.051110
  C      2.112836    5.304259    3.182028
  C      0.751725    5.601268    3.175906
  H     -5.273861    3.600151    3.470570
  H     -5.044736    0.937212    3.728720
  H     -2.966724   -0.749445    3.865261
  H      3.346095   -0.221478    3.707096
  H      5.105812    1.786953    3.483475
  H      4.876640    4.449816    3.225158
  H      2.798652    6.136469    3.088803
  H      0.822550    7.847490    2.952095
  H     -3.514168    5.608569    3.247399
  H     -1.858503    7.623554    3.020905

----------------------------
CARTESIAN COORDINATES (A.U.)
----------------------------
  NO LB      ZA    FRAG     MASS         X           Y           Z
   0 N     7.0000    0    14.007   -4.121286    4.759210    6.675248
   1 H     1.0000    0     1.008    3.194474   -4.226150    7.433986
   2 C     6.0000    0    12.011   -8.254023    5.702602    6.642626
   3 C     6.0000    0    12.011   -0.747036   -2.958575    7.376276
   4 N     7.0000    0    14.007    0.167337    1.302415    6.938300
   5 C     6.0000    0    12.011    1.796630   -2.746063    7.311492
   6 H     1.0000    0     1.008   -1.872083   -4.649406    7.563380
   7 C     6.0000    0    12.011    5.447650    3.436230    6.638163
   8 N     7.0000    0    14.007   -0.484987    8.877775    6.203739
   9 C     6.0000    0    12.011   -2.114264   12.926270    5.830868
  10 C     6.0000    0    12.011    4.776792    0.915991    6.898001
  11 C     6.0000    0    12.011    5.084817    7.650904    6.228900
  12 N     7.0000    0    14.007    3.803677    5.420894    6.467028
  13 C     6.0000    0    12.011    7.715910    7.038925    6.250490
  14 C     6.0000    0    12.011   -1.738176   -0.404677    7.140378
  15 C     6.0000    0    12.011    2.337336   -0.064195    7.036362
  16 C     6.0000    0    12.011   -5.402483    2.529161    6.912740
  17 H     1.0000    0     1.008   -2.217620    4.919174    6.635666
  18 H     1.0000    0     1.008    1.900007    5.260849    6.505992
  19 C     6.0000    0    12.011   -5.765244    6.743862    6.503755
  20 C     6.0000    0    12.011   -8.033592    3.141148    6.890820
  21 C     6.0000    0    12.011   -4.310349    0.156485    7.128485
  22 C     6.0000    0    12.011   -5.094419    9.264115    6.244138
  23 C     6.0000    0    12.011    7.936402    4.477482    6.498898
  24 C     6.0000    0    12.011   -2.654970   10.244374    6.105888
  25 C     6.0000    0    12.011    0.429385   13.138747    5.765762
  26 C     6.0000    0    12.011    3.992682   10.023597    6.013161
  27 C     6.0000    0    12.011    1.420554   10.584862    6.001593
  28 H     1.0000    0     1.008   -9.966153    6.803300    6.558426
  29 H     1.0000    0     1.008   -9.533170    1.771074    7.046259
  30 H     1.0000    0     1.008   -5.606296   -1.416247    7.304285
  31 H     1.0000    0     1.008    6.323203   -0.418534    7.005396
  32 H     1.0000    0     1.008    9.648586    3.376852    6.582814
  33 H     1.0000    0     1.008    9.215514    8.408934    6.094665
  34 H     1.0000    0     1.008    5.288685   11.596245    5.836991
  35 H     1.0000    0     1.008    1.554393   14.829606    5.578651
  36 H     1.0000    0     1.008   -6.640815   10.598659    6.136694
  37 H     1.0000    0     1.008   -3.512061   14.406429    5.708684

--------------------------------
INTERNAL COORDINATES (ANGSTROEM)
--------------------------------
 N      0   0   0     0.000000000000     0.00000000     0.00000000
 H      1   0   0     6.144673229395     0.00000000     0.00000000
 C      1   2   0     2.243272391530   141.89876199     0.00000000
 C      2   1   3     2.191175978699    33.12144035   359.78196922
 N      4   2   1     2.317768042295    95.76702730     0.05041047
 C      2   1   3     1.079266249219     4.21370891     0.07915914
 H      4   2   1     1.079268154455   105.66535074   180.05560002
 C      5   4   2     3.017932326686   124.23173975   359.97265948
 N      1   2   6     2.918045108678    99.67616098   180.35207023
 C      9   1   2     2.317765511693   116.89442777   179.97808325
 C      8   5   4     1.386925732322    52.98756772     0.03785122
 C      8   5   4     2.249010893586   107.28141435   180.03816109
 N      8   5   4     1.366756111009    72.64238625   179.95789291
 C     12   8   5     1.429526220242    72.02656814   179.86646412
 C      5   4   2     1.358035743233    35.90327310   180.00368341
 C      5   4   2     1.358052178109    69.79697305     0.00000000
 C      1   2   6     1.366772292242    68.80094450     0.21857691
 H      1   2   6     1.011143908013    55.83702380   179.99401983
 H     13   8   5     1.011142399064   124.64063398   359.69569907
 C      1   2   6     1.366758138321   179.51311626   348.83759675
 C      3   1   2     1.366797559489    72.26372871     0.13506297
 C     17   1   2     1.386897788060   125.62778630     0.05508444
 C     20   1  18     1.386917453648   125.63133011     0.18593759
 C     14  12   8     1.366806197569   107.97320808     0.00000000
 C      9   1   2     1.358037856131    80.99028717   179.97367567
 C     10   9   1     1.351168367092    73.05307946   179.99423387
 C     12   8   5     1.386906342426   160.26769765   359.97153859
 C      9   1   2     1.358047941200   173.30861488   359.93543063
 H      3   1   2     1.078017863511   160.03617534   180.21836084
 H     21   3   1     1.078015481635   127.69627650   180.02779321
 H     22  17   1     1.082405877126   116.04909900   179.92532307
 H     11   8   5     1.082407332853   116.04421957   180.06654092
 H     24  14  12     1.078015962244   127.69819998   180.03058896
 H     14  12   8     1.078017967300   124.33296377   180.03202002
 H     27  12   8     1.082407600124   116.04702151   179.99456629
 H     26  10   9     1.079269782346   128.37740192   179.99605738
 H     23  20   1     1.082408536204   116.04576671   180.03676831
 H     10   9   1     1.079266886998   158.56973537     0.00000000

---------------------------
INTERNAL COORDINATES (A.U.)
---------------------------
 N      0   0   0     0.000000000000     0.00000000     0.00000000
 H      1   0   0    11.611749585994     0.00000000     0.00000000
 C      1   2   0     4.239170463779   141.89876199     0.00000000
 C      2   1   3     4.140722510968    33.12144035   359.78196922
 N      4   2   1     4.379946841893    95.76702730     0.05041047
 C      2   1   3     2.039517636609     4.21370891     0.07915914
 H      4   2   1     2.039521236983   105.66535074   180.05560002
 C      5   4   2     5.703065588145   124.23173975   359.97265948
 N      1   2   6     5.514306101830    99.67616098   180.35207023
 C      9   1   2     4.379942059747   116.89442777   179.97808325
 C      8   5   4     2.620909802176    52.98756772     0.03785122
 C      8   5   4     4.250014661082   107.28141435   180.03816109
 N      8   5   4     2.582794741670    72.64238625   179.95789291
 C     12   8   5     2.701413057517    72.02656814   179.86646412
 C      5   4   2     2.566315634787    35.90327310   180.00368341
 C      5   4   2     2.566346692200    69.79697305     0.00000000
 C      1   2   6     2.582825319768    68.80094450     0.21857691
 H      1   2   6     1.910785068128    55.83702380   179.99401983
 H     13   8   5     1.910782216628   124.64063398   359.69569907
 C      1   2   6     2.582798572734   179.51311626   348.83759675
 C      3   1   2     2.582873067947    72.26372871     0.13506297
 C     17   1   2     2.620856995174   125.62778630     0.05508444
 C     20   1  18     2.620894157749   125.63133011     0.18593759
 C     14  12   8     2.582889391552   107.97320808     0.00000000
 C      9   1   2     2.566319627585    80.99028717   179.97367567
 C     10   9   1     2.553338174621    73.05307946   179.99423387
 C     12   8   5     2.620873160584   160.26769765   359.97153859
 C      9   1   2     2.566338685603   173.30861488   359.93543063
 H      3   1   2     2.037158529510   160.03617534   180.21836084
 H     21   3   1     2.037154028418   127.69627650   180.02779321
 H     22  17   1     2.045450673515   116.04909900   179.92532307
 H     11   8   5     2.045453424440   116.04421957   180.06654092
 H     24  14  12     2.037154936637   127.69819998   180.03058896
 H     14  12   8     2.037158725644   124.33296377   180.03202002
 H     27  12   8     2.045453929509   116.04702151   179.99456629
 H     26  10   9     2.039524313251   128.37740192   179.99605738
 H     23  20   1     2.045455698445   116.04576671   180.03676831
 H     10   9   1     2.039518841837   158.56973537     0.00000000

---------------------
BASIS SET INFORMATION
---------------------
There are 3 groups of distinct atoms

 Group   1 Type N   : 11s6p2d1f contracted to 5s3p2d1f pattern {62111/411/11/1}
 Group   2 Type H   : 5s1p contracted to 3s1p pattern {311/1}
 Group   3 Type C   : 11s6p2d1f contracted to 5s3p2d1f pattern {62111/411/11/1}

Atom   0N    basis set group =>   1
Atom   1H    basis set group =>   2
Atom   2C    basis set group =>   3
Atom   3C    basis set group =>   3
Atom   4N    basis set group =>   1
Atom   5C    basis set group =>   3
Atom   6H    basis set group =>   2
Atom   7C    basis set group =>   3
Atom   8N    basis set group =>   1
Atom   9C    basis set group =>   3
Atom  10C    basis set group =>   3
Atom  11C    basis set group =>   3
Atom  12N    basis set group =>   1
Atom  13C    basis set group =>   3
Atom  14C    basis set group =>   3
Atom  15C    basis set group =>   3
Atom  16C    basis set group =>   3
Atom  17H    basis set group =>   2
Atom  18H    basis set group =>   2
Atom  19C    basis set group =>   3
Atom  20C    basis set group =>   3
Atom  21C    basis set group =>   3
Atom  22C    basis set group =>   3
Atom  23C    basis set group =>   3
Atom  24C    basis set group =>   3
Atom  25C    basis set group =>   3
Atom  26C    basis set group =>   3
Atom  27C    basis set group =>   3
Atom  28H    basis set group =>   2
Atom  29H    basis set group =>   2
Atom  30H    basis set group =>   2
Atom  31H    basis set group =>   2
Atom  32H    basis set group =>   2
Atom  33H    basis set group =>   2
Atom  34H    basis set group =>   2
Atom  35H    basis set group =>   2
Atom  36H    basis set group =>   2
Atom  37H    basis set group =>   2
---------------------------------
AUXILIARY/J BASIS SET INFORMATION
---------------------------------
There are 3 groups of distinct atoms

 Group   1 Type N   : 12s5p4d2f1g contracted to 6s4p3d1f1g pattern {711111/2111/211/2/1}
 Group   2 Type H   : 5s2p1d contracted to 3s1p1d pattern {311/2/1}
 Group   3 Type C   : 12s5p4d2f1g contracted to 6s4p3d1f1g pattern {711111/2111/211/2/1}

Atom   0N    basis set group =>   1
Atom   1H    basis set group =>   2
Atom   2C    basis set group =>   3
Atom   3C    basis set group =>   3
Atom   4N    basis set group =>   1
Atom   5C    basis set group =>   3
Atom   6H    basis set group =>   2
Atom   7C    basis set group =>   3
Atom   8N    basis set group =>   1
Atom   9C    basis set group =>   3
Atom  10C    basis set group =>   3
Atom  11C    basis set group =>   3
Atom  12N    basis set group =>   1
Atom  13C    basis set group =>   3
Atom  14C    basis set group =>   3
Atom  15C    basis set group =>   3
Atom  16C    basis set group =>   3
Atom  17H    basis set group =>   2
Atom  18H    basis set group =>   2
Atom  19C    basis set group =>   3
Atom  20C    basis set group =>   3
Atom  21C    basis set group =>   3
Atom  22C    basis set group =>   3
Atom  23C    basis set group =>   3
Atom  24C    basis set group =>   3
Atom  25C    basis set group =>   3
Atom  26C    basis set group =>   3
Atom  27C    basis set group =>   3
Atom  28H    basis set group =>   2
Atom  29H    basis set group =>   2
Atom  30H    basis set group =>   2
Atom  31H    basis set group =>   2
Atom  32H    basis set group =>   2
Atom  33H    basis set group =>   2
Atom  34H    basis set group =>   2
Atom  35H    basis set group =>   2
Atom  36H    basis set group =>   2
Atom  37H    basis set group =>   2

Checking for AutoStart:
The File: tddft.gbw exists
Trying to determine its content:
     ... Fine, the file contains calculation information
     ... Fine, the calculation information was read
     ... Fine, the file contains a basis set
     ... Fine, the basis set was read
     ... Fine, the file contains a geometry
     ... Fine, the geometry was read
     ... Fine, the file contains a set of orbitals
     ... Fine, the orbitals can be read
     => possible old guess file was deleted
     => GBW file was renamed to GES file
     => GES file is set as startup file
     => Guess is set to MORead
     ... now leaving AutoStart



           ************************************************************
           *        Program running with 4 parallel MPI-processes     *
           *              working on a common directory               *
           ************************************************************
------------------------------------------------------------------------------
                             ORCA STARTUP CALCULATIONS
                           -- RI-GTO INTEGRALS CHOSEN --
------------------------------------------------------------------------------
------------------------------------------------------------------------------
                   ___                                                        
                  /   \      - P O W E R E D   B Y -                         
                 /     \                                                     
                 |  |  |   _    _      __       _____    __    __             
                 |  |  |  | |  | |    /  \     |  _  \  |  |  /  |          
                  \  \/   | |  | |   /    \    | | | |  |  | /  /          
                 / \  \   | |__| |  /  /\  \   | |_| |  |  |/  /          
                |  |  |   |  __  | /  /__\  \  |    /   |      \           
                |  |  |   | |  | | |   __   |  |    \   |  |\   \          
                \     /   | |  | | |  |  |  |  | |\  \  |  | \   \       
                 \___/    |_|  |_| |__|  |__|  |_| \__\ |__|  \__/        
                                                                              
                      - O R C A' S   B I G   F R I E N D -                    
                                      &                                       
                       - I N T E G R A L  F E E D E R -                       
                                                                              
 v1 FN, 2020, v2 2021, v3 2022-2024                                           
------------------------------------------------------------------------------


----------------------
SHARK INTEGRAL PACKAGE
----------------------

Number of atoms                             ...     38
Number of basis functions                   ...    828
Number of shells                            ...    320
Maximum angular momentum                    ...      3
Integral batch strategy                     ... SHARK/LIBINT Hybrid
RI-J (if used) integral strategy            ... SPLIT-RIJ (Revised 2003 algorithm where possible)
Printlevel                                  ...      1
Contraction scheme used                     ... SEGMENTED contraction
Prescreening option                         ... SCHWARTZ
   Thresh                                   ... 2.500e-11
   Tcut                                     ... 2.500e-12
   Tpresel                                  ... 2.500e-12 
Coulomb Range Separation                    ... NOT USED
Exchange Range Separation                   ... NOT USED
Multipole approximations                    ... NOT USED
Finite Nucleus Model                        ... NOT USED
CABS basis                                  ... NOT available
Auxiliary Coulomb fitting basis             ... AVAILABLE
   # of basis functions in Aux-J            ...   1330
   # of shells in Aux-J                     ...    430
   Maximum angular momentum in Aux-J        ...      4
Auxiliary J/K fitting basis                 ... NOT available
Auxiliary Correlation fitting basis         ... NOT available
Auxiliary 'external' fitting basis          ... NOT available

Checking pre-screening integrals            ... done (  0.0 sec) Dimension = 320
   => SHARK Basis and OBASIS are compatible. Storing Pre-screening
Shell pair information
Shell pair cut-off parameter TPreSel        ...   2.5e-12
Total number of shell pairs                 ...     51360
Shell pairs after pre-screening             ...     36355
Total number of primitive shell pairs       ...    159900
Primitive shell pairs kept                  ...     74234
          la=0 lb=0:   8928 shell pairs
          la=1 lb=0:  10386 shell pairs
          la=1 lb=1:   3015 shell pairs
          la=2 lb=0:   5224 shell pairs
          la=2 lb=1:   3148 shell pairs
          la=2 lb=2:    850 shell pairs
          la=3 lb=0:   2422 shell pairs
          la=3 lb=1:   1488 shell pairs
          la=3 lb=2:    724 shell pairs
          la=3 lb=3:    170 shell pairs

Checking whether 4 symmetric matrices of dimension 828 fit in memory
:Max Core in MB      =   3000.00
 MB in use           =     47.55
 MB left             =   2952.45
 MB needed           =     10.47
 Data fit in memory  = YES
Calculating RI/J V-Matrix + Cholesky decomp.... done (  0.2 sec)
Calculating Nuclear repulsion               ... done (  0.0 sec) ENN=   1861.115687571553 Eh

Diagonalization of the overlap matrix:
Smallest eigenvalue                        ... 1.003e-05
Time for diagonalization                   ...    0.239 sec
Threshold for overlap eigenvalues          ... 1.000e-07
Number of eigenvalues below threshold      ... 0
Time for construction of square roots      ...    0.152 sec
Total time needed                          ...    0.399 sec

-------------------
DFT GRID GENERATION
-------------------

General Integration Accuracy     IntAcc      ... 4.959
Radial Grid Type                 RadialGrid  ... OptM3 with GC (2021)
Angular Grid (max. ang.)         AngularGrid ... 6 (Lebedev-590)
Angular grid pruning method      GridPruning ... 4 (adaptive)
Weight generation scheme         WeightScheme... mBecke (2022)
Basis function cutoff            BFCut       ... 1.0000e-11
Integration weight cutoff        WCut        ... 1.0000e-14
Partially contracted basis set               ... off
Rotationally invariant grid construction     ... off
Angular grids for H and He will be reduced by one unit

Total number of grid points                  ...   459056
Total number of batches                      ...     7194
Average number of points per batch           ...       63
Average number of grid points per atom       ...    12080
Grids setup in  11.3 sec
Initializing property integral containers    ... done (  0.0 sec)

SHARK setup successfully completed in  12.9 seconds

Maximum memory used throughout the entire STARTUP-calculation: 144.4 MB


           ************************************************************
           *        Program running with 4 parallel MPI-processes     *
           *              working on a common directory               *
           ************************************************************
-------------------------------------------------------------------------------
                                 ORCA GUESS
                   Start orbitals & Density for SCF / CASSCF
-------------------------------------------------------------------------------

------------
SCF SETTINGS
------------
Hamiltonian:
 Density Functional     Method          .... DFT(GTOs)
 Exchange Functional    Exchange        .... TPSS
 Correlation Functional Correlation     .... TPSS
 LDA part of GGA corr.  LDAOpt          .... PW91-LDA
 Gradients option       PostSCFGGA      .... off
   NL short-range parameter             ....  5.000000
 RI-approximation to the Coulomb term is turned on
   Number of AuxJ basis functions       .... 1330


General Settings:
 Integral files         IntName         .... tddft
 Hartree-Fock type      HFTyp           .... RHF
 Total Charge           Charge          ....    0
 Multiplicity           Mult            ....    1
 Number of Electrons    NEL             ....  162
 Basis Dimension        Dim             ....  828
 Nuclear Repulsion      ENuc            ....   1861.1156875716 Eh

Convergence Acceleration:
 AO-DIIS                CNVDIIS         .... on
   Start iteration      DIISMaxIt       ....    12
   Startup error        DIISStart       ....  0.200000
   # of expansion vecs  DIISMaxEq       ....     5
   Bias factor          DIISBfac        ....   1.050
   Max. coefficient     DIISMaxC        ....  10.000
 MO-DIIS                CNVKDIIS        .... off
 Trust-Rad. Augm. Hess. CNVTRAH         .... auto
   Auto Start mean grad. ratio tolernc. ....  1.125000
   Auto Start start iteration           ....     1
   Auto Start num. interpolation iter.  ....    10
   Max. Number of Micro iterations      ....    24
   Max. Number of Macro iterations      .... Maxiter - #DIIS iter
   Number of Davidson start vectors     ....     2
   Converg. threshold    (grad. norm)   ....   1.000e-05
   Grad. Scal. Fac. for Micro threshold ....   0.100
   Minimum threshold for Micro iter.    ....   1.000e-02
   NR start threshold (gradient norm)   ....   1.000e-04
   Initial trust radius                 ....   0.400
   Minimum AH scaling param. (alpha)    ....   1.000
   Maximum AH scaling param. (alpha)    .... 1000.000
   Quad. conv. algorithm                .... NR
   White noise on init. David. guess    .... on
   Maximum white noise                  ....   0.010
   Pseudo random numbers                .... off
   Inactive MOs                         .... canonical
   Orbital update algorithm             .... Taylor
   Preconditioner                       .... Diag
   Full preconditioner red. dimension   ....   250
 SOSCF                 CNVSOSCF           .... on
   Start iteration     SOSCFMaxIt         ....   150
   Startup grad/error  SOSCFStart         ....  0.003300
   Hessian update      SOSCFHessUp        .... L-BFGS
   Autom. constraints  SOSCFAutoConstrain .... off
 Level Shifting         CNVShift        .... on
   Level shift para.    LevelShift      ....    0.2500
   Turn off err/grad.   ShiftErr        ....    0.0010
 Zerner damping         CNVZerner       .... off
 Static damping         CNVDamp         .... on
   Fraction old density DampFac         ....    0.7000
   Max. Damping (<1)    DampMax         ....    0.9800
   Min. Damping (>=0)   DampMin         ....    0.0000
   Turn off err/grad.   DampErr         ....    0.1000

SCF Procedure:
 Maximum # iterations   MaxIter         ....   125
 SCF integral mode      SCFMode         .... Direct
   Integral package                     .... SHARK and LIBINT hybrid scheme
 Reset frequency        DirectResetFreq ....    20
 Integral Threshold     Thresh          ....  2.500e-11 Eh
 Primitive CutOff       TCut            ....  2.500e-12 Eh

Convergence Tolerance:
 Convergence Check Mode ConvCheckMode   .... Total+1el-Energy
 Convergence forced     ConvForced      .... 1
 Energy Change          TolE            ....  1.000e-08 Eh
 1-El. energy change                    ....  1.000e-05 Eh
 Orbital Gradient       TolG            ....  1.000e-05
 Orbital Rotation angle TolX            ....  1.000e-05
 DIIS Error             TolErr          ....  5.000e-07

---------------------
INITIAL GUESS: MOREAD
---------------------
Guess MOs are being read from file: tddft.ges
Input Geometry matches current geometry (good)
Input basis set matches current basis set (good)
Occupation numbers will be reassigned to an Aufbau configuration
MOs were renormalized
MOs were reorthogonalized (Cholesky)
                      ------------------
                      INITIAL GUESS DONE (   0.8 sec)
                      ------------------
             **** ENERGY FILE WAS UPDATED (tddft.en.tmp) ****
Finished Guess after   1.4 sec
Maximum memory used throughout the entire GUESS-calculation: 90.5 MB


           ************************************************************
           *        Program running with 4 parallel MPI-processes     *
           *              working on a common directory               *
           ************************************************************

-------------------------------------------------------------------------------------------
                                      ORCA LEAN-SCF
                              memory conserving SCF solver
-------------------------------------------------------------------------------------------

--------------------
CPCM SOLVATION MODEL
--------------------
CPCM parameters:
  Epsilon                                         ...       8.9990
  Refrac                                          ...       1.4242
  Rsolv                                           ...       1.3000
  Surface type                                    ... GAUSSIAN VDW
  Discretization scheme                           ... Constant charge density
    Threshold for H atoms                         ...       5.0000 (charges/Ang^2)
    Threshold for non-H atoms                     ...       5.0000 (charges/Ang^2)
  Epsilon function type                           ...         CPCM
Solvent:                                          ... DICHLOROMETHANE
Radii:
  Scheme                                          ... Element-dependent radii
  Radius for N  used is    3.5149 Bohr (=   1.8600 Ang.)
  Radius for H  used is    2.4944 Bohr (=   1.3200 Ang.)
  Radius for C  used is    3.8550 Bohr (=   2.0400 Ang.)
Calculating surface                               ...        done! (  0.0s)
Cavity surface points                             ...         3512
Cavity Volume                                     ...    2435.1087
Cavity Surface-area                               ...    1185.7219
Calculating surface distance matrix               ...        done! (  0.4s)
Performing Cholesky decomposition & store         ...        done! (  0.8s)
Overall time for CPCM initialization              ...                 1.3s

----------------------------------------D-I-I-S--------------------------------------------
Iteration    Energy (Eh)           Delta-E    RMSDP     MaxDP     DIISErr   Damp  Time(sec)
-------------------------------------------------------------------------------------------
               ***  Starting incremental Fock matrix formation  ***
                              *** Initializing SOSCF ***
---------------------------------------S-O-S-C-F--------------------------------------
Iteration    Energy (Eh)           Delta-E    RMSDP     MaxDP     MaxGrad    Time(sec)
--------------------------------------------------------------------------------------
    1    -990.1075777211001423     0.00e+00  1.71e-05  8.82e-04  7.12e-07    31.2
               *** Restarting incremental Fock matrix formation ***
    2    -990.1075777215471589    -4.47e-10  3.22e-06  1.72e-04  1.30e-06    29.8
                  *** Gradient check signals convergence ***

               *****************************************************
               *                     SUCCESS                       *
               *           SCF CONVERGED AFTER   2 CYCLES          *
               *****************************************************

             **** ENERGY FILE WAS UPDATED (tddft.en.tmp) ****

----------------
TOTAL SCF ENERGY
----------------

Total Energy       :       -990.10757773128421 Eh          -26942.19690 eV

Components:
Nuclear Repulsion  :       1861.11568757155305 Eh           50643.53253 eV
Electronic Energy  :      -2851.20798793485665 Eh          -77585.31371 eV
One Electron Energy:      -5039.08474338402721 Eh         -137120.46694 eV
Two Electron Energy:       2187.87675544917056 Eh           59535.15322 eV
CPCM Dielectric    :         -0.01527736798072 Eh              -0.41572 eV

Virial components:
Potential Energy   :      -1976.28573322327111 Eh          -53777.46879 eV
Kinetic Energy     :        986.17815549198701 Eh           26835.27189 eV
Virial Ratio       :          2.00398449531397

DFT components:
N(Alpha)           :       81.000008950784 electrons
N(Beta)            :       81.000008950784 electrons
N(Total)           :      162.000017901569 electrons
E(X)               :     -136.517007111616 Eh       
E(C)               :       -5.487121754417 Eh       
E(XC)              :     -142.004128866032 Eh       

CPCM Solvation Model Properties:
Surface-charge          :         -0.03450193835005
Corrected charge        :         -0.00000000000000
Outlying charge corr.   :          0.00005692270919 Eh               0.00155 eV
Free-energy (cav+disp)  :  This term is not implemented in the current solvation scheme

---------------
SCF CONVERGENCE
---------------

  Last Energy change         ...    4.4702e-10  Tolerance :   1.0000e-08
  Last MAX-Density change    ...    1.7207e-04  Tolerance :   1.0000e-07
  Last RMS-Density change    ...    3.2151e-06  Tolerance :   5.0000e-09
  Last DIIS Error            ...    3.5721e-06  Tolerance :   5.0000e-07
  Last Orbital Gradient      ...    1.2997e-06  Tolerance :   1.0000e-05
  Last Orbital Rotation      ...    4.8997e-06  Tolerance :   1.0000e-05


----------------
ORBITAL ENERGIES
----------------

  NO   OCC          E(Eh)            E(eV) 
   0   2.0000     -14.141983      -384.8229 
   1   2.0000     -14.141982      -384.8229 
   2   2.0000     -14.078607      -383.0984 
   3   2.0000     -14.078605      -383.0983 
   4   2.0000     -10.035375      -273.0764 
   5   2.0000     -10.035374      -273.0764 
   6   2.0000     -10.035362      -273.0761 
   7   2.0000     -10.035361      -273.0761 
   8   2.0000     -10.016829      -272.5718 
   9   2.0000     -10.016829      -272.5718 
  10   2.0000     -10.016816      -272.5714 
  11   2.0000     -10.016816      -272.5714 
  12   2.0000     -10.000028      -272.1146 
  13   2.0000     -10.000026      -272.1146 
  14   2.0000     -10.000023      -272.1144 
  15   2.0000     -10.000020      -272.1144 
  16   2.0000      -9.996643      -272.0225 
  17   2.0000      -9.996642      -272.0225 
  18   2.0000      -9.996145      -272.0089 
  19   2.0000      -9.996143      -272.0089 
  20   2.0000      -9.984060      -271.6801 
  21   2.0000      -9.984060      -271.6801 
  22   2.0000      -9.983489      -271.6645 
  23   2.0000      -9.983488      -271.6645 
  24   2.0000      -0.931229       -25.3400 
  25   2.0000      -0.929804       -25.3013 
  26   2.0000      -0.885119       -24.0853 
  27   2.0000      -0.882702       -24.0195 
  28   2.0000      -0.765457       -20.8291 
  29   2.0000      -0.744895       -20.2696 
  30   2.0000      -0.740231       -20.1427 
  31   2.0000      -0.738752       -20.1025 
  32   2.0000      -0.734300       -19.9813 
  33   2.0000      -0.704952       -19.1827 
  34   2.0000      -0.704547       -19.1717 
  35   2.0000      -0.692186       -18.8353 
  36   2.0000      -0.668910       -18.2020 
  37   2.0000      -0.613784       -16.7019 
  38   2.0000      -0.606699       -16.5091 
  39   2.0000      -0.558301       -15.1921 
  40   2.0000      -0.553425       -15.0595 
  41   2.0000      -0.550784       -14.9876 
  42   2.0000      -0.541280       -14.7290 
  43   2.0000      -0.534843       -14.5538 
  44   2.0000      -0.528104       -14.3704 
  45   2.0000      -0.514470       -13.9995 
  46   2.0000      -0.505794       -13.7634 
  47   2.0000      -0.475535       -12.9400 
  48   2.0000      -0.466192       -12.6857 
  49   2.0000      -0.458470       -12.4756 
  50   2.0000      -0.453875       -12.3506 
  51   2.0000      -0.420676       -11.4472 
  52   2.0000      -0.406088       -11.0502 
  53   2.0000      -0.403617       -10.9830 
  54   2.0000      -0.403610       -10.9828 
  55   2.0000      -0.400011       -10.8848 
  56   2.0000      -0.398624       -10.8471 
  57   2.0000      -0.388509       -10.5719 
  58   2.0000      -0.385805       -10.4983 
  59   2.0000      -0.378283       -10.2936 
  60   2.0000      -0.374368       -10.1871 
  61   2.0000      -0.374334       -10.1862 
  62   2.0000      -0.362451        -9.8628 
  63   2.0000      -0.358843        -9.7646 
  64   2.0000      -0.343105        -9.3363 
  65   2.0000      -0.342692        -9.3251 
  66   2.0000      -0.339362        -9.2345 
  67   2.0000      -0.337018        -9.1707 
  68   2.0000      -0.327807        -8.9201 
  69   2.0000      -0.326651        -8.8886 
  70   2.0000      -0.303345        -8.2544 
  71   2.0000      -0.268196        -7.2980 
  72   2.0000      -0.261111        -7.1052 
  73   2.0000      -0.245445        -6.6789 
  74   2.0000      -0.243193        -6.6176 
  75   2.0000      -0.239093        -6.5061 
  76   2.0000      -0.238783        -6.4976 
  77   2.0000      -0.223912        -6.0929 
  78   2.0000      -0.219681        -5.9778 
  79   2.0000      -0.192549        -5.2395 
  80   2.0000      -0.185462        -5.0467 
  81   0.0000      -0.109400        -2.9769 
  82   0.0000      -0.109048        -2.9674 
  83   0.0000      -0.056488        -1.5371 
  84   0.0000       0.005314         0.1446 
  85   0.0000       0.020105         0.5471 
  86   0.0000       0.022097         0.6013 
  87   0.0000       0.035102         0.9552 
  88   0.0000       0.044186         1.2024 
  89   0.0000       0.056199         1.5292 
  90   0.0000       0.057907         1.5757 
  91   0.0000       0.061915         1.6848 
*Only the first 10 virtual orbitals were printed.

                    ********************************
                    * MULLIKEN POPULATION ANALYSIS *
                    ********************************

-----------------------
MULLIKEN ATOMIC CHARGES
-----------------------
   0 N :   -0.123351
   1 H :    0.128882
   2 C :   -0.218623
   3 C :   -0.229649
   4 N :   -0.431097
   5 C :   -0.229947
   6 H :    0.128842
   7 C :    0.310855
   8 N :   -0.431084
   9 C :   -0.229940
  10 C :   -0.478597
  11 C :    0.310903
  12 N :   -0.123349
  13 C :   -0.218844
  14 C :    0.356402
  15 C :    0.356129
  16 C :    0.310914
  17 H :    0.238799
  18 H :    0.238800
  19 C :    0.310856
  20 C :   -0.218856
  21 C :   -0.478845
  22 C :   -0.478611
  23 C :   -0.218641
  24 C :    0.356120
  25 C :   -0.229659
  26 C :   -0.478860
  27 C :    0.356425
  28 H :    0.143652
  29 H :    0.143676
  30 H :    0.145389
  31 H :    0.145435
  32 H :    0.143651
  33 H :    0.143674
  34 H :    0.145388
  35 H :    0.128842
  36 H :    0.145436
  37 H :    0.128884
Sum of atomic charges:    0.0000000

--------------------------------
MULLIKEN REDUCED ORBITAL CHARGES
--------------------------------
  0 N s       :     3.427866  s :     3.427866
      pz      :     1.480894  p :     3.623237
      px      :     1.063627
      py      :     1.078716
      dz2     :     0.004926  d :     0.067599
      dxz     :     0.005139
      dyz     :     0.016012
      dx2y2   :     0.024280
      dxy     :     0.017242
      f0      :     0.000778  f :     0.004649
      f+1     :     0.000687
      f-1     :     0.000547
      f+2     :     0.000106
      f-2     :     0.000608
      f+3     :     0.000868
      f-3     :     0.001055

  1 H s       :     0.851197  s :     0.851197
      pz      :     0.004747  p :     0.019920
      px      :     0.007249
      py      :     0.007925

  2 C s       :     3.306896  s :     3.306896
      pz      :     0.992005  p :     2.814943
      px      :     0.895701
      py      :     0.927237
      dz2     :     0.005671  d :     0.088666
      dxz     :     0.010469
      dyz     :     0.018977
      dx2y2   :     0.018454
      dxy     :     0.035096
      f0      :     0.001367  f :     0.008119
      f+1     :     0.000886
      f-1     :     0.000645
      f+2     :     0.001018
      f-2     :     0.000489
      f+3     :     0.002347
      f-3     :     0.001367

  3 C s       :     3.316061  s :     3.316061
      pz      :     0.992952  p :     2.817232
      px      :     0.934911
      py      :     0.889368
      dz2     :     0.005147  d :     0.088279
      dxz     :     0.018282
      dyz     :     0.010056
      dx2y2   :     0.018879
      dxy     :     0.035915
      f0      :     0.001351  f :     0.008077
      f+1     :     0.000507
      f-1     :     0.000850
      f+2     :     0.001095
      f-2     :     0.000414
      f+3     :     0.001412
      f-3     :     0.002448

  4 N s       :     3.629012  s :     3.629012
      pz      :     1.269505  p :     3.738562
      px      :     1.022589
      py      :     1.446468
      dz2     :     0.005154  d :     0.059815
      dxz     :     0.012436
      dyz     :     0.008413
      dx2y2   :     0.014534
      dxy     :     0.019278
      f0      :     0.000616  f :     0.003708
      f+1     :     0.000379
      f-1     :     0.000286
      f+2     :     0.000135
      f-2     :     0.000596
      f+3     :     0.000949
      f-3     :     0.000747

  5 C s       :     3.316365  s :     3.316365
      pz      :     0.993315  p :     2.817218
      px      :     0.930079
      py      :     0.893825
      dz2     :     0.005366  d :     0.088286
      dxz     :     0.016291
      dyz     :     0.011778
      dx2y2   :     0.017987
      dxy     :     0.036864
      f0      :     0.001335  f :     0.008077
      f+1     :     0.000576
      f-1     :     0.000805
      f+2     :     0.001340
      f-2     :     0.000154
      f+3     :     0.001561
      f-3     :     0.002306

  6 H s       :     0.851236  s :     0.851236
      pz      :     0.004785  p :     0.019922
      px      :     0.005962
      py      :     0.009175

  7 C s       :     3.080275  s :     3.080275
      pz      :     0.934987  p :     2.438119
      px      :     0.806257
      py      :     0.696875
      dz2     :     0.006825  d :     0.156495
      dxz     :     0.028936
      dyz     :     0.037173
      dx2y2   :     0.041554
      dxy     :     0.042006
      f0      :     0.002103  f :     0.014255
      f+1     :     0.000907
      f-1     :     0.001147
      f+2     :     0.000695
      f-2     :     0.002528
      f+3     :     0.003515
      f-3     :     0.003361

  8 N s       :     3.629002  s :     3.629002
      pz      :     1.269500  p :     3.738558
      px      :     1.022589
      py      :     1.446470
      dz2     :     0.005154  d :     0.059816
      dxz     :     0.012436
      dyz     :     0.008413
      dx2y2   :     0.014534
      dxy     :     0.019279
      f0      :     0.000616  f :     0.003708
      f+1     :     0.000379
      f-1     :     0.000286
      f+2     :     0.000135
      f-2     :     0.000596
      f+3     :     0.000949
      f-3     :     0.000747

  9 C s       :     3.316352  s :     3.316352
      pz      :     0.993317  p :     2.817225
      px      :     0.930088
      py      :     0.893819
      dz2     :     0.005367  d :     0.088286
      dxz     :     0.016290
      dyz     :     0.011777
      dx2y2   :     0.017987
      dxy     :     0.036865
      f0      :     0.001335  f :     0.008077
      f+1     :     0.000576
      f-1     :     0.000805
      f+2     :     0.001340
      f-2     :     0.000154
      f+3     :     0.001561
      f-3     :     0.002306

 10 C s       :     3.471421  s :     3.471421
      pz      :     1.002249  p :     2.914709
      px      :     0.978642
      py      :     0.933818
      dz2     :     0.003243  d :     0.084810
      dxz     :     0.014461
      dyz     :     0.016496
      dx2y2   :     0.009875
      dxy     :     0.040735
      f0      :     0.001279  f :     0.007657
      f+1     :     0.000706
      f-1     :     0.000734
      f+2     :     0.000852
      f-2     :     0.000534
      f+3     :     0.001925
      f-3     :     0.001627

 11 C s       :     3.080142  s :     3.080142
      pz      :     0.934673  p :     2.438215
      px      :     0.821423
      py      :     0.682120
      dz2     :     0.006802  d :     0.156485
      dxz     :     0.028700
      dyz     :     0.037554
      dx2y2   :     0.045767
      dxy     :     0.037662
      f0      :     0.002109  f :     0.014255
      f+1     :     0.000841
      f-1     :     0.001204
      f+2     :     0.001156
      f-2     :     0.002071
      f+3     :     0.002467
      f-3     :     0.004406

 12 N s       :     3.427865  s :     3.427865
      pz      :     1.480894  p :     3.623236
      px      :     1.063624
      py      :     1.078719
      dz2     :     0.004927  d :     0.067600
      dxz     :     0.005139
      dyz     :     0.016012
      dx2y2   :     0.024280
      dxy     :     0.017242
      f0      :     0.000778  f :     0.004649
      f+1     :     0.000687
      f-1     :     0.000547
      f+2     :     0.000106
      f-2     :     0.000608
      f+3     :     0.000868
      f-3     :     0.001055

 13 C s       :     3.307186  s :     3.307186
      pz      :     0.992092  p :     2.814871
      px      :     0.895128
      py      :     0.927651
      dz2     :     0.005468  d :     0.088669
      dxz     :     0.012630
      dyz     :     0.017055
      dx2y2   :     0.016433
      dxy     :     0.037083
      f0      :     0.001383  f :     0.008119
      f+1     :     0.000788
      f-1     :     0.000717
      f+2     :     0.001310
      f-2     :     0.000210
      f+3     :     0.002197
      f-3     :     0.001513

 14 C s       :     3.068751  s :     3.068751
      pz      :     0.915315  p :     2.399472
      px      :     0.714019
      py      :     0.770138
      dz2     :     0.005878  d :     0.160938
      dxz     :     0.035055
      dyz     :     0.027592
      dx2y2   :     0.052455
      dxy     :     0.039958
      f0      :     0.001988  f :     0.014437
      f+1     :     0.001013
      f-1     :     0.000897
      f+2     :     0.000766
      f-2     :     0.002116
      f+3     :     0.004004
      f-3     :     0.003653

 15 C s       :     3.068726  s :     3.068726
      pz      :     0.915419  p :     2.399749
      px      :     0.713418
      py      :     0.770912
      dz2     :     0.005810  d :     0.160960
      dxz     :     0.035926
      dyz     :     0.026785
      dx2y2   :     0.049640
      dxy     :     0.042798
      f0      :     0.001987  f :     0.014437
      f+1     :     0.001047
      f-1     :     0.000865
      f+2     :     0.001113
      f-2     :     0.001759
      f+3     :     0.005162
      f-3     :     0.002504

 16 C s       :     3.080138  s :     3.080138
      pz      :     0.934674  p :     2.438207
      px      :     0.821413
      py      :     0.682120
      dz2     :     0.006799  d :     0.156485
      dxz     :     0.028698
      dyz     :     0.037556
      dx2y2   :     0.045769
      dxy     :     0.037664
      f0      :     0.002110  f :     0.014255
      f+1     :     0.000842
      f-1     :     0.001204
      f+2     :     0.001156
      f-2     :     0.002071
      f+3     :     0.002467
      f-3     :     0.004406

 17 H s       :     0.721028  s :     0.721028
      pz      :     0.009873  p :     0.040173
      px      :     0.023496
      py      :     0.006804

 18 H s       :     0.721027  s :     0.721027
      pz      :     0.009873  p :     0.040172
      px      :     0.023496
      py      :     0.006804

 19 C s       :     3.080273  s :     3.080273
      pz      :     0.934995  p :     2.438121
      px      :     0.806259
      py      :     0.696867
      dz2     :     0.006825  d :     0.156494
      dxz     :     0.028938
      dyz     :     0.037173
      dx2y2   :     0.041554
      dxy     :     0.042004
      f0      :     0.002103  f :     0.014255
      f+1     :     0.000907
      f-1     :     0.001147
      f+2     :     0.000695
      f-2     :     0.002527
      f+3     :     0.003515
      f-3     :     0.003361

 20 C s       :     3.307196  s :     3.307196
      pz      :     0.992087  p :     2.814873
      px      :     0.895131
      py      :     0.927655
      dz2     :     0.005468  d :     0.088668
      dxz     :     0.012629
      dyz     :     0.017055
      dx2y2   :     0.016432
      dxy     :     0.037084
      f0      :     0.001383  f :     0.008119
      f+1     :     0.000788
      f-1     :     0.000717
      f+2     :     0.001310
      f-2     :     0.000210
      f+3     :     0.002197
      f-3     :     0.001513

 21 C s       :     3.471727  s :     3.471727
      pz      :     1.002451  p :     2.914661
      px      :     0.974261
      py      :     0.937948
      dz2     :     0.002895  d :     0.084801
      dxz     :     0.018590
      dyz     :     0.012722
      dx2y2   :     0.010339
      dxy     :     0.040255
      f0      :     0.001312  f :     0.007657
      f+1     :     0.000660
      f-1     :     0.000726
      f+2     :     0.000835
      f-2     :     0.000561
      f+3     :     0.001483
      f-3     :     0.002079

 22 C s       :     3.471425  s :     3.471425
      pz      :     1.002251  p :     2.914719
      px      :     0.978651
      py      :     0.933817
      dz2     :     0.003242  d :     0.084810
      dxz     :     0.014461
      dyz     :     0.016497
      dx2y2   :     0.009875
      dxy     :     0.040735
      f0      :     0.001279  f :     0.007657
      f+1     :     0.000706
      f-1     :     0.000733
      f+2     :     0.000852
      f-2     :     0.000534
      f+3     :     0.001926
      f-3     :     0.001627

 23 C s       :     3.306907  s :     3.306907
      pz      :     0.992010  p :     2.814951
      px      :     0.895700
      py      :     0.927240
      dz2     :     0.005672  d :     0.088664
      dxz     :     0.010469
      dyz     :     0.018975
      dx2y2   :     0.018454
      dxy     :     0.035094
      f0      :     0.001367  f :     0.008119
      f+1     :     0.000886
      f-1     :     0.000645
      f+2     :     0.001018
      f-2     :     0.000490
      f+3     :     0.002347
      f-3     :     0.001367

 24 C s       :     3.068725  s :     3.068725
      pz      :     0.915425  p :     2.399757
      px      :     0.713427
      py      :     0.770905
      dz2     :     0.005809  d :     0.160961
      dxz     :     0.035927
      dyz     :     0.026785
      dx2y2   :     0.049643
      dxy     :     0.042798
      f0      :     0.001987  f :     0.014437
      f+1     :     0.001047
      f-1     :     0.000865
      f+2     :     0.001113
      f-2     :     0.001759
      f+3     :     0.005162
      f-3     :     0.002504

 25 C s       :     3.316063  s :     3.316063
      pz      :     0.992958  p :     2.817239
      px      :     0.934918
      py      :     0.889362
      dz2     :     0.005147  d :     0.088280
      dxz     :     0.018282
      dyz     :     0.010056
      dx2y2   :     0.018879
      dxy     :     0.035915
      f0      :     0.001351  f :     0.008077
      f+1     :     0.000507
      f-1     :     0.000850
      f+2     :     0.001095
      f-2     :     0.000414
      f+3     :     0.001412
      f-3     :     0.002448

 26 C s       :     3.471744  s :     3.471744
      pz      :     1.002439  p :     2.914657
      px      :     0.974265
      py      :     0.937953
      dz2     :     0.002894  d :     0.084802
      dxz     :     0.018591
      dyz     :     0.012723
      dx2y2   :     0.010338
      dxy     :     0.040255
      f0      :     0.001312  f :     0.007657
      f+1     :     0.000660
      f-1     :     0.000726
      f+2     :     0.000835
      f-2     :     0.000561
      f+3     :     0.001483
      f-3     :     0.002079

 27 C s       :     3.068732  s :     3.068732
      pz      :     0.915326  p :     2.399468
      px      :     0.714007
      py      :     0.770135
      dz2     :     0.005879  d :     0.160939
      dxz     :     0.035055
      dyz     :     0.027592
      dx2y2   :     0.052455
      dxy     :     0.039959
      f0      :     0.001988  f :     0.014436
      f+1     :     0.001013
      f-1     :     0.000897
      f+2     :     0.000766
      f-2     :     0.002116
      f+3     :     0.004004
      f-3     :     0.003653

 28 H s       :     0.836420  s :     0.836420
      pz      :     0.004710  p :     0.019928
      px      :     0.009344
      py      :     0.005874

 29 H s       :     0.836397  s :     0.836397
      pz      :     0.004744  p :     0.019927
      px      :     0.007996
      py      :     0.007188

 30 H s       :     0.834306  s :     0.834306
      pz      :     0.005117  p :     0.020305
      px      :     0.006782
      py      :     0.008406

 31 H s       :     0.834260  s :     0.834260
      pz      :     0.005078  p :     0.020304
      px      :     0.008191
      py      :     0.007035

 32 H s       :     0.836421  s :     0.836421
      pz      :     0.004709  p :     0.019928
      px      :     0.009344
      py      :     0.005874

 33 H s       :     0.836399  s :     0.836399
      pz      :     0.004744  p :     0.019927
      px      :     0.007996
      py      :     0.007188

 34 H s       :     0.834308  s :     0.834308
      pz      :     0.005117  p :     0.020305
      px      :     0.006782
      py      :     0.008405

 35 H s       :     0.851237  s :     0.851237
      pz      :     0.004785  p :     0.019922
      px      :     0.005962
      py      :     0.009175

 36 H s       :     0.834260  s :     0.834260
      pz      :     0.005078  p :     0.020304
      px      :     0.008191
      py      :     0.007035

 37 H s       :     0.851196  s :     0.851196
      pz      :     0.004747  p :     0.019920
      px      :     0.007248
      py      :     0.007925



                     *******************************
                     * LOEWDIN POPULATION ANALYSIS *
                     *******************************

----------------------
LOEWDIN ATOMIC CHARGES
----------------------
   0 N :    0.268095
   1 H :    0.142947
   2 C :   -0.101366
   3 C :   -0.118767
   4 N :    0.092786
   5 C :   -0.118770
   6 H :    0.142939
   7 C :   -0.189737
   8 N :    0.092791
   9 C :   -0.118771
  10 C :   -0.087955
  11 C :   -0.189710
  12 N :    0.268096
  13 C :   -0.101352
  14 C :   -0.235938
  15 C :   -0.235944
  16 C :   -0.189708
  17 H :    0.186281
  18 H :    0.186281
  19 C :   -0.189736
  20 C :   -0.101349
  21 C :   -0.087943
  22 C :   -0.087958
  23 C :   -0.101368
  24 C :   -0.235948
  25 C :   -0.118770
  26 C :   -0.087941
  27 C :   -0.235935
  28 H :    0.149777
  29 H :    0.149783
  30 H :    0.167435
  31 H :    0.167436
  32 H :    0.149776
  33 H :    0.149783
  34 H :    0.167437
  35 H :    0.142940
  36 H :    0.167436
  37 H :    0.142946

-------------------------------
LOEWDIN REDUCED ORBITAL CHARGES
-------------------------------
  0 N s       :     2.893843  s :     2.893843
      pz      :     1.311560  p :     3.581182
      px      :     1.133412
      py      :     1.136210
      dz2     :     0.015349  d :     0.238783
      dxz     :     0.013152
      dyz     :     0.047931
      dx2y2   :     0.090807
      dxy     :     0.071543
      f0      :     0.001241  f :     0.018097
      f+1     :     0.001756
      f-1     :     0.001711
      f+2     :     0.000467
      f-2     :     0.003672
      f+3     :     0.002878
      f-3     :     0.006372

  1 H s       :     0.795526  s :     0.795526
      pz      :     0.013970  p :     0.061527
      px      :     0.022345
      py      :     0.025211

  2 C s       :     2.764830  s :     2.764830
      pz      :     0.900656  p :     2.916954
      px      :     0.980761
      py      :     1.035536
      dz2     :     0.027572  d :     0.372531
      dxz     :     0.031846
      dyz     :     0.059661
      dx2y2   :     0.102875
      dxy     :     0.150577
      f0      :     0.003096  f :     0.047052
      f+1     :     0.003807
      f-1     :     0.003987
      f+2     :     0.007505
      f-2     :     0.002767
      f+3     :     0.017064
      f-3     :     0.008826

  3 C s       :     2.771393  s :     2.771393
      pz      :     0.901344  p :     2.926461
      px      :     1.048575
      py      :     0.976542
      dz2     :     0.027330  d :     0.373831
      dxz     :     0.057311
      dyz     :     0.031717
      dx2y2   :     0.103824
      dxy     :     0.153649
      f0      :     0.003072  f :     0.047083
      f+1     :     0.003928
      f-1     :     0.003667
      f+2     :     0.007712
      f-2     :     0.002163
      f+3     :     0.008772
      f-3     :     0.017768

  4 N s       :     3.049565  s :     3.049565
      pz      :     1.151041  p :     3.637907
      px      :     1.102902
      py      :     1.383964
      dz2     :     0.016741  d :     0.200430
      dxz     :     0.040848
      dyz     :     0.013005
      dx2y2   :     0.057529
      dxy     :     0.072306
      f0      :     0.001178  f :     0.019313
      f+1     :     0.001797
      f-1     :     0.000839
      f+2     :     0.000336
      f-2     :     0.003626
      f+3     :     0.006922
      f-3     :     0.004615

  5 C s       :     2.771396  s :     2.771396
      pz      :     0.901419  p :     2.926467
      px      :     1.046175
      py      :     0.978873
      dz2     :     0.028094  d :     0.373825
      dxz     :     0.049165
      dyz     :     0.039017
      dx2y2   :     0.104897
      dxy     :     0.152651
      f0      :     0.003038  f :     0.047082
      f+1     :     0.003954
      f-1     :     0.003707
      f+2     :     0.009121
      f-2     :     0.000719
      f+3     :     0.010187
      f-3     :     0.016357

  6 H s       :     0.795536  s :     0.795536
      pz      :     0.014090  p :     0.061525
      px      :     0.018233
      py      :     0.029203

  7 C s       :     2.700965  s :     2.700965
      pz      :     0.858883  p :     2.785025
      px      :     0.957175
      py      :     0.968967
      dz2     :     0.043146  d :     0.623319
      dxz     :     0.094872
      dyz     :     0.111002
      dx2y2   :     0.175225
      dxy     :     0.199074
      f0      :     0.005275  f :     0.080428
      f+1     :     0.005085
      f-1     :     0.006273
      f+2     :     0.005187
      f-2     :     0.016025
      f+3     :     0.021992
      f-3     :     0.020591

  8 N s       :     3.049563  s :     3.049563
      pz      :     1.151031  p :     3.637902
      px      :     1.102904
      py      :     1.383967
      dz2     :     0.016741  d :     0.200431
      dxz     :     0.040849
      dyz     :     0.013005
      dx2y2   :     0.057530
      dxy     :     0.072306
      f0      :     0.001178  f :     0.019313
      f+1     :     0.001797
      f-1     :     0.000839
      f+2     :     0.000336
      f-2     :     0.003626
      f+3     :     0.006922
      f-3     :     0.004615

  9 C s       :     2.771397  s :     2.771397
      pz      :     0.901421  p :     2.926469
      px      :     1.046179
      py      :     0.978869
      dz2     :     0.028096  d :     0.373822
      dxz     :     0.049162
      dyz     :     0.039016
      dx2y2   :     0.104896
      dxy     :     0.152652
      f0      :     0.003038  f :     0.047082
      f+1     :     0.003954
      f-1     :     0.003707
      f+2     :     0.009120
      f-2     :     0.000719
      f+3     :     0.010187
      f-3     :     0.016357

 10 C s       :     2.759181  s :     2.759181
      pz      :     0.893128  p :     2.915640
      px      :     1.014772
      py      :     1.007741
      dz2     :     0.025554  d :     0.372580
      dxz     :     0.044198
      dyz     :     0.052174
      dx2y2   :     0.097714
      dxy     :     0.152940
      f0      :     0.003278  f :     0.040553
      f+1     :     0.003693
      f-1     :     0.004047
      f+2     :     0.006248
      f-2     :     0.002283
      f+3     :     0.011221
      f-3     :     0.009784

 11 C s       :     2.700969  s :     2.700969
      pz      :     0.858306  p :     2.785016
      px      :     0.978260
      py      :     0.948451
      dz2     :     0.043395  d :     0.623300
      dxz     :     0.089721
      dyz     :     0.115937
      dx2y2   :     0.183847
      dxy     :     0.190400
      f0      :     0.005255  f :     0.080426
      f+1     :     0.004739
      f-1     :     0.006666
      f+2     :     0.008016
      f-2     :     0.013197
      f+3     :     0.015600
      f-3     :     0.026952

 12 N s       :     2.893842  s :     2.893842
      pz      :     1.311557  p :     3.581180
      px      :     1.133410
      py      :     1.136213
      dz2     :     0.015351  d :     0.238786
      dxz     :     0.013152
      dyz     :     0.047932
      dx2y2   :     0.090808
      dxy     :     0.071543
      f0      :     0.001241  f :     0.018097
      f+1     :     0.001756
      f-1     :     0.001711
      f+2     :     0.000467
      f-2     :     0.003673
      f+3     :     0.002878
      f-3     :     0.006371

 13 C s       :     2.764836  s :     2.764836
      pz      :     0.900609  p :     2.916944
      px      :     0.982606
      py      :     1.033729
      dz2     :     0.026872  d :     0.372523
      dxz     :     0.040539
      dyz     :     0.051693
      dx2y2   :     0.101726
      dxy     :     0.151693
      f0      :     0.003128  f :     0.047050
      f+1     :     0.003713
      f-1     :     0.004020
      f+2     :     0.009276
      f-2     :     0.001021
      f+3     :     0.015701
      f-3     :     0.010190

 14 C s       :     2.713067  s :     2.713067
      pz      :     0.842091  p :     2.794411
      px      :     0.983522
      py      :     0.968798
      dz2     :     0.045893  d :     0.648897
      dxz     :     0.103238
      dyz     :     0.090385
      dx2y2   :     0.216419
      dxy     :     0.192963
      f0      :     0.004742  f :     0.079563
      f+1     :     0.006138
      f-1     :     0.004737
      f+2     :     0.005273
      f-2     :     0.013532
      f+3     :     0.023296
      f-3     :     0.021845

 15 C s       :     2.713067  s :     2.713067
      pz      :     0.842327  p :     2.794418
      px      :     0.975499
      py      :     0.976592
      dz2     :     0.045575  d :     0.648896
      dxz     :     0.109103
      dyz     :     0.084647
      dx2y2   :     0.210081
      dxy     :     0.199490
      f0      :     0.004734  f :     0.079563
      f+1     :     0.006357
      f-1     :     0.004535
      f+2     :     0.007177
      f-2     :     0.011565
      f+3     :     0.030650
      f-3     :     0.014545

 16 C s       :     2.700970  s :     2.700970
      pz      :     0.858303  p :     2.785012
      px      :     0.978254
      py      :     0.948454
      dz2     :     0.043390  d :     0.623300
      dxz     :     0.089718
      dyz     :     0.115941
      dx2y2   :     0.183849
      dxy     :     0.190404
      f0      :     0.005255  f :     0.080425
      f+1     :     0.004739
      f-1     :     0.006665
      f+2     :     0.008015
      f-2     :     0.013198
      f+3     :     0.015601
      f-3     :     0.026953

 17 H s       :     0.696600  s :     0.696600
      pz      :     0.028174  p :     0.117119
      px      :     0.070102
      py      :     0.018843

 18 H s       :     0.696600  s :     0.696600
      pz      :     0.028173  p :     0.117119
      px      :     0.070102
      py      :     0.018844

 19 C s       :     2.700964  s :     2.700964
      pz      :     0.858878  p :     2.785024
      px      :     0.957174
      py      :     0.968972
      dz2     :     0.043146  d :     0.623320
      dxz     :     0.094870
      dyz     :     0.111004
      dx2y2   :     0.175227
      dxy     :     0.199073
      f0      :     0.005275  f :     0.080427
      f+1     :     0.005085
      f-1     :     0.006273
      f+2     :     0.005188
      f-2     :     0.016024
      f+3     :     0.021992
      f-3     :     0.020591

 20 C s       :     2.764837  s :     2.764837
      pz      :     0.900606  p :     2.916943
      px      :     0.982601
      py      :     1.033735
      dz2     :     0.026873  d :     0.372519
      dxz     :     0.040533
      dyz     :     0.051691
      dx2y2   :     0.101725
      dxy     :     0.151697
      f0      :     0.003128  f :     0.047050
      f+1     :     0.003714
      f-1     :     0.004020
      f+2     :     0.009276
      f-2     :     0.001020
      f+3     :     0.015702
      f-3     :     0.010190

 21 C s       :     2.759181  s :     2.759181
      pz      :     0.892941  p :     2.915632
      px      :     1.020734
      py      :     1.001958
      dz2     :     0.024754  d :     0.372578
      dxz     :     0.056510
      dyz     :     0.040387
      dx2y2   :     0.097222
      dxy     :     0.153705
      f0      :     0.003323  f :     0.040553
      f+1     :     0.003943
      f-1     :     0.003723
      f+2     :     0.006034
      f-2     :     0.002460
      f+3     :     0.009341
      f-3     :     0.011728

 22 C s       :     2.759181  s :     2.759181
      pz      :     0.893131  p :     2.915644
      px      :     1.014769
      py      :     1.007744
      dz2     :     0.025553  d :     0.372579
      dxz     :     0.044196
      dyz     :     0.052175
      dx2y2   :     0.097715
      dxy     :     0.152941
      f0      :     0.003278  f :     0.040553
      f+1     :     0.003693
      f-1     :     0.004047
      f+2     :     0.006248
      f-2     :     0.002282
      f+3     :     0.011221
      f-3     :     0.009784

 23 C s       :     2.764831  s :     2.764831
      pz      :     0.900664  p :     2.916958
      px      :     0.980763
      py      :     1.035531
      dz2     :     0.027576  d :     0.372528
      dxz     :     0.031845
      dyz     :     0.059660
      dx2y2   :     0.102875
      dxy     :     0.150571
      f0      :     0.003095  f :     0.047051
      f+1     :     0.003807
      f-1     :     0.003987
      f+2     :     0.007505
      f-2     :     0.002767
      f+3     :     0.017063
      f-3     :     0.008826

 24 C s       :     2.713069  s :     2.713069
      pz      :     0.842322  p :     2.794417
      px      :     0.975501
      py      :     0.976594
      dz2     :     0.045573  d :     0.648899
      dxz     :     0.109103
      dyz     :     0.084646
      dx2y2   :     0.210085
      dxy     :     0.199492
      f0      :     0.004734  f :     0.079564
      f+1     :     0.006357
      f-1     :     0.004535
      f+2     :     0.007176
      f-2     :     0.011566
      f+3     :     0.030651
      f-3     :     0.014545

 25 C s       :     2.771391  s :     2.771391
      pz      :     0.901342  p :     2.926460
      px      :     1.048577
      py      :     0.976541
      dz2     :     0.027329  d :     0.373836
      dxz     :     0.057312
      dyz     :     0.031718
      dx2y2   :     0.103827
      dxy     :     0.153650
      f0      :     0.003073  f :     0.047084
      f+1     :     0.003928
      f-1     :     0.003667
      f+2     :     0.007712
      f-2     :     0.002164
      f+3     :     0.008772
      f-3     :     0.017768

 26 C s       :     2.759180  s :     2.759180
      pz      :     0.892937  p :     2.915627
      px      :     1.020738
      py      :     1.001952
      dz2     :     0.024753  d :     0.372581
      dxz     :     0.056512
      dyz     :     0.040390
      dx2y2   :     0.097220
      dxy     :     0.153706
[...]
  0-1A  -> 26-1A    4.977972   40150.1   249.1   0.000000001   0.00000  -0.00008   0.00000  -0.00000
  0-1A  -> 27-1A    5.228406   42169.9   237.1   0.088963073   0.69452  -0.07110   0.82645  -0.08028
  0-1A  -> 28-1A    5.329387   42984.4   232.6   0.000000008   0.00000  -0.00002   0.00024   0.00001
  0-1A  -> 29-1A    5.431631   43809.1   228.3   0.000303353   0.00228   0.00419  -0.04734   0.00459
  0-1A  -> 30-1A    5.464011   44070.2   226.9   0.018943119   0.14151  -0.37474  -0.03132   0.00974

----------------------------------------------------------------------------------------------------
                     ABSORPTION SPECTRUM VIA TRANSITION VELOCITY DIPOLE MOMENTS    
----------------------------------------------------------------------------------------------------
     Transition      Energy     Energy  Wavelength fosc(P2)      P2        PX        PY        PZ   
                      (eV)      (cm-1)    (nm)                 (au**2)    (au)      (au)      (au)  
----------------------------------------------------------------------------------------------------
  0-1A  ->  1-1A    2.242552   18087.4   552.9   0.002482251   0.00031   0.01745   0.00143  -0.00046
  0-1A  ->  2-1A    2.356963   19010.2   526.0   0.000412097   0.00005   0.00062  -0.00726   0.00069
  0-1A  ->  3-1A    3.059724   24678.3   405.2   0.520293532   0.08775  -0.29512  -0.02460   0.00741
  0-1A  ->  4-1A    3.107773   25065.9   398.9   0.000000017   0.00000   0.00003  -0.00004   0.00000
  0-1A  ->  5-1A    3.135579   25290.2   395.4   0.533452472   0.09220   0.02582  -0.30113   0.02926
  0-1A  ->  6-1A    3.180194   25650.0   389.9   0.000000007   0.00000   0.00003   0.00002  -0.00000
  0-1A  ->  7-1A    3.342006   26955.1   371.0   0.805185062   0.14833  -0.03288   0.38194  -0.03713
  0-1A  ->  8-1A    3.428043   27649.0   361.7   0.817336009   0.15445   0.39150   0.03280  -0.00992
  0-1A  ->  9-1A    3.532173   28488.9   351.0   0.000000015   0.00000   0.00004   0.00004  -0.00000
  0-1A  -> 10-1A    3.538897   28543.1   350.3   0.000017113   0.00000  -0.00057   0.00173  -0.00016
  0-1A  -> 11-1A    3.569724   28791.8   347.3   0.000000011   0.00000  -0.00003  -0.00002  -0.00003
  0-1A  -> 12-1A    3.580005   28874.7   346.3   0.000658226   0.00013   0.00067   0.00134   0.01130
  0-1A  -> 13-1A    3.653785   29469.8   339.3   0.000000004   0.00000  -0.00002  -0.00002  -0.00000
  0-1A  -> 14-1A    3.774753   30445.4   328.5   0.000000008   0.00000  -0.00000   0.00004  -0.00001
  0-1A  -> 15-1A    3.803728   30679.1   326.0   0.000000018   0.00000   0.00006   0.00001  -0.00001
  0-1A  -> 16-1A    3.855670   31098.1   321.6   0.101089439   0.02149   0.14611   0.01121  -0.00348
  0-1A  -> 17-1A    3.859698   31130.6   321.2   0.094474809   0.02010   0.01107  -0.14068   0.01368
  0-1A  -> 18-1A    3.879933   31293.8   319.6   0.000000001   0.00000  -0.00001   0.00000   0.00001
  0-1A  -> 19-1A    4.296954   34657.3   288.5   0.000000001   0.00000   0.00000  -0.00001  -0.00000
  0-1A  -> 20-1A    4.461172   35981.8   277.9   0.000000001   0.00000   0.00002  -0.00000  -0.00000
  0-1A  -> 21-1A    4.601782   37115.9   269.4   0.180172820   0.04570  -0.21297  -0.01782   0.00535
  0-1A  -> 22-1A    4.615286   37224.8   268.6   0.000000002   0.00000  -0.00002  -0.00001  -0.00000
  0-1A  -> 23-1A    4.743846   38261.7   261.4   0.000000001   0.00000  -0.00000  -0.00001  -0.00002
  0-1A  -> 24-1A    4.906831   39576.3   252.7   0.000000001   0.00000  -0.00001   0.00001   0.00001
  0-1A  -> 25-1A    4.969121   40078.7   249.5   0.000016597   0.00000   0.00014  -0.00212   0.00021
  0-1A  -> 26-1A    4.977972   40150.1   249.1   0.000000001   0.00000   0.00001  -0.00000   0.00000
  0-1A  -> 27-1A    5.228406   42169.9   237.1   0.085792493   0.02473   0.01341  -0.15594   0.01515
  0-1A  -> 28-1A    5.329387   42984.4   232.6   0.000000007   0.00000   0.00000  -0.00005  -0.00000
  0-1A  -> 29-1A    5.431631   43809.1   228.3   0.000213772   0.00006  -0.00071   0.00793  -0.00077
  0-1A  -> 30-1A    5.464011   44070.2   226.9   0.017969031   0.00541   0.07329   0.00613  -0.00189

------------------------------------------------------------------------------------------
                     CD SPECTRUM VIA TRANSITION ELECTRIC DIPOLE MOMENTS    
------------------------------------------------------------------------------------------
     Transition      Energy     Energy  Wavelength    R        MX        MY        MZ   
                      (eV)      (cm-1)    (nm)   (1e40*cgs)   (au)      (au)      (au)  
------------------------------------------------------------------------------------------
  0-1A  ->  1-1A    2.242552   18087.4   552.9   -0.00008  -0.00000   0.00000   0.00002
  0-1A  ->  2-1A    2.356963   19010.2   526.0    0.00016  -0.00000   0.00001   0.00010
  0-1A  ->  3-1A    3.059724   24678.3   405.2    0.00232  -0.00000  -0.00003  -0.00009
  0-1A  ->  4-1A    3.107773   25065.9   398.9    0.00393  -0.01223  -0.07100  -0.71846
  0-1A  ->  5-1A    3.135579   25290.2   395.4    0.03670  -0.00003  -0.00003   0.00005
  0-1A  ->  6-1A    3.180194   25650.0   389.9    0.00000   0.00004  -0.00005   0.00008
  0-1A  ->  7-1A    3.342006   26955.1   371.0    0.03463   0.00003   0.00002  -0.00002
  0-1A  ->  8-1A    3.428043   27649.0   361.7   -0.03950  -0.00003   0.00002  -0.00002
  0-1A  ->  9-1A    3.532173   28488.9   351.0    0.01001  -0.00675   0.07750  -0.00739
  0-1A  -> 10-1A    3.538897   28543.1   350.3   -0.00213   0.00002  -0.00032  -0.00001
  0-1A  -> 11-1A    3.569724   28791.8   347.3   -0.02880   0.24738   0.01983  -0.01511
  0-1A  -> 12-1A    3.580005   28874.7   346.3    0.00272   0.00064   0.00005   0.00002
  0-1A  -> 13-1A    3.653785   29469.8   339.3   -0.00357   0.00552   0.02702   0.27375
  0-1A  -> 14-1A    3.774753   30445.4   328.5   -0.00297   0.01049   0.04415   0.44590
  0-1A  -> 15-1A    3.803728   30679.1   326.0   -0.00001  -0.00005   0.00028   0.00041
  0-1A  -> 16-1A    3.855670   31098.1   321.6   -0.00523  -0.00001   0.00000  -0.00001
  0-1A  -> 17-1A    3.859698   31130.6   321.2    0.01338  -0.00004  -0.00002   0.00013
  0-1A  -> 18-1A    3.879933   31293.8   319.6    0.00000  -0.00008   0.00011  -0.00010
  0-1A  -> 19-1A    4.296954   34657.3   288.5   -0.00065   0.00208   0.01535   0.15612
  0-1A  -> 20-1A    4.461172   35981.8   277.9    0.00000   0.00009   0.00003   0.00017
  0-1A  -> 21-1A    4.601782   37115.9   269.4   -0.02221   0.00004  -0.00003  -0.00006
  0-1A  -> 22-1A    4.615286   37224.8   268.6   -0.00382   0.01173   0.06976   0.70727
  0-1A  -> 23-1A    4.743846   38261.7   261.4   -0.00000   0.00012  -0.00010   0.00005
  0-1A  -> 24-1A    4.906831   39576.3   252.7    0.01262   0.00916   0.05111   0.51724
  0-1A  -> 25-1A    4.969121   40078.7   249.5   -0.00072  -0.00002   0.00013  -0.00001
  0-1A  -> 26-1A    4.977972   40150.1   249.1   -0.00021  -0.00350   0.04080  -0.00335
  0-1A  -> 27-1A    5.228406   42169.9   237.1    0.01147  -0.00002  -0.00004  -0.00007
  0-1A  -> 28-1A    5.329387   42984.4   232.6   -0.00599   0.00666   0.04223   0.43003
  0-1A  -> 29-1A    5.431631   43809.1   228.3   -0.00014  -0.00002  -0.00000   0.00005
  0-1A  -> 30-1A    5.464011   44070.2   226.9    0.00003  -0.00000   0.00000   0.00000

------------------------------------------------------------------------------------------
                     CD SPECTRUM VIA TRANSITION VELOCITY DIPOLE MOMENTS    
------------------------------------------------------------------------------------------
     Transition      Energy     Energy  Wavelength    R        MX        MY        MZ   
                      (eV)      (cm-1)    (nm)   (1e40*cgs)   (au)      (au)      (au)  
------------------------------------------------------------------------------------------
  0-1A  ->  1-1A    2.242552   18087.4   552.9   -0.00008  -0.00000   0.00000   0.00002
  0-1A  ->  2-1A    2.356963   19010.2   526.0    0.00016  -0.00000   0.00001   0.00010
  0-1A  ->  3-1A    3.059724   24678.3   405.2    0.00226  -0.00000  -0.00003  -0.00009
  0-1A  ->  4-1A    3.107773   25065.9   398.9    0.00405  -0.01223  -0.07100  -0.71846
  0-1A  ->  5-1A    3.135579   25290.2   395.4    0.03600  -0.00003  -0.00003   0.00005
  0-1A  ->  6-1A    3.180194   25650.0   389.9    0.00000   0.00004  -0.00005   0.00008
  0-1A  ->  7-1A    3.342006   26955.1   371.0    0.03369   0.00003   0.00002  -0.00002
  0-1A  ->  8-1A    3.428043   27649.0   361.7   -0.03867  -0.00003   0.00002  -0.00002
  0-1A  ->  9-1A    3.532173   28488.9   351.0    0.00977  -0.00675   0.07750  -0.00739
  0-1A  -> 10-1A    3.538897   28543.1   350.3   -0.00208   0.00002  -0.00032  -0.00001
  0-1A  -> 11-1A    3.569724   28791.8   347.3   -0.02823   0.24738   0.01983  -0.01511
  0-1A  -> 12-1A    3.580005   28874.7   346.3    0.00256   0.00064   0.00005   0.00002
  0-1A  -> 13-1A    3.653785   29469.8   339.3   -0.00336   0.00552   0.02702   0.27375
  0-1A  -> 14-1A    3.774753   30445.4   328.5   -0.00292   0.01049   0.04415   0.44590
  0-1A  -> 15-1A    3.803728   30679.1   326.0   -0.00001  -0.00005   0.00028   0.00041
  0-1A  -> 16-1A    3.855670   31098.1   321.6   -0.00507  -0.00001   0.00000  -0.00001
  0-1A  -> 17-1A    3.859698   31130.6   321.2    0.01313  -0.00004  -0.00002   0.00013
  0-1A  -> 18-1A    3.879933   31293.8   319.6    0.00000  -0.00008   0.00011  -0.00010
  0-1A  -> 19-1A    4.296954   34657.3   288.5   -0.00061   0.00208   0.01535   0.15612
  0-1A  -> 20-1A    4.461172   35981.8   277.9    0.00000   0.00009   0.00003   0.00017
  0-1A  -> 21-1A    4.601782   37115.9   269.4   -0.02179   0.00004  -0.00003  -0.00006
  0-1A  -> 22-1A    4.615286   37224.8   268.6   -0.00357   0.01173   0.06976   0.70727
  0-1A  -> 23-1A    4.743846   38261.7   261.4   -0.00000   0.00012  -0.00010   0.00005
  0-1A  -> 24-1A    4.906831   39576.3   252.7    0.01236   0.00916   0.05111   0.51724
  0-1A  -> 25-1A    4.969121   40078.7   249.5   -0.00071  -0.00002   0.00013  -0.00001
  0-1A  -> 26-1A    4.977972   40150.1   249.1   -0.00020  -0.00350   0.04080  -0.00335
  0-1A  -> 27-1A    5.228406   42169.9   237.1    0.01126  -0.00002  -0.00004  -0.00007
  0-1A  -> 28-1A    5.329387   42984.4   232.6   -0.00593   0.00666   0.04223   0.43003
  0-1A  -> 29-1A    5.431631   43809.1   228.3   -0.00012  -0.00002  -0.00000   0.00005
  0-1A  -> 30-1A    5.464011   44070.2   226.9    0.00003  -0.00000   0.00000   0.00000

Total run time:     5681.050 sec

           *** ORCA-CIS/TD-DFT FINISHED WITHOUT ERROR ***
-----------------------
CIS/TD-DFT TOTAL ENERGY
-----------------------

    E(SCF)  =   -990.107577731 Eh
    DE(CIS) =      0.082412263 Eh (Root  1)
    ----------------------------- ---------
    E(tot)  =   -990.025165468 Eh


Maximum memory used throughout the entire CIS-calculation: 1529.6 MB
=> NOW LEAVING ORCA_CIS

-------------------------   --------------------
FINAL SINGLE POINT ENERGY      -990.025165467980
-------------------------   --------------------



           ************************************************************
           *        Program running with 4 parallel MPI-processes     *
           *              working on a common directory               *
           ************************************************************

------------------------------------------------------------------------------
                              ORCA PROPERTY CALCULATIONS
------------------------------------------------------------------------------

GBWName                                 ... tddft.gbw
Number of atoms                         ...     38
Number of basis functions               ...    828
Max core memory                         ...   3000 MB

Electric properties:
Dipole moment                           ... YES
Quadrupole moment                       ...  NO
Static polarizability (Dipole/Dipole)   ...  NO
Static polarizability (Dipole/Quad.)    ...  NO
Static polarizability (Quad./Quad.)     ...  NO
Static polarizability (Velocity)        ...  NO
Static hyperpolarizability              ...  NO

Atomic electric properties:
Dipole moment                           ...  NO
Quadrupole moment                       ...  NO
Static polarizability                   ...  NO

Choice of electric origin               ... Center of mass
Position of electric origin             ...    -0.158819     5.090064     6.570961

General magnetic properties:
Magnetizability                         ...  NO

EPR properties:
g-Tensor (aka g-matrix)                 ...  NO
Zero-Field splitting spin-orbit         ...  NO
Zero-field splitting spin-spin          ...  NO
Hyperfine couplings                     ...  NO (   0 nuclei)
Quadrupole couplings                    ...  NO (   0 nuclei)
Contact density                         ...  NO (   0 nuclei)

NMR properties:
Chemical shifts                         ...  NO (   0 nuclei)
Spin-rotation constants                 ...  NO (   0 nuclei)
Spin-spin couplings                     ...  NO (   0 nuclei,    0 pairs)

Choice of magnetic origin               ... GIAO
Position of magnetic origin             ...     0.000000     0.000000     0.000000

Properties with geometric perturbations:
SCF Hessian                             ...  NO
IR spectrum                             ...  NO
VCD spectrum                            ...  NO
X-ray spectroscopy properties:
SCF XES/XAS/RIXS spectra                ...  NO

SCF SOC stabilization energy            ...  NO
Diagonal Born-Oppenheimer correction    ...  NO

-------------
DIPOLE MOMENT
-------------

Method             : SCF
Type of density    : Electron Density
Multiplicity       :   1
Irrep              :   0
Energy             :  -990.1075777312842092 Eh
Basis              : AO
                                X                 Y                 Z
Electronic contribution:     -0.000083349      -0.000000735       0.000449947
Nuclear contribution   :      0.000061902      -0.000054441      -0.000774279
                        -----------------------------------------
Total Dipole Moment    :     -0.000021448      -0.000055175      -0.000324333
                        -----------------------------------------
Magnitude (a.u.)       :      0.000329691
Magnitude (Debye)      :      0.000838007



--------------------
Rotational spectrum 
--------------------
 
Rotational constants in cm-1:             0.008943             0.008871             0.004453 
Rotational constants in MHz :           268.090698           265.941898           133.506036 

Dipole components along the rotational axes: 
x,y,z [a.u.] :    -0.000018    -0.000022    -0.000328 
x,y,z [Debye]:    -0.000045    -0.000055    -0.000835 

 

Dipole moment calculation done in   0.1 sec 

Maximum memory used throughout the entire PROP-calculation: 82.2 MB

--------------------------------
SUGGESTED CITATIONS FOR THIS RUN
--------------------------------

Below you find a list of papers that are relevant to this ORCA run
We neither can nor want to force you to cite these papers, but we appreciate if you do
You receive ORCA, which is the product of decades of hard work by many enthusiastic individuals, for free
The only thing we kindly ask in return is that you cite our papers,
We deeply appreciate it, if you show your appreciation for ORCA by not just citing the generic ORCA reference.

Please note that relegating all ORCA citations to the supporting information does *not* help us.
SI sections are not indexed - citations you put there will not count into any citation statistics
But we need these citations in order to attract the funding resources that allow us to do what we are doing

Therefore, if you are a happy ORCA user, please consider citing a few of the papers listed below in the main body of your paper

In addition to the list printed below, the program has created the file tddft.bibtex that contains the list in bibtex format
You can import this file easily into all common literature databanks and citation aid programs

It goes without saying that in many instances, there are alternative algorithms to achieve similar
results as the ones you have gotten from ORCA. It is, of course, also the case that in some instances
ORCA just re-implements algorithms worked out by others. We are fully aware of that and we are also
fully appreciative of our colleagues work. Hence this citation list should not be read as indicating
that the listed papers, which are focused on our own work, are the only ones worth citing. It simply
meant to make it easier for users to cite ORCA specific papers. It is not a substitute for doing your
own literature research and citing the relevant literature in a scientifically appropriate manner.

List of essential papers. We consider these as the minimum necessary citations

  1. Neese, F.
     Software update: the ORCA program system, version 6.0
     WIRES Comput. Molec. Sci. 2025 15(1), e70019
     doi.org/10.1002/wcms.70019

List of papers to cite with high priority. The work reported in these papers was absolutely
necessary for this run to complete.
Our perspective: the developers of density functionals and basis sets usually get cited in chemistry papers
Good! But without the algorithms to do something with them, the functionals or basis sets would not do anything.
Hence, in our opinion, the algorithm design and method developments papers are equally worthy of getting cited

  1. Neese, F.; Olbrich, G.
     Efficient use of the resolution of the identity approximation in time-dependent density functional calculations with hybrid density functionals
     Chem. Phys. Lett. 2002 362 , 170-178
     doi.org/10.1016/s0009-2614(02)01053-9
  2. Neese, F.
     An improvement of the resolution of the identity approximation for the formation of the Coulomb matrix
     J. Comp. Chem. 2003 24(14), 1740-1747
     doi.org/10.1002/jcc.10318
  3. Garcia-Rates, M.; Neese, F.
     Effect of the Solute Cavity on the Solvation Energy and its Derivatives within the Framework of the Gaussian Charge Scheme
     J. Comput. Chem. 2020 41 , 922-939
     doi.org/10.1002/jcc.26139
  4. Neese, F.
     The SHARK Integral Generation and Digestion System
     J. Comp. Chem. 2022 44(3), 381
     doi.org/10.1002/jcc.26942

List of suggested additional citations. These are papers that are important in the 'surrounding' of 
of this run, or papers that preceded the highly important papers. If you like your results we are grateful for a citation.

  1. Neese, F.
     The ORCA program system
     WIRES Comput. Molec. Sci. 2012 2(1), 73-78
     doi.org/10.1002/wcms.81
  2. Neese, F.
     Software update: the ORCA program system, version 4.0
     WIRES Comput. Molec. Sci. 2018 8(1), 1-6
     doi.org/10.1002/wcms.1327
  3. Neese, F.; Wennmohs, F.; Becker, U.; Riplinger, C.
     The ORCA quantum chemistry program package
     J. Chem. Phys. 2020 152(22), 224108
     doi.org/10.1063/5.0004608
  4. Neese, F.
     Software update: The ORCA program system—Version 5.0
     WIRES Comput. Molec. Sci. 2022 12(1), e1606
     doi.org/10.1002/wcms.1606

List of optional additional citations

  1. Neese, F.
     Approximate second-order SCF convergence for spin unrestricted wavefunctions
     Chem. Phys. Lett. 2000 325(1-3), 93-98
     doi.org/10.1016/s0009-2614(00)00662-x

Timings for individual modules:

Sum of individual times          ...     5781.314 sec (=  96.355 min)
Startup calculation              ...       13.229 sec (=   0.220 min)   0.2 %
SCF iterations                   ...       81.283 sec (=   1.355 min)   1.4 %
Property integrals               ...        1.125 sec (=   0.019 min)   0.0 %
Property calculations            ...        1.972 sec (=   0.033 min)   0.0 %
CIS module                       ...     5683.705 sec (=  94.728 min)  98.3 %
                             ****ORCA TERMINATED NORMALLY****
TOTAL RUN TIME: 0 days 1 hours 36 minutes 22 seconds 87 msec
