
                                 *****************
                                 * O   R   C   A *
                                 *****************

                                            #,                                       
                                            ###                                      
                                            ####                                     
                                            #####                                    
                                            ######                                   
                                           ########,                                 
                                     ,,################,,,,,                         
                               ,,#################################,,                 
                          ,,##########################################,,             
                       ,#########################################, ''#####,          
                    ,#############################################,,   '####,        
                  ,##################################################,,,,####,       
                ,###########''''           ''''###############################       
              ,#####''   ,,,,##########,,,,          '''####'''          '####       
            ,##' ,,,,###########################,,,                        '##       
           ' ,,###''''                  '''############,,,                           
         ,,##''                                '''############,,,,        ,,,,,,###''
      ,#''                                            '''#######################'''  
     '                                                          ''''####''''         
             ,#######,   #######,   ,#######,      ##                                
            ,#'     '#,  ##    ##  ,#'     '#,    #''#        ,####,    ,#,          
            ##       ##  ##   ,#'  ##            #'  '#       #'       ,# #          
            ##       ##  #######   ##           ,######,      #####,      #          
            '#,     ,#'  ##    ##  '#,     ,#' ,#      #,     #,   #      #          
             '#######'   ##     ##  '#######'  #'      '#     '####' #    #          



                #########################################################
                #                        -***-                          #
                #          Department of theory and spectroscopy        #
                #                                                       #
                #                      Frank Neese                      #
                #                                                       #
                #     Directorship, Architecture, Infrastructure        #
                #                    SHARK, DRIVERS                     #
                #        Core code/Algorithms in most modules           #
                #                                                       #
                #        Max Planck Institute fuer Kohlenforschung      #
                #                Kaiser Wilhelm Platz 1                 #
                #                 D-45470 Muelheim/Ruhr                 #
                #                      Germany                          #
                #                                                       #
                #                  All rights reserved                  #
                #                        -***-                          #
                #########################################################


                         Program Version 6.1.1  -  RELEASE   -
                                (GIT: $487d211c$)
                          ($2025-11-21 10:33:24 +0100$)


 With contributions from (in alphabetic order):
[Max-Planck-Institut fuer Kohlenforschung]                               
  Daniel Aravena         : Magnetic Suceptibility                        
  Michael Atanasov       : Ab Initio Ligand Field Theory (pilot matlab implementation)
  Alexander A. Auer      : GIAO ZORA, VPT2 properties, NMR spectrum      
  Ute Becker             : All parallelization in ORCA, NUMFREQ, NUMCALC 
  Giovanni Bistoni       : ED, misc. LED, open-shell LED, HFLD           
  Dmytro Bykov           : pre 5.0 version of the SCF Hessian            
  Marcos Casanova-Páez   : Triplet and SCS-CIS(D). UHF-(DLPNO)-IP/EA/STEOM-CCSD. UHF-CVS-IP/STEOM-CCSD   
  Vijay G. Chilkuri      : MRCI spin determinant printing, contributions to CSF-ICE 
  Pauline Colinet        : FMM embedding                                 
  Dipayan Datta          : RHF DLPNO-CCSD density                        
  Achintya Kumar Dutta   : EOM-CC, STEOM-CC                              
  Nicolas Foglia         : Exact transition moments, OPA infrastructure, MCD improvements    
  Dmitry Ganyushin       : Spin-Orbit,Spin-Spin,Magnetic field MRCI      
  Miquel Garcia-Rates    : C-PCM and meta-GGA Hessian, CCSD/C-PCM, Gaussian charge scheme 
  Tiago L. C. Gouveia    : GS-ROHF, GS-ROCIS                             
  Yang Guo               : DLPNO-NEVPT2, F12-NEVPT2, CIM, IAO-localization        
  Andreas Hansen         : Spin unrestricted coupled pair/coupled cluster methods 
  Ingolf Harden          : AUTO-CI MPn and infrastructure                
  Benjamin Helmich-Paris : MC-RPA, TRAH-(SCF,CASSCF), AVAS, COSX integrals, SCF dyn. polar., MC-PDFT, srDFT 
  Lee Huntington         : MR-EOM, pCC                                   
  Robert Izsak           : Overlap fitted RIJCOSX, COSX-SCS-MP3, EOM     
  Riya Kayal             : Wick's Theorem for AUTO-CI, AUTO-CI UHF-CCSDT 
  Emily Kempfer          : AUTO-CI RHF CISDT and CCSDT, approximate NEVPT4
  Christian Kollmar      : KDIIS, OOCD, Brueckner-CCSD(T), CCSD density, CASPT2, CASPT2-K, improved NEVPT2 
  Axel Koslowski         : Symmetry handling                             
  Simone Kossmann        : meta-GGA functionals, TD-DFT gradient, OOMP2, (MP2 Hessian; deprecated post 5.0) 
  Lucas Lang             : DCDCAS, Hyperfine gauge corrections, ICE-SOC+SSC
  Marvin Lechner         : AUTO-CI (C++ implementation), FIC-MRCC        
  Spencer Leger          : CASSCF response                               
  Dagmar Lenk            : GEPOL surface, SMD, ORCA-2-JSON               
  Dimitrios Liakos       : Extrapolation schemes; Compound Job, Property file
  Dimitrios Manganas     : Further ROCIS development; embedding schemes. LFT, Crystal Embedding 
  Dimitrios Pantazis     : SARC Basis sets                               
  Anastasios Papadopoulos: AUTO-CI, single reference methods and gradients 
  Taras Petrenko         : pre 6.0 DFT Hessian and TD-DFT gradient,  ECA, NRVS 
  Petra Pikulova         : Analytic Raman intensities                    
  Peter Pinski           : DLPNO-MP2, DLPNO-MP2 Gradient                 
  Shashank Vittal Rao    : ES-AILFT, MagRelax                            
  Christoph Reimann      : Effective Core Potentials                     
  Marius Retegan         : Local ZFS, SOC                                
  Christoph Riplinger    : Optimizer, TS searches, QM/MM, DLPNO-CCSD(T), (RO)-DLPNO pert. Triples 
  Michael Roemelt        : Original ROCIS implementation, recursive CI coupling coefficients
  Masaaki Saitow         : Open-shell DLPNO-CCSD energy and density      
  Barbara Sandhoefer     : DKH picture change effects                    
  Yorick L. A. Schmerwitz: GMF and freeze-and-release deltaSCF, NEB S-IDPP initial path                    
  Kantharuban Sivalingam : CASSCF convergence/infrastructure, NEVPT2, NEVPT3, NEVPT4(SD), FIC-MRCI and CEPA variants
  Bernardo de Souza      : ESD, SOC TD-DFT                               
  Georgi L. Stoychev     : AutoAux, RI-MP2 NMR, DLPNO-MP2 response, X2C  
  Van Anh Tran           : RI-MP2 g-tensors                              
  Willem Van den Heuvel  : Paramagnetic NMR                              
  Zikuan Wang            : NOTCH, Electric field optimization            
  Frank Wennmohs         : Technical directorship and infrastructure     
  Hang Xu                : AUTO-CI-Response properties                   
                                                                         
[FACCTs GmbH]                                                            
  Markus Bursch, Nicolas Foglia, Miquel Garcia-Rates, Ingolf Harden, Hagen Neugebauer, Anastasios Papadopoulos, 
  Christoph Riplinger, Bernardo de Souza, Georgi L. Stoychev                                                    
                                                                 
  APM, various basis sets, CI-OPT, improved COSX, DLPNO-Multilevel,           
  DOCKER, DRACO, updates on ESD, Fragmentator, GOAT, IRC, LR-CPCM, L-BFGS, MBIS, meta-GGA TD-DFT gradient, ML-optimized integration grids, 
  MM, NACMEs, nearIR, NEB, NEB-TS, NL-DFT gradient (VV10), 2- and 3-layer-ONIOM, interface openCOSMO-RS, QMMM,   
  Crystal-QMMM, RESP, rigid body optimization, SF, symmetry and pop. for TD-DFT, various functionals, SOLVATOR                                   
                                                                         
[Other institutions]                                                     
  V. Asgeirsson          : NEB                                           
  Christoph Bannwarth    : sTDA-DFT, sTD-DFT, PBEh-3c, B97-3c, D3        
  Giovanni Bistoni       : ETS/NOCV, ADLD/ADEX, COVALED                  
  Martin Brehm           : Molecular dynamics                            
  Ronald Cardenas        : ETS/NOCV                                      
  Martina Colucci        : COVALED                                       
  Sebastian Ehlert       : rSCAN, r2SCAN, r2SCAN-3c, D4, dhf basis sets  
  Marvin Friede          : D4 for Fr, Ra, Ac-Lr                          
  Lars Goerigk           : TD-DFT with DH, B97 family of functionals     
  Stefan Grimme          : VdW corrections, initial TS optimization, DFT functionals, gCP, sTDA/sTD-DF 
  Waldemar Hujo          : DFT-NL                                        
  H. Jonsson             : NEB                                           
  Holger Kruse           : gCP                                           
  Marcel Mueller         : wB97X-3c, vDZP basis set                      
  Hagen Neugebauer       : wr2SCAN, Native XTB                           
  Gianluca Regni         : ADLD/ADEX                                     
  Tobias Risthaus        : pre 6.0 range-separated hybrid DFT and stability analysis
  Lukas Wittmann         : regularized MP2, r2SCAN double-hybrids, wr2SCAN        
                                                                         
We gratefully acknowledge several colleagues who have allowed us to      
interface, adapt or use parts of their codes:                            
  Ed Valeev, F. Pavosevic, A. Kumar             : LibInt (2-el integral package), F12 methods 
  Garnet Chan, S. Sharma, J. Yang, R. Olivares  : DMRG                   
  Ulf Ekstrom                                   : XCFun DFT Library      
  Mihaly Kallay                                 : mrcc  (arbitrary order and MRCC methods)
  Frank Weinhold                                : gennbo (NPA and NBO analysis)           
  Simon Mueller                                 : openCOSMO-RS                            
  Christopher J. Cramer and Donald G. Truhlar   : smd solvation model                     
  S Lehtola, MJT Oliveira, MAL Marques          : LibXC Library                           
  Liviu Ungur et al                             : ANISO software                          


 Your calculation uses the libint2 library for the computation of 2-el integrals
 For citations please refer to: http://libint.valeyev.net

 Your ORCA version has been built with support for libXC version: 7.0.0
 For citations please refer to: https://libxc.gitlab.io

 This ORCA versions uses:
   CBLAS   interface :  Fast vector & matrix operations
   LAPACKE interface :  Fast linear algebra routines
   SCALAPACK package :  Parallel linear algebra routines
   Shared memory     :  Shared parallel matrices
   BLAS/LAPACK       :  OpenBLAS 0.3.29  USE64BITINT DYNAMIC_ARCH NO_AFFINITY Haswell SINGLE_THREADED
        Core in use  :  Haswell
   Copyright (c) 2011-2014, The OpenBLAS Project


  ***********************************
  * Starting time: Sat Jul  4 18:05:06 2026
  * Host name:     steezy
  * Process ID:    1141153
  * Working dir.:  /home/jannes/chlorophyll-ladder/006-core-ladder/porphin/03_tddft_ch2cl2/pbe0
  ***********************************

NOTE: MaxCore=3000 MB was set to SCF,MP2,MDCI,CIPSI,MRCI,RASCI and CIS
      => If you want to overwrite this, your respective input block should be placed after the MaxCore statement


***************************************
The coordinates will be read from file: /home/jannes/chlorophyll-ladder/006-core-ladder/porphin/01_opt/porphin_opt_b3lypd4_tzvp.xyz
***************************************


================================================================================

----- Orbital basis set information -----
Your calculation utilizes the basis: def2-TZVP
   F. Weigend and R. Ahlrichs, Phys. Chem. Chem. Phys. 7, 3297 (2005).

----- AuxJ basis set information -----
Your calculation utilizes the auxiliary basis: def2/J
   H-Rn: F. Weigend, Phys. Chem. Chem. Phys. 8, 1057 (2006).
   Fr-Lr: K. Eichkorn, F. Weigend, O. Treutler, R. Ahlrichs; Theor. Chem. Acc. 97, 119 (1997).

================================================================================
                                        WARNINGS
                       Please study these warnings very carefully!
================================================================================

WARNING: Old DensityContainer found on disk!
         Will remove this file - 
         If you want to keep old densities, please start your calculation with a different basename. 


WARNING: CIS/ROCIS methods need fully converged wavefunctions
  ===> : Setting SCFConvForced true
         You can overwrite this default with %scf ConvForced false 


================================================================================
                                       INPUT FILE
================================================================================
NAME = tddft.inp
|  1> %pal nprocs 4 end
|  2> %maxcore 3000
|  3> ! PBE0 def2-TZVP def2/J RIJCOSX DefGrid3 TightSCF CPCM(CH2Cl2)
|  4> %tddft
|  5>   nroots 30
|  6>   tda false
|  7>   triplets false
|  8> end
|  9> * xyzfile 0 1 /home/jannes/chlorophyll-ladder/006-core-ladder/porphin/01_opt/porphin_opt_b3lypd4_tzvp.xyz
| 10> 
| 11>                          ****END OF INPUT****
================================================================================

                       ****************************
                       * Single Point Calculation *
                       ****************************

---------------------------------
CARTESIAN COORDINATES (ANGSTROEM)
---------------------------------
  N     -2.180891    2.518466    3.532389
  H      1.690443   -2.236382    3.933896
  C     -4.367841    3.017687    3.515126
  C     -0.395315   -1.565610    3.903357
  N      0.088551    0.689208    3.671590
  C      0.950736   -1.453154    3.869075
  H     -0.990663   -2.460360    4.002368
  C      2.882772    1.818374    3.512765
  N     -0.256644    4.697916    3.282877
  C     -1.118820    6.840288    3.085562
  C      2.527769    0.484722    3.650265
  C      2.690769    4.048684    3.296192
  N      2.012819    2.868614    3.422204
  C      4.083084    3.724839    3.307617
  C     -0.919803   -0.214146    3.778525
  C      1.236865   -0.033970    3.723482
  C     -2.858871    1.338374    3.658064
  H     -1.173514    2.603115    3.511443
  H      1.005441    2.783922    3.442823
  C     -3.050836    3.568698    3.441639
  C     -4.251194    1.662224    3.646465
  C     -2.280939    0.082808    3.772232
  C     -2.695851    4.902359    3.304255
  C      4.199763    2.369381    3.439069
  C     -1.404950    5.421089    3.231097
  C      0.227221    6.952725    3.051110
  C      2.112836    5.304259    3.182028
  C      0.751725    5.601268    3.175906
  H     -5.273861    3.600151    3.470570
  H     -5.044736    0.937212    3.728720
  H     -2.966724   -0.749445    3.865261
  H      3.346095   -0.221478    3.707096
  H      5.105812    1.786953    3.483475
  H      4.876640    4.449816    3.225158
  H      2.798652    6.136469    3.088803
  H      0.822550    7.847490    2.952095
  H     -3.514168    5.608569    3.247399
  H     -1.858503    7.623554    3.020905

----------------------------
CARTESIAN COORDINATES (A.U.)
----------------------------
  NO LB      ZA    FRAG     MASS         X           Y           Z
   0 N     7.0000    0    14.007   -4.121286    4.759210    6.675248
   1 H     1.0000    0     1.008    3.194474   -4.226150    7.433986
   2 C     6.0000    0    12.011   -8.254023    5.702602    6.642626
   3 C     6.0000    0    12.011   -0.747036   -2.958575    7.376276
   4 N     7.0000    0    14.007    0.167337    1.302415    6.938300
   5 C     6.0000    0    12.011    1.796630   -2.746063    7.311492
   6 H     1.0000    0     1.008   -1.872083   -4.649406    7.563380
   7 C     6.0000    0    12.011    5.447650    3.436230    6.638163
   8 N     7.0000    0    14.007   -0.484987    8.877775    6.203739
   9 C     6.0000    0    12.011   -2.114264   12.926270    5.830868
  10 C     6.0000    0    12.011    4.776792    0.915991    6.898001
  11 C     6.0000    0    12.011    5.084817    7.650904    6.228900
  12 N     7.0000    0    14.007    3.803677    5.420894    6.467028
  13 C     6.0000    0    12.011    7.715910    7.038925    6.250490
  14 C     6.0000    0    12.011   -1.738176   -0.404677    7.140378
  15 C     6.0000    0    12.011    2.337336   -0.064195    7.036362
  16 C     6.0000    0    12.011   -5.402483    2.529161    6.912740
  17 H     1.0000    0     1.008   -2.217620    4.919174    6.635666
  18 H     1.0000    0     1.008    1.900007    5.260849    6.505992
  19 C     6.0000    0    12.011   -5.765244    6.743862    6.503755
  20 C     6.0000    0    12.011   -8.033592    3.141148    6.890820
  21 C     6.0000    0    12.011   -4.310349    0.156485    7.128485
  22 C     6.0000    0    12.011   -5.094419    9.264115    6.244138
  23 C     6.0000    0    12.011    7.936402    4.477482    6.498898
  24 C     6.0000    0    12.011   -2.654970   10.244374    6.105888
  25 C     6.0000    0    12.011    0.429385   13.138747    5.765762
  26 C     6.0000    0    12.011    3.992682   10.023597    6.013161
  27 C     6.0000    0    12.011    1.420554   10.584862    6.001593
  28 H     1.0000    0     1.008   -9.966153    6.803300    6.558426
  29 H     1.0000    0     1.008   -9.533170    1.771074    7.046259
  30 H     1.0000    0     1.008   -5.606296   -1.416247    7.304285
  31 H     1.0000    0     1.008    6.323203   -0.418534    7.005396
  32 H     1.0000    0     1.008    9.648586    3.376852    6.582814
  33 H     1.0000    0     1.008    9.215514    8.408934    6.094665
  34 H     1.0000    0     1.008    5.288685   11.596245    5.836991
  35 H     1.0000    0     1.008    1.554393   14.829606    5.578651
  36 H     1.0000    0     1.008   -6.640815   10.598659    6.136694
  37 H     1.0000    0     1.008   -3.512061   14.406429    5.708684

--------------------------------
INTERNAL COORDINATES (ANGSTROEM)
--------------------------------
 N      0   0   0     0.000000000000     0.00000000     0.00000000
 H      1   0   0     6.144673229395     0.00000000     0.00000000
 C      1   2   0     2.243272391530   141.89876199     0.00000000
 C      2   1   3     2.191175978699    33.12144035   359.78196922
 N      4   2   1     2.317768042295    95.76702730     0.05041047
 C      2   1   3     1.079266249219     4.21370891     0.07915914
 H      4   2   1     1.079268154455   105.66535074   180.05560002
 C      5   4   2     3.017932326686   124.23173975   359.97265948
 N      1   2   6     2.918045108678    99.67616098   180.35207023
 C      9   1   2     2.317765511693   116.89442777   179.97808325
 C      8   5   4     1.386925732322    52.98756772     0.03785122
 C      8   5   4     2.249010893586   107.28141435   180.03816109
 N      8   5   4     1.366756111009    72.64238625   179.95789291
 C     12   8   5     1.429526220242    72.02656814   179.86646412
 C      5   4   2     1.358035743233    35.90327310   180.00368341
 C      5   4   2     1.358052178109    69.79697305     0.00000000
 C      1   2   6     1.366772292242    68.80094450     0.21857691
 H      1   2   6     1.011143908013    55.83702380   179.99401983
 H     13   8   5     1.011142399064   124.64063398   359.69569907
 C      1   2   6     1.366758138321   179.51311626   348.83759675
 C      3   1   2     1.366797559489    72.26372871     0.13506297
 C     17   1   2     1.386897788060   125.62778630     0.05508444
 C     20   1  18     1.386917453648   125.63133011     0.18593759
 C     14  12   8     1.366806197569   107.97320808     0.00000000
 C      9   1   2     1.358037856131    80.99028717   179.97367567
 C     10   9   1     1.351168367092    73.05307946   179.99423387
 C     12   8   5     1.386906342426   160.26769765   359.97153859
 C      9   1   2     1.358047941200   173.30861488   359.93543063
 H      3   1   2     1.078017863511   160.03617534   180.21836084
 H     21   3   1     1.078015481635   127.69627650   180.02779321
 H     22  17   1     1.082405877126   116.04909900   179.92532307
 H     11   8   5     1.082407332853   116.04421957   180.06654092
 H     24  14  12     1.078015962244   127.69819998   180.03058896
 H     14  12   8     1.078017967300   124.33296377   180.03202002
 H     27  12   8     1.082407600124   116.04702151   179.99456629
 H     26  10   9     1.079269782346   128.37740192   179.99605738
 H     23  20   1     1.082408536204   116.04576671   180.03676831
 H     10   9   1     1.079266886998   158.56973537     0.00000000

---------------------------
INTERNAL COORDINATES (A.U.)
---------------------------
 N      0   0   0     0.000000000000     0.00000000     0.00000000
 H      1   0   0    11.611749585994     0.00000000     0.00000000
 C      1   2   0     4.239170463779   141.89876199     0.00000000
 C      2   1   3     4.140722510968    33.12144035   359.78196922
 N      4   2   1     4.379946841893    95.76702730     0.05041047
 C      2   1   3     2.039517636609     4.21370891     0.07915914
 H      4   2   1     2.039521236983   105.66535074   180.05560002
 C      5   4   2     5.703065588145   124.23173975   359.97265948
 N      1   2   6     5.514306101830    99.67616098   180.35207023
 C      9   1   2     4.379942059747   116.89442777   179.97808325
 C      8   5   4     2.620909802176    52.98756772     0.03785122
 C      8   5   4     4.250014661082   107.28141435   180.03816109
 N      8   5   4     2.582794741670    72.64238625   179.95789291
 C     12   8   5     2.701413057517    72.02656814   179.86646412
 C      5   4   2     2.566315634787    35.90327310   180.00368341
 C      5   4   2     2.566346692200    69.79697305     0.00000000
 C      1   2   6     2.582825319768    68.80094450     0.21857691
 H      1   2   6     1.910785068128    55.83702380   179.99401983
 H     13   8   5     1.910782216628   124.64063398   359.69569907
 C      1   2   6     2.582798572734   179.51311626   348.83759675
 C      3   1   2     2.582873067947    72.26372871     0.13506297
 C     17   1   2     2.620856995174   125.62778630     0.05508444
 C     20   1  18     2.620894157749   125.63133011     0.18593759
 C     14  12   8     2.582889391552   107.97320808     0.00000000
 C      9   1   2     2.566319627585    80.99028717   179.97367567
 C     10   9   1     2.553338174621    73.05307946   179.99423387
 C     12   8   5     2.620873160584   160.26769765   359.97153859
 C      9   1   2     2.566338685603   173.30861488   359.93543063
 H      3   1   2     2.037158529510   160.03617534   180.21836084
 H     21   3   1     2.037154028418   127.69627650   180.02779321
 H     22  17   1     2.045450673515   116.04909900   179.92532307
 H     11   8   5     2.045453424440   116.04421957   180.06654092
 H     24  14  12     2.037154936637   127.69819998   180.03058896
 H     14  12   8     2.037158725644   124.33296377   180.03202002
 H     27  12   8     2.045453929509   116.04702151   179.99456629
 H     26  10   9     2.039524313251   128.37740192   179.99605738
 H     23  20   1     2.045455698445   116.04576671   180.03676831
 H     10   9   1     2.039518841837   158.56973537     0.00000000

---------------------
BASIS SET INFORMATION
---------------------
There are 3 groups of distinct atoms

 Group   1 Type N   : 11s6p2d1f contracted to 5s3p2d1f pattern {62111/411/11/1}
 Group   2 Type H   : 5s1p contracted to 3s1p pattern {311/1}
 Group   3 Type C   : 11s6p2d1f contracted to 5s3p2d1f pattern {62111/411/11/1}

Atom   0N    basis set group =>   1
Atom   1H    basis set group =>   2
Atom   2C    basis set group =>   3
Atom   3C    basis set group =>   3
Atom   4N    basis set group =>   1
Atom   5C    basis set group =>   3
Atom   6H    basis set group =>   2
Atom   7C    basis set group =>   3
Atom   8N    basis set group =>   1
Atom   9C    basis set group =>   3
Atom  10C    basis set group =>   3
Atom  11C    basis set group =>   3
Atom  12N    basis set group =>   1
Atom  13C    basis set group =>   3
Atom  14C    basis set group =>   3
Atom  15C    basis set group =>   3
Atom  16C    basis set group =>   3
Atom  17H    basis set group =>   2
Atom  18H    basis set group =>   2
Atom  19C    basis set group =>   3
Atom  20C    basis set group =>   3
Atom  21C    basis set group =>   3
Atom  22C    basis set group =>   3
Atom  23C    basis set group =>   3
Atom  24C    basis set group =>   3
Atom  25C    basis set group =>   3
Atom  26C    basis set group =>   3
Atom  27C    basis set group =>   3
Atom  28H    basis set group =>   2
Atom  29H    basis set group =>   2
Atom  30H    basis set group =>   2
Atom  31H    basis set group =>   2
Atom  32H    basis set group =>   2
Atom  33H    basis set group =>   2
Atom  34H    basis set group =>   2
Atom  35H    basis set group =>   2
Atom  36H    basis set group =>   2
Atom  37H    basis set group =>   2
---------------------------------
AUXILIARY/J BASIS SET INFORMATION
---------------------------------
There are 3 groups of distinct atoms

 Group   1 Type N   : 12s5p4d2f1g contracted to 6s4p3d1f1g pattern {711111/2111/211/2/1}
 Group   2 Type H   : 5s2p1d contracted to 3s1p1d pattern {311/2/1}
 Group   3 Type C   : 12s5p4d2f1g contracted to 6s4p3d1f1g pattern {711111/2111/211/2/1}

Atom   0N    basis set group =>   1
Atom   1H    basis set group =>   2
Atom   2C    basis set group =>   3
Atom   3C    basis set group =>   3
Atom   4N    basis set group =>   1
Atom   5C    basis set group =>   3
Atom   6H    basis set group =>   2
Atom   7C    basis set group =>   3
Atom   8N    basis set group =>   1
Atom   9C    basis set group =>   3
Atom  10C    basis set group =>   3
Atom  11C    basis set group =>   3
Atom  12N    basis set group =>   1
Atom  13C    basis set group =>   3
Atom  14C    basis set group =>   3
Atom  15C    basis set group =>   3
Atom  16C    basis set group =>   3
Atom  17H    basis set group =>   2
Atom  18H    basis set group =>   2
Atom  19C    basis set group =>   3
Atom  20C    basis set group =>   3
Atom  21C    basis set group =>   3
Atom  22C    basis set group =>   3
Atom  23C    basis set group =>   3
Atom  24C    basis set group =>   3
Atom  25C    basis set group =>   3
Atom  26C    basis set group =>   3
Atom  27C    basis set group =>   3
Atom  28H    basis set group =>   2
Atom  29H    basis set group =>   2
Atom  30H    basis set group =>   2
Atom  31H    basis set group =>   2
Atom  32H    basis set group =>   2
Atom  33H    basis set group =>   2
Atom  34H    basis set group =>   2
Atom  35H    basis set group =>   2
Atom  36H    basis set group =>   2
Atom  37H    basis set group =>   2

Checking for AutoStart:
The File: tddft.gbw exists
Trying to determine its content:
     ... Fine, the file contains calculation information
     ... Fine, the calculation information was read
     ... Fine, the file contains a basis set
     ... Fine, the basis set was read
     ... Fine, the file contains a geometry
     ... Fine, the geometry was read
     ... Fine, the file contains a set of orbitals
     ... Fine, the orbitals can be read
     => possible old guess file was deleted
     => GBW file was renamed to GES file
     => GES file is set as startup file
     => Guess is set to MORead
     ... now leaving AutoStart



           ************************************************************
           *        Program running with 4 parallel MPI-processes     *
           *              working on a common directory               *
           ************************************************************
------------------------------------------------------------------------------
                             ORCA STARTUP CALCULATIONS
                           -- RI-GTO INTEGRALS CHOSEN --
------------------------------------------------------------------------------
------------------------------------------------------------------------------
                   ___                                                        
                  /   \      - P O W E R E D   B Y -                         
                 /     \                                                     
                 |  |  |   _    _      __       _____    __    __             
                 |  |  |  | |  | |    /  \     |  _  \  |  |  /  |          
                  \  \/   | |  | |   /    \    | | | |  |  | /  /          
                 / \  \   | |__| |  /  /\  \   | |_| |  |  |/  /          
                |  |  |   |  __  | /  /__\  \  |    /   |      \           
                |  |  |   | |  | | |   __   |  |    \   |  |\   \          
                \     /   | |  | | |  |  |  |  | |\  \  |  | \   \       
                 \___/    |_|  |_| |__|  |__|  |_| \__\ |__|  \__/        
                                                                              
                      - O R C A' S   B I G   F R I E N D -                    
                                      &                                       
                       - I N T E G R A L  F E E D E R -                       
                                                                              
 v1 FN, 2020, v2 2021, v3 2022-2024                                           
------------------------------------------------------------------------------


----------------------
SHARK INTEGRAL PACKAGE
----------------------

Number of atoms                             ...     38
Number of basis functions                   ...    828
Number of shells                            ...    320
Maximum angular momentum                    ...      3
Integral batch strategy                     ... SHARK/LIBINT Hybrid
RI-J (if used) integral strategy            ... SPLIT-RIJ (Revised 2003 algorithm where possible)
Printlevel                                  ...      1
Contraction scheme used                     ... SEGMENTED contraction
Prescreening option                         ... SCHWARTZ
   Thresh                                   ... 2.500e-11
   Tcut                                     ... 2.500e-12
   Tpresel                                  ... 2.500e-12 
Coulomb Range Separation                    ... NOT USED
Exchange Range Separation                   ... NOT USED
Multipole approximations                    ... NOT USED
Finite Nucleus Model                        ... NOT USED
CABS basis                                  ... NOT available
Auxiliary Coulomb fitting basis             ... AVAILABLE
   # of basis functions in Aux-J            ...   1330
   # of shells in Aux-J                     ...    430
   Maximum angular momentum in Aux-J        ...      4
Auxiliary J/K fitting basis                 ... NOT available
Auxiliary Correlation fitting basis         ... NOT available
Auxiliary 'external' fitting basis          ... NOT available

Checking pre-screening integrals            ... done (  0.0 sec) Dimension = 320
   => SHARK Basis and OBASIS are compatible. Storing Pre-screening
Shell pair information
Shell pair cut-off parameter TPreSel        ...   2.5e-12
Total number of shell pairs                 ...     51360
Shell pairs after pre-screening             ...     36355
Total number of primitive shell pairs       ...    159900
Primitive shell pairs kept                  ...     74234
          la=0 lb=0:   8928 shell pairs
          la=1 lb=0:  10386 shell pairs
          la=1 lb=1:   3015 shell pairs
          la=2 lb=0:   5224 shell pairs
          la=2 lb=1:   3148 shell pairs
          la=2 lb=2:    850 shell pairs
          la=3 lb=0:   2422 shell pairs
          la=3 lb=1:   1488 shell pairs
          la=3 lb=2:    724 shell pairs
          la=3 lb=3:    170 shell pairs

Checking whether 4 symmetric matrices of dimension 828 fit in memory
:Max Core in MB      =   3000.00
 MB in use           =     47.55
 MB left             =   2952.45
 MB needed           =     10.47
 Data fit in memory  = YES
Calculating RI/J V-Matrix + Cholesky decomp.... done (  0.2 sec)
Calculating Nuclear repulsion               ... done (  0.0 sec) ENN=   1861.115687571553 Eh

Diagonalization of the overlap matrix:
Smallest eigenvalue                        ... 1.003e-05
Time for diagonalization                   ...    0.240 sec
Threshold for overlap eigenvalues          ... 1.000e-07
Number of eigenvalues below threshold      ... 0
Time for construction of square roots      ...    0.151 sec
Total time needed                          ...    0.400 sec

-------------------
DFT GRID GENERATION
-------------------

General Integration Accuracy     IntAcc      ... 4.959
Radial Grid Type                 RadialGrid  ... OptM3 with GC (2021)
Angular Grid (max. ang.)         AngularGrid ... 6 (Lebedev-590)
Angular grid pruning method      GridPruning ... 4 (adaptive)
Weight generation scheme         WeightScheme... mBecke (2022)
Basis function cutoff            BFCut       ... 1.0000e-11
Integration weight cutoff        WCut        ... 1.0000e-14
Partially contracted basis set               ... off
Rotationally invariant grid construction     ... off
Angular grids for H and He will be reduced by one unit

Total number of grid points                  ...   459056
Total number of batches                      ...     7194
Average number of points per batch           ...       63
Average number of grid points per atom       ...    12080

--------------------
COSX GRID GENERATION
--------------------

GRIDX 1
-------
General Integration Accuracy     IntAcc      ... 4.020
Radial Grid Type                 RadialGrid  ... OptM3 with GC (2021)
Angular Grid (max. ang.)         AngularGrid ... 2 (Lebedev-110)
Angular grid pruning method      GridPruning ... 4 (adaptive)
Weight generation scheme         WeightScheme... mBecke (2022)
Basis function cutoff            BFCut       ... 1.0000e-11
Integration weight cutoff        WCut        ... 1.0000e-14
Partially contracted basis set               ... on
Rotationally invariant grid construction     ... off
Angular grids for H and He will be reduced by one unit

Total number of grid points                  ...    52427
Total number of batches                      ...      430
Average number of points per batch           ...      121
Average number of grid points per atom       ...     1380
UseSFitting                                  ... on

GRIDX 2
-------
General Integration Accuracy     IntAcc      ... 4.338
Radial Grid Type                 RadialGrid  ... OptM3 with GC (2021)
Angular Grid (max. ang.)         AngularGrid ... 3 (Lebedev-194)
Angular grid pruning method      GridPruning ... 4 (adaptive)
Weight generation scheme         WeightScheme... mBecke (2022)
Basis function cutoff            BFCut       ... 1.0000e-11
Integration weight cutoff        WCut        ... 1.0000e-14
Partially contracted basis set               ... on
Rotationally invariant grid construction     ... off
Angular grids for H and He will be reduced by one unit

Total number of grid points                  ...   114991
Total number of batches                      ...      922
Average number of points per batch           ...      124
Average number of grid points per atom       ...     3026
UseSFitting                                  ... on

GRIDX 3
-------
General Integration Accuracy     IntAcc      ... 4.871
Radial Grid Type                 RadialGrid  ... OptM3 with GC (2021)
Angular Grid (max. ang.)         AngularGrid ... 4 (Lebedev-302)
Angular grid pruning method      GridPruning ... 4 (adaptive)
Weight generation scheme         WeightScheme... mBecke (2022)
Basis function cutoff            BFCut       ... 1.0000e-11
Integration weight cutoff        WCut        ... 1.0000e-14
Partially contracted basis set               ... on
Rotationally invariant grid construction     ... off
Angular grids for H and He will be reduced by one unit

Total number of grid points                  ...   212358
Total number of batches                      ...     1680
Average number of points per batch           ...      126
Average number of grid points per atom       ...     5588
UseSFitting                                  ... on
Grids setup in  19.4 sec
Initializing property integral containers    ... done (  0.0 sec)

SHARK setup successfully completed in  21.1 seconds

Maximum memory used throughout the entire STARTUP-calculation: 144.4 MB


           ************************************************************
           *        Program running with 4 parallel MPI-processes     *
           *              working on a common directory               *
           ************************************************************
-------------------------------------------------------------------------------
                                 ORCA GUESS
                   Start orbitals & Density for SCF / CASSCF
-------------------------------------------------------------------------------

------------
SCF SETTINGS
------------
Hamiltonian:
 Density Functional     Method          .... DFT(GTOs)
 Exchange Functional    Exchange        .... PBE
   PBE kappa parameter   XKappa         ....  0.804000
   PBE mue parameter    XMuePBE         ....  0.219520
 Correlation Functional Correlation     .... PBE
   PBE beta parameter  CBetaPBE         ....  0.066725
 LDA part of GGA corr.  LDAOpt          .... PW91-LDA
 Gradients option       PostSCFGGA      .... off
 Hybrid DFT is turned on
   Fraction HF Exchange ScalHFX         ....  0.250000
   Scaling of DF-GGA-X  ScalDFX         ....  0.750000
   Scaling of DF-GGA-C  ScalDFC         ....  1.000000
   Scaling of DF-LDA-C  ScalLDAC        ....  1.000000
   Perturbative correction              ....  0.000000
   NL short-range parameter             ....  6.900000
 RI-approximation to the Coulomb term is turned on
   Number of AuxJ basis functions       .... 1330
   RIJ-COSX (HFX calculated with COS-X)).... on


General Settings:
 Integral files         IntName         .... tddft
 Hartree-Fock type      HFTyp           .... RHF
 Total Charge           Charge          ....    0
 Multiplicity           Mult            ....    1
 Number of Electrons    NEL             ....  162
 Basis Dimension        Dim             ....  828
 Nuclear Repulsion      ENuc            ....   1861.1156875716 Eh

Convergence Acceleration:
 AO-DIIS                CNVDIIS         .... on
   Start iteration      DIISMaxIt       ....    12
   Startup error        DIISStart       ....  0.200000
   # of expansion vecs  DIISMaxEq       ....     5
   Bias factor          DIISBfac        ....   1.050
   Max. coefficient     DIISMaxC        ....  10.000
 MO-DIIS                CNVKDIIS        .... off
 Trust-Rad. Augm. Hess. CNVTRAH         .... auto
   Auto Start mean grad. ratio tolernc. ....  1.125000
   Auto Start start iteration           ....     1
   Auto Start num. interpolation iter.  ....    10
   Max. Number of Micro iterations      ....    24
   Max. Number of Macro iterations      .... Maxiter - #DIIS iter
   Number of Davidson start vectors     ....     2
   Converg. threshold    (grad. norm)   ....   1.000e-05
   Grad. Scal. Fac. for Micro threshold ....   0.100
   Minimum threshold for Micro iter.    ....   1.000e-02
   NR start threshold (gradient norm)   ....   1.000e-04
   Initial trust radius                 ....   0.400
   Minimum AH scaling param. (alpha)    ....   1.000
   Maximum AH scaling param. (alpha)    .... 1000.000
   Quad. conv. algorithm                .... NR
   White noise on init. David. guess    .... on
   Maximum white noise                  ....   0.010
   Pseudo random numbers                .... off
   Inactive MOs                         .... canonical
   Orbital update algorithm             .... Taylor
   Preconditioner                       .... Diag
   Full preconditioner red. dimension   ....   250
 SOSCF                 CNVSOSCF           .... on
   Start iteration     SOSCFMaxIt         ....   150
   Startup grad/error  SOSCFStart         ....  0.003300
   Hessian update      SOSCFHessUp        .... L-BFGS
   Autom. constraints  SOSCFAutoConstrain .... off
 Level Shifting         CNVShift        .... on
   Level shift para.    LevelShift      ....    0.2500
   Turn off err/grad.   ShiftErr        ....    0.0010
 Zerner damping         CNVZerner       .... off
 Static damping         CNVDamp         .... on
   Fraction old density DampFac         ....    0.7000
   Max. Damping (<1)    DampMax         ....    0.9800
   Min. Damping (>=0)   DampMin         ....    0.0000
   Turn off err/grad.   DampErr         ....    0.1000

SCF Procedure:
 Maximum # iterations   MaxIter         ....   125
 SCF integral mode      SCFMode         .... Direct
   Integral package                     .... SHARK and LIBINT hybrid scheme
 Reset frequency        DirectResetFreq ....    20
 Integral Threshold     Thresh          ....  2.500e-11 Eh
 Primitive CutOff       TCut            ....  2.500e-12 Eh

Convergence Tolerance:
 Convergence Check Mode ConvCheckMode   .... Total+1el-Energy
 Convergence forced     ConvForced      .... 1
 Energy Change          TolE            ....  1.000e-08 Eh
 1-El. energy change                    ....  1.000e-05 Eh
 Orbital Gradient       TolG            ....  1.000e-05
 Orbital Rotation angle TolX            ....  1.000e-05
 DIIS Error             TolErr          ....  5.000e-07

---------------------
INITIAL GUESS: MOREAD
---------------------
Guess MOs are being read from file: tddft.ges
Input Geometry matches current geometry (good)
Input basis set matches current basis set (good)
Occupation numbers will be reassigned to an Aufbau configuration
MOs were renormalized
MOs were reorthogonalized (Cholesky)
                      ------------------
                      INITIAL GUESS DONE (   0.9 sec)
                      ------------------
             **** ENERGY FILE WAS UPDATED (tddft.en.tmp) ****
Finished Guess after   1.6 sec
Maximum memory used throughout the entire GUESS-calculation: 90.5 MB


           ************************************************************
           *        Program running with 4 parallel MPI-processes     *
           *              working on a common directory               *
           ************************************************************

-------------------------------------------------------------------------------------------
                                      ORCA LEAN-SCF
                              memory conserving SCF solver
-------------------------------------------------------------------------------------------

--------------------
CPCM SOLVATION MODEL
--------------------
CPCM parameters:
  Epsilon                                         ...       8.9990
  Refrac                                          ...       1.4242
  Rsolv                                           ...       1.3000
  Surface type                                    ... GAUSSIAN VDW
  Discretization scheme                           ... Constant charge density
    Threshold for H atoms                         ...       5.0000 (charges/Ang^2)
    Threshold for non-H atoms                     ...       5.0000 (charges/Ang^2)
  Epsilon function type                           ...         CPCM
Solvent:                                          ... DICHLOROMETHANE
Radii:
  Scheme                                          ... Element-dependent radii
  Radius for N  used is    3.5149 Bohr (=   1.8600 Ang.)
  Radius for H  used is    2.4944 Bohr (=   1.3200 Ang.)
  Radius for C  used is    3.8550 Bohr (=   2.0400 Ang.)
Calculating surface                               ...        done! (  0.0s)
Cavity surface points                             ...         3512
Cavity Volume                                     ...    2435.1087
Cavity Surface-area                               ...    1185.7219
Calculating surface distance matrix               ...        done! (  0.5s)
Performing Cholesky decomposition & store         ...        done! (  1.6s)
Overall time for CPCM initialization              ...                 2.1s

----------------------------------------D-I-I-S--------------------------------------------
Iteration    Energy (Eh)           Delta-E    RMSDP     MaxDP     DIISErr   Damp  Time(sec)
-------------------------------------------------------------------------------------------
               ***  Starting incremental Fock matrix formation  ***
                              *** Initializing SOSCF ***
---------------------------------------S-O-S-C-F--------------------------------------
Iteration    Energy (Eh)           Delta-E    RMSDP     MaxDP     MaxGrad    Time(sec)
--------------------------------------------------------------------------------------
    1    -988.7702249221536022     0.00e+00  8.57e-06  2.58e-04  3.48e-07   122.5
               *** Restarting incremental Fock matrix formation ***
    2    -988.7702249222340924    -8.05e-11  1.71e-06  5.10e-05  4.49e-07   174.9
                  *** Gradient check signals convergence ***

               *****************************************************
               *                     SUCCESS                       *
               *           SCF CONVERGED AFTER   2 CYCLES          *
               *****************************************************

Recomputing exchange energy using gridx3       ... done (  220.707 sec)
Old exchange energy                            :    -33.805069626 Eh
New exchange energy                            :    -33.805064354 Eh
Exchange energy change after final integration :      0.000005271 Eh
Total energy after final integration           :   -988.770219675 Eh
             **** ENERGY FILE WAS UPDATED (tddft.en.tmp) ****

----------------
TOTAL SCF ENERGY
----------------

Total Energy       :       -988.77021967471853 Eh          -26905.80554 eV

Components:
Nuclear Repulsion  :       1861.11568757155305 Eh           50643.53253 eV
Electronic Energy  :      -2849.86815680997915 Eh          -77548.85505 eV
One Electron Energy:      -5038.52403642361787 Eh         -137105.20933 eV
Two Electron Energy:       2188.65587961363872 Eh           59556.35427 eV
CPCM Dielectric    :         -0.01775570769390 Eh              -0.48316 eV

Virial components:
Potential Energy   :      -1972.80895053912491 Eh          -53682.86073 eV
Kinetic Energy     :        984.03873086440638 Eh           26777.05519 eV
Virial Ratio       :          2.00480823433256

DFT components:
N(Alpha)           :       81.000009071469 electrons
N(Beta)            :       81.000009071469 electrons
N(Total)           :      162.000018142937 electrons
E(X)               :     -101.211470906823 Eh       
E(C)               :       -5.479568532276 Eh       
E(XC)              :     -106.691039439099 Eh       

CPCM Solvation Model Properties:
Surface-charge          :         -0.03466547839613
Corrected charge        :         -0.00000000000000
Outlying charge corr.   :          0.00005746361824 Eh               0.00156 eV
Free-energy (cav+disp)  :  This term is not implemented in the current solvation scheme

---------------
SCF CONVERGENCE
---------------

  Last Energy change         ...    8.0490e-11  Tolerance :   1.0000e-08
  Last MAX-Density change    ...    5.0953e-05  Tolerance :   1.0000e-07
  Last RMS-Density change    ...    1.7144e-06  Tolerance :   5.0000e-09
  Last DIIS Error            ...    1.8818e-06  Tolerance :   5.0000e-07
  Last Orbital Gradient      ...    4.4897e-07  Tolerance :   1.0000e-05
  Last Orbital Rotation      ...    1.2543e-06  Tolerance :   1.0000e-05


----------------
ORBITAL ENERGIES
----------------

  NO   OCC          E(Eh)            E(eV) 
   0   2.0000     -14.429284      -392.6408 
   1   2.0000     -14.429282      -392.6407 
   2   2.0000     -14.365381      -390.9019 
   3   2.0000     -14.365379      -390.9018 
   4   2.0000     -10.279712      -279.7252 
   5   2.0000     -10.279711      -279.7252 
   6   2.0000     -10.279682      -279.7244 
   7   2.0000     -10.279681      -279.7243 
   8   2.0000     -10.261074      -279.2180 
   9   2.0000     -10.261074      -279.2180 
  10   2.0000     -10.261045      -279.2172 
  11   2.0000     -10.261045      -279.2172 
  12   2.0000     -10.241162      -278.6762 
  13   2.0000     -10.241159      -278.6761 
  14   2.0000     -10.241156      -278.6760 
  15   2.0000     -10.241152      -278.6759 
  16   2.0000     -10.238370      -278.6002 
  17   2.0000     -10.238368      -278.6002 
  18   2.0000     -10.237627      -278.5800 
  19   2.0000     -10.237626      -278.5800 
  20   2.0000     -10.225647      -278.2540 
  21   2.0000     -10.225646      -278.2540 
  22   2.0000     -10.224817      -278.2314 
  23   2.0000     -10.224817      -278.2314 
  24   2.0000      -1.027854       -27.9693 
  25   2.0000      -1.026275       -27.9264 
  26   2.0000      -0.981497       -26.7079 
  27   2.0000      -0.978884       -26.6368 
  28   2.0000      -0.852110       -23.1871 
  29   2.0000      -0.830078       -22.5876 
  30   2.0000      -0.824141       -22.4260 
  31   2.0000      -0.822687       -22.3865 
  32   2.0000      -0.818696       -22.2778 
  33   2.0000      -0.788435       -21.4544 
  34   2.0000      -0.788072       -21.4445 
  35   2.0000      -0.772892       -21.0315 
  36   2.0000      -0.749571       -20.3969 
  37   2.0000      -0.689337       -18.7578 
  38   2.0000      -0.681966       -18.5572 
  39   2.0000      -0.627027       -17.0623 
  40   2.0000      -0.622655       -16.9433 
  41   2.0000      -0.618635       -16.8339 
  42   2.0000      -0.609523       -16.5860 
  43   2.0000      -0.603101       -16.4112 
  44   2.0000      -0.598268       -16.2797 
  45   2.0000      -0.581153       -15.8140 
  46   2.0000      -0.571776       -15.5588 
  47   2.0000      -0.540899       -14.7186 
  48   2.0000      -0.529963       -14.4210 
  49   2.0000      -0.521347       -14.1866 
  50   2.0000      -0.516438       -14.0530 
  51   2.0000      -0.478855       -13.0303 
  52   2.0000      -0.463929       -12.6242 
  53   2.0000      -0.463892       -12.6231 
  54   2.0000      -0.463461       -12.6114 
  55   2.0000      -0.457923       -12.4607 
  56   2.0000      -0.456534       -12.4229 
  57   2.0000      -0.445531       -12.1235 
  58   2.0000      -0.443473       -12.0675 
  59   2.0000      -0.435912       -11.8618 
  60   2.0000      -0.430919       -11.7259 
  61   2.0000      -0.429583       -11.6895 
  62   2.0000      -0.417763       -11.3679 
  63   2.0000      -0.412457       -11.2235 
  64   2.0000      -0.399919       -10.8823 
  65   2.0000      -0.396781       -10.7969 
  66   2.0000      -0.395599       -10.7648 
  67   2.0000      -0.389847       -10.6083 
  68   2.0000      -0.382214       -10.4006 
  69   2.0000      -0.381917       -10.3925 
  70   2.0000      -0.350552        -9.5390 
  71   2.0000      -0.309926        -8.4335 
  72   2.0000      -0.301755        -8.2112 
  73   2.0000      -0.293887        -7.9971 
  74   2.0000      -0.293087        -7.9753 
  75   2.0000      -0.289935        -7.8895 
  76   2.0000      -0.287922        -7.8347 
  77   2.0000      -0.265737        -7.2311 
  78   2.0000      -0.261587        -7.1181 
  79   2.0000      -0.216883        -5.9017 
  80   2.0000      -0.213661        -5.8140 
  81   0.0000      -0.095335        -2.5942 
  82   0.0000      -0.095106        -2.5880 
  83   0.0000      -0.030372        -0.8265 
  84   0.0000       0.035668         0.9706 
  85   0.0000       0.051137         1.3915 
  86   0.0000       0.053194         1.4475 
  87   0.0000       0.064510         1.7554 
  88   0.0000       0.067293         1.8311 
  89   0.0000       0.075946         2.0666 
  90   0.0000       0.077424         2.1068 
  91   0.0000       0.081400         2.2150 
*Only the first 10 virtual orbitals were printed.

                    ********************************
                    * MULLIKEN POPULATION ANALYSIS *
                    ********************************

-----------------------
MULLIKEN ATOMIC CHARGES
-----------------------
   0 N :   -0.116686
   1 H :    0.152293
   2 C :   -0.230691
   3 C :   -0.245817
   4 N :   -0.428625
   5 C :   -0.245797
   6 H :    0.152299
   7 C :    0.302513
   8 N :   -0.428614
   9 C :   -0.245748
  10 C :   -0.499059
  11 C :    0.302100
  12 N :   -0.116676
  13 C :   -0.230581
  14 C :    0.352256
  15 C :    0.351541
  16 C :    0.302111
  17 H :    0.228173
  18 H :    0.228173
  19 C :    0.302578
  20 C :   -0.230554
  21 C :   -0.499418
  22 C :   -0.499090
  23 C :   -0.230681
  24 C :    0.351455
  25 C :   -0.245852
  26 C :   -0.499412
  27 C :    0.352301
  28 H :    0.164389
  29 H :    0.164395
  30 H :    0.163312
  31 H :    0.163353
  32 H :    0.164390
  33 H :    0.164394
  34 H :    0.163313
  35 H :    0.152295
  36 H :    0.163371
  37 H :    0.152295
Sum of atomic charges:    0.0000000

--------------------------------
MULLIKEN REDUCED ORBITAL CHARGES
--------------------------------
  0 N s       :     3.415772  s :     3.415772
      pz      :     1.496100  p :     3.628467
      px      :     1.057243
      py      :     1.075125
      dz2     :     0.005200  d :     0.067910
      dxz     :     0.005043
      dyz     :     0.016408
      dx2y2   :     0.023548
      dxy     :     0.017710
      f0      :     0.000810  f :     0.004537
      f+1     :     0.000656
      f-1     :     0.000574
      f+2     :     0.000095
      f-2     :     0.000587
      f+3     :     0.000796
      f-3     :     0.001020

  1 H s       :     0.825408  s :     0.825408
      pz      :     0.004790  p :     0.022299
      px      :     0.008328
      py      :     0.009180

  2 C s       :     3.276073  s :     3.276073
      pz      :     0.989051  p :     2.859825
      px      :     0.919653
      py      :     0.951121
      dz2     :     0.005735  d :     0.087044
      dxz     :     0.010519
      dyz     :     0.019893
      dx2y2   :     0.018387
      dxy     :     0.032509
      f0      :     0.001475  f :     0.007749
      f+1     :     0.000815
      f-1     :     0.000672
      f+2     :     0.000931
      f-2     :     0.000452
      f+3     :     0.002266
      f-3     :     0.001138

  3 C s       :     3.281379  s :     3.281379
      pz      :     0.990947  p :     2.870273
      px      :     0.961874
      py      :     0.917452
      dz2     :     0.005112  d :     0.086457
      dxz     :     0.019276
      dyz     :     0.010005
      dx2y2   :     0.018910
      dxy     :     0.033155
      f0      :     0.001443  f :     0.007706
      f+1     :     0.000531
      f-1     :     0.000792
      f+2     :     0.001013
      f-2     :     0.000385
      f+3     :     0.001188
      f-3     :     0.002354

  4 N s       :     3.608552  s :     3.608552
      pz      :     1.278890  p :     3.753110
      px      :     1.021957
      py      :     1.452263
      dz2     :     0.005601  d :     0.063340
      dxz     :     0.012759
      dyz     :     0.009095
      dx2y2   :     0.014821
      dxy     :     0.021064
      f0      :     0.000613  f :     0.003622
      f+1     :     0.000394
      f-1     :     0.000299
      f+2     :     0.000134
      f-2     :     0.000571
      f+3     :     0.000909
      f-3     :     0.000703

  5 C s       :     3.281404  s :     3.281404
      pz      :     0.991155  p :     2.870221
      px      :     0.962326
      py      :     0.916740
      dz2     :     0.005327  d :     0.086465
      dxz     :     0.017200
      dyz     :     0.011820
      dx2y2   :     0.019883
      dxy     :     0.032235
      f0      :     0.001434  f :     0.007707
      f+1     :     0.000573
      f-1     :     0.000768
      f+2     :     0.001254
      f-2     :     0.000130
      f+3     :     0.001366
      f-3     :     0.002183

  6 H s       :     0.825399  s :     0.825399
      pz      :     0.004839  p :     0.022302
      px      :     0.006654
      py      :     0.010810

  7 C s       :     3.084641  s :     3.084641
      pz      :     0.925724  p :     2.442856
      px      :     0.808829
      py      :     0.708303
      dz2     :     0.006101  d :     0.155995
      dxz     :     0.030049
      dyz     :     0.038652
      dx2y2   :     0.037024
      dxy     :     0.044169
      f0      :     0.002198  f :     0.013995
      f+1     :     0.000915
      f-1     :     0.001156
      f+2     :     0.000666
      f-2     :     0.002476
      f+3     :     0.003372
      f-3     :     0.003213

  8 N s       :     3.608544  s :     3.608544
      pz      :     1.278884  p :     3.753107
      px      :     1.021953
      py      :     1.452270
      dz2     :     0.005601  d :     0.063341
      dxz     :     0.012759
      dyz     :     0.009095
      dx2y2   :     0.014821
      dxy     :     0.021064
      f0      :     0.000613  f :     0.003622
      f+1     :     0.000394
      f-1     :     0.000299
      f+2     :     0.000134
      f-2     :     0.000571
      f+3     :     0.000909
      f-3     :     0.000703

  9 C s       :     3.281364  s :     3.281364
      pz      :     0.991159  p :     2.870211
      px      :     0.962332
      py      :     0.916720
      dz2     :     0.005327  d :     0.086468
      dxz     :     0.017199
      dyz     :     0.011820
      dx2y2   :     0.019885
      dxy     :     0.032236
      f0      :     0.001434  f :     0.007707
      f+1     :     0.000573
      f-1     :     0.000768
      f+2     :     0.001254
      f-2     :     0.000130
      f+3     :     0.001366
      f-3     :     0.002183

 10 C s       :     3.450659  s :     3.450659
      pz      :     1.004868  p :     2.961882
      px      :     1.002609
      py      :     0.954404
      dz2     :     0.003516  d :     0.079348
      dxz     :     0.014727
      dyz     :     0.016914
      dx2y2   :     0.009606
      dxy     :     0.034585
      f0      :     0.001388  f :     0.007170
      f+1     :     0.000664
      f-1     :     0.000720
      f+2     :     0.000788
      f-2     :     0.000445
      f+3     :     0.001750
      f-3     :     0.001415

 11 C s       :     3.084813  s :     3.084813
      pz      :     0.925361  p :     2.443065
      px      :     0.825784
      py      :     0.691920
      dz2     :     0.006105  d :     0.156027
      dxz     :     0.029618
      dyz     :     0.039216
      dx2y2   :     0.042700
      dxy     :     0.038390
      f0      :     0.002201  f :     0.013995
      f+1     :     0.000853
      f-1     :     0.001214
      f+2     :     0.001120
      f-2     :     0.002025
      f+3     :     0.002330
      f-3     :     0.004253

 12 N s       :     3.415766  s :     3.415766
      pz      :     1.496098  p :     3.628461
      px      :     1.057239
      py      :     1.075124
      dz2     :     0.005201  d :     0.067911
      dxz     :     0.005043
      dyz     :     0.016409
      dx2y2   :     0.023549
      dxy     :     0.017710
      f0      :     0.000810  f :     0.004537
      f+1     :     0.000656
      f-1     :     0.000574
      f+2     :     0.000095
      f-2     :     0.000587
      f+3     :     0.000796
      f-3     :     0.001020

 13 C s       :     3.276010  s :     3.276010
      pz      :     0.989242  p :     2.859773
      px      :     0.914896
      py      :     0.955635
      dz2     :     0.005531  d :     0.087049
      dxz     :     0.012706
      dyz     :     0.017941
      dx2y2   :     0.018378
      dxy     :     0.032493
      f0      :     0.001486  f :     0.007749
      f+1     :     0.000748
      f-1     :     0.000719
      f+2     :     0.001219
      f-2     :     0.000178
      f+3     :     0.002085
      f-3     :     0.001314

 14 C s       :     3.073466  s :     3.073466
      pz      :     0.906757  p :     2.400388
      px      :     0.714189
      py      :     0.779442
      dz2     :     0.005227  d :     0.159837
      dxz     :     0.036494
      dyz     :     0.028576
      dx2y2   :     0.048418
      dxy     :     0.041122
      f0      :     0.002055  f :     0.014053
      f+1     :     0.001014
      f-1     :     0.000914
      f+2     :     0.000724
      f-2     :     0.002042
      f+3     :     0.003804
      f-3     :     0.003501

 15 C s       :     3.073669  s :     3.073669
      pz      :     0.906895  p :     2.400876
      px      :     0.713533
      py      :     0.780448
      dz2     :     0.005138  d :     0.159861
      dxz     :     0.037567
      dyz     :     0.027594
      dx2y2   :     0.046988
      dxy     :     0.042573
      f0      :     0.002056  f :     0.014054
      f+1     :     0.001045
      f-1     :     0.000881
      f+2     :     0.001054
      f-2     :     0.001704
      f+3     :     0.004977
      f-3     :     0.002336

 16 C s       :     3.084814  s :     3.084814
      pz      :     0.925359  p :     2.443059
      px      :     0.825797
      py      :     0.691902
      dz2     :     0.006101  d :     0.156022
      dxz     :     0.029617
      dyz     :     0.039218
      dx2y2   :     0.042696
      dxy     :     0.038390
      f0      :     0.002201  f :     0.013995
      f+1     :     0.000853
      f-1     :     0.001214
      f+2     :     0.001120
      f-2     :     0.002025
      f+3     :     0.002330
      f-3     :     0.004253

 17 H s       :     0.729084  s :     0.729084
      pz      :     0.010226  p :     0.042743
      px      :     0.025682
      py      :     0.006836

 18 H s       :     0.729085  s :     0.729085
      pz      :     0.010225  p :     0.042743
      px      :     0.025682
      py      :     0.006836

 19 C s       :     3.084587  s :     3.084587
      pz      :     0.925728  p :     2.442843
      px      :     0.808830
      py      :     0.708285
      dz2     :     0.006101  d :     0.155998
      dxz     :     0.030051
      dyz     :     0.038653
      dx2y2   :     0.037028
      dxy     :     0.044165
      f0      :     0.002198  f :     0.013995
      f+1     :     0.000915
      f-1     :     0.001156
      f+2     :     0.000666
      f-2     :     0.002476
      f+3     :     0.003372
      f-3     :     0.003213

 20 C s       :     3.275992  s :     3.275992
      pz      :     0.989238  p :     2.859766
      px      :     0.914889
      py      :     0.955639
      dz2     :     0.005531  d :     0.087047
      dxz     :     0.012705
      dyz     :     0.017941
      dx2y2   :     0.018377
      dxy     :     0.032494
      f0      :     0.001486  f :     0.007749
      f+1     :     0.000748
      f-1     :     0.000719
      f+2     :     0.001219
      f-2     :     0.000178
      f+3     :     0.002085
      f-3     :     0.001314

 21 C s       :     3.451078  s :     3.451078
      pz      :     1.005149  p :     2.961822
      px      :     0.996147
      py      :     0.960526
      dz2     :     0.003154  d :     0.079347
      dxz     :     0.019001
      dyz     :     0.013014
      dx2y2   :     0.010013
      dxy     :     0.034165
      f0      :     0.001416  f :     0.007170
      f+1     :     0.000649
      f-1     :     0.000688
      f+2     :     0.000774
      f-2     :     0.000468
      f+3     :     0.001262
      f-3     :     0.001912

 22 C s       :     3.450655  s :     3.450655
      pz      :     1.004875  p :     2.961917
      px      :     1.002618
      py      :     0.954424
      dz2     :     0.003515  d :     0.079348
      dxz     :     0.014727
      dyz     :     0.016915
      dx2y2   :     0.009607
      dxy     :     0.034584
      f0      :     0.001388  f :     0.007170
      f+1     :     0.000664
      f-1     :     0.000720
      f+2     :     0.000788
      f-2     :     0.000445
      f+3     :     0.001750
      f-3     :     0.001414

 23 C s       :     3.276062  s :     3.276062
      pz      :     0.989056  p :     2.859829
      px      :     0.919634
      py      :     0.951140
      dz2     :     0.005736  d :     0.087041
      dxz     :     0.010519
      dyz     :     0.019892
      dx2y2   :     0.018387
      dxy     :     0.032508
      f0      :     0.001475  f :     0.007749
      f+1     :     0.000815
      f-1     :     0.000672
      f+2     :     0.000931
      f-2     :     0.000452
      f+3     :     0.002266
      f-3     :     0.001138

 24 C s       :     3.073758  s :     3.073758
      pz      :     0.906898  p :     2.400877
      px      :     0.713555
      py      :     0.780424
      dz2     :     0.005137  d :     0.159856
      dxz     :     0.037568
      dyz     :     0.027593
      dx2y2   :     0.046986
      dxy     :     0.042572
      f0      :     0.002056  f :     0.014054
      f+1     :     0.001045
      f-1     :     0.000881
      f+2     :     0.001054
      f-2     :     0.001704
      f+3     :     0.004977
      f-3     :     0.002336

 25 C s       :     3.281418  s :     3.281418
      pz      :     0.990950  p :     2.870267
      px      :     0.961873
      py      :     0.917443
      dz2     :     0.005112  d :     0.086461
      dxz     :     0.019276
      dyz     :     0.010005
      dx2y2   :     0.018911
      dxy     :     0.033157
      f0      :     0.001443  f :     0.007706
      f+1     :     0.000531
      f-1     :     0.000792
      f+2     :     0.001013
      f-2     :     0.000385
      f+3     :     0.001188
      f-3     :     0.002354

 26 C s       :     3.451076  s :     3.451076
      pz      :     1.005132  p :     2.961821
      px      :     0.996148
      py      :     0.960540
      dz2     :     0.003153  d :     0.079345
      dxz     :     0.019003
      dyz     :     0.013016
      dx2y2   :     0.010008
      dxy     :     0.034166
      f0      :     0.001416  f :     0.007170
      f+1     :     0.000649
      f-1     :     0.000688
      f+2     :     0.000775
      f-2     :     0.000468
      f+3     :     0.001262
      f-3     :     0.001912

 27 C s       :     3.073444  s :     3.073444
      pz      :     0.906772  p :     2.400361
      px      :     0.714159
      py      :     0.779430
      dz2     :     0.005227  d :     0.159841
      dxz     :     0.036494
      dyz     :     0.028576
      dx2y2   :     0.048420
      dxy     :     0.041125
      f0      :     0.002055  f :     0.014053
      f+1     :     0.001014
      f-1     :     0.000914
      f+2     :     0.000724
      f-2     :     0.002042
      f+3     :     0.003804
      f-3     :     0.003501

 28 H s       :     0.813242  s :     0.813242
      pz      :     0.004740  p :     0.022369
      px      :     0.011069
      py      :     0.006560

 29 H s       :     0.813239  s :     0.813239
      pz      :     0.004784  p :     0.022366
      px      :     0.009324
      py      :     0.008257

 30 H s       :     0.814125  s :     0.814125
      pz      :     0.005166  p :     0.022563
      px      :     0.007682
      py      :     0.009716

 31 H s       :     0.814084  s :     0.814084
      pz      :     0.005117  p :     0.022563
      px      :     0.009470
      py      :     0.007976

 32 H s       :     0.813241  s :     0.813241
      pz      :     0.004740  p :     0.022369
      px      :     0.011069
      py      :     0.006559

 33 H s       :     0.813241  s :     0.813241
      pz      :     0.004785  p :     0.022366
      px      :     0.009325
      py      :     0.008257

 34 H s       :     0.814124  s :     0.814124
      pz      :     0.005166  p :     0.022563
      px      :     0.007682
      py      :     0.009715

 35 H s       :     0.825403  s :     0.825403
      pz      :     0.004839  p :     0.022302
      px      :     0.006653
      py      :     0.010810

 36 H s       :     0.814066  s :     0.814066
      pz      :     0.005117  p :     0.022563
      px      :     0.009470
      py      :     0.007976

 37 H s       :     0.825406  s :     0.825406
      pz      :     0.004790  p :     0.022299
      px      :     0.008328
      py      :     0.009181



                     *******************************
                     * LOEWDIN POPULATION ANALYSIS *
                     *******************************

----------------------
LOEWDIN ATOMIC CHARGES
----------------------
   0 N :    0.263993
   1 H :    0.148124
   2 C :   -0.103023
   3 C :   -0.120336
   4 N :    0.086401
   5 C :   -0.120337
   6 H :    0.148122
   7 C :   -0.191659
   8 N :    0.086406
   9 C :   -0.120339
  10 C :   -0.092274
  11 C :   -0.191638
  12 N :    0.263995
  13 C :   -0.103011
  14 C :   -0.238045
  15 C :   -0.238054
  16 C :   -0.191635
  17 H :    0.190055
  18 H :    0.190054
  19 C :   -0.191658
  20 C :   -0.103007
  21 C :   -0.092267
  22 C :   -0.092279
  23 C :   -0.103026
  24 C :   -0.238057
  25 C :   -0.120339
  26 C :   -0.092263
  27 C :   -0.238043
  28 H :    0.154662
  29 H :    0.154663
  30 H :    0.172310
  31 H :    0.172310
  32 H :    0.154661
  33 H :    0.154664
  34 H :    0.172312
  35 H :    0.148123
  36 H :    0.172310
  37 H :    0.148124

-------------------------------
LOEWDIN REDUCED ORBITAL CHARGES
-------------------------------
  0 N s       :     2.887900  s :     2.887900
      pz      :     1.320541  p :     3.591995
      px      :     1.135423
      py      :     1.136031
      dz2     :     0.015280  d :     0.238154
      dxz     :     0.012931
      dyz     :     0.048435
      dx2y2   :     0.089865
      dxy     :     0.071643
      f0      :     0.001225  f :     0.017958
      f+1     :     0.001699
      f-1     :     0.001709
      f+2     :     0.000462
      f-2     :     0.003615
      f+3     :     0.002804
      f-3     :     0.006443

  1 H s       :     0.788989  s :     0.788989
      pz      :     0.013960  p :     0.062887
      px      :     0.022989
      py      :     0.025938

  2 C s       :     2.762650  s :     2.762650
      pz      :     0.897715  p :     2.922245
      px      :     0.985337
      py      :     1.039193
      dz2     :     0.027566  d :     0.371514
      dxz     :     0.031575
      dyz     :     0.060411
      dx2y2   :     0.102299
      dxy     :     0.149664
      f0      :     0.003097  f :     0.046614
      f+1     :     0.003685
      f-1     :     0.003922
      f+2     :     0.007286
      f-2     :     0.002737
      f+3     :     0.017276
      f-3     :     0.008611

  3 C s       :     2.768944  s :     2.768944
      pz      :     0.899044  p :     2.932297
      px      :     1.052244
      py      :     0.981009
      dz2     :     0.027184  d :     0.372421
      dxz     :     0.057995
      dyz     :     0.031546
      dx2y2   :     0.102812
      dxy     :     0.152883
      f0      :     0.003063  f :     0.046675
      f+1     :     0.003870
      f-1     :     0.003546
      f+2     :     0.007505
      f-2     :     0.002135
      f+3     :     0.008583
      f-3     :     0.017973

  4 N s       :     3.044704  s :     3.044704
      pz      :     1.156055  p :     3.648438
      px      :     1.102458
      py      :     1.389924
      dz2     :     0.016945  d :     0.201343
      dxz     :     0.041237
      dyz     :     0.012928
      dx2y2   :     0.057137
      dxy     :     0.073095
      f0      :     0.001133  f :     0.019115
      f+1     :     0.001780
      f-1     :     0.000829
      f+2     :     0.000336
      f-2     :     0.003547
      f+3     :     0.006933
      f-3     :     0.004556

  5 C s       :     2.768946  s :     2.768946
      pz      :     0.899108  p :     2.932302
      px      :     1.050349
      py      :     0.982846
      dz2     :     0.027944  d :     0.372415
      dxz     :     0.049759
      dyz     :     0.038954
      dx2y2   :     0.104140
      dxy     :     0.151619
      f0      :     0.003032  f :     0.046674
      f+1     :     0.003875
      f-1     :     0.003601
      f+2     :     0.008894
      f-2     :     0.000712
      f+3     :     0.010082
      f-3     :     0.016477

  6 H s       :     0.788993  s :     0.788993
      pz      :     0.014087  p :     0.062885
      px      :     0.018618
      py      :     0.030180

  7 C s       :     2.697841  s :     2.697841
      pz      :     0.852462  p :     2.784576
      px      :     0.959636
      py      :     0.972479
      dz2     :     0.043268  d :     0.628655
      dxz     :     0.096297
      dyz     :     0.113534
      dx2y2   :     0.175898
      dxy     :     0.199657
      f0      :     0.005423  f :     0.080587
      f+1     :     0.005029
      f-1     :     0.006197
      f+2     :     0.005068
      f-2     :     0.016106
      f+3     :     0.022080
      f-3     :     0.020684

  8 N s       :     3.044702  s :     3.044702
      pz      :     1.156045  p :     3.648433
      px      :     1.102460
      py      :     1.389928
      dz2     :     0.016945  d :     0.201344
      dxz     :     0.041238
      dyz     :     0.012928
      dx2y2   :     0.057138
      dxy     :     0.073096
      f0      :     0.001133  f :     0.019115
      f+1     :     0.001780
      f-1     :     0.000829
      f+2     :     0.000336
      f-2     :     0.003547
      f+3     :     0.006933
      f-3     :     0.004556

  9 C s       :     2.768947  s :     2.768947
      pz      :     0.899111  p :     2.932305
      px      :     1.050352
      py      :     0.982842
      dz2     :     0.027945  d :     0.372413
      dxz     :     0.049756
      dyz     :     0.038953
      dx2y2   :     0.104139
      dxy     :     0.151620
      f0      :     0.003032  f :     0.046674
      f+1     :     0.003875
      f-1     :     0.003601
      f+2     :     0.008894
      f-2     :     0.000712
      f+3     :     0.010082
      f-3     :     0.016477

 10 C s       :     2.756589  s :     2.756589
      pz      :     0.894709  p :     2.925487
      px      :     1.019026
      py      :     1.011752
      dz2     :     0.025562  d :     0.370342
      dxz     :     0.044508
      dyz     :     0.052415
      dx2y2   :     0.097015
      dxy     :     0.150843
      f0      :     0.003271  f :     0.039856
      f+1     :     0.003594
      f-1     :     0.003965
      f+2     :     0.006074
      f-2     :     0.002196
      f+3     :     0.011173
      f-3     :     0.009582

 11 C s       :     2.697846  s :     2.697846
      pz      :     0.851887  p :     2.784569
      px      :     0.980561
      py      :     0.952121
      dz2     :     0.043533  d :     0.628638
      dxz     :     0.090892
      dyz     :     0.118709
      dx2y2   :     0.184615
      dxy     :     0.190889
      f0      :     0.005396  f :     0.080585
      f+1     :     0.004691
      f-1     :     0.006596
      f+2     :     0.007933
      f-2     :     0.013237
      f+3     :     0.015425
      f-3     :     0.027308

 12 N s       :     2.887898  s :     2.887898
      pz      :     1.320537  p :     3.591992
      px      :     1.135421
      py      :     1.136034
      dz2     :     0.015282  d :     0.238157
      dxz     :     0.012931
      dyz     :     0.048436
      dx2y2   :     0.089866
      dxy     :     0.071643
      f0      :     0.001225  f :     0.017958
      f+1     :     0.001699
      f-1     :     0.001710
      f+2     :     0.000462
      f-2     :     0.003615
      f+3     :     0.002804
      f-3     :     0.006443

 13 C s       :     2.762654  s :     2.762654
      pz      :     0.897683  p :     2.922239
      px      :     0.986761
      py      :     1.037796
      dz2     :     0.026871  d :     0.371506
      dxz     :     0.040333
      dyz     :     0.052361
      dx2y2   :     0.101343
      dxy     :     0.150598
      f0      :     0.003126  f :     0.046612
      f+1     :     0.003612
      f-1     :     0.003939
      f+2     :     0.009034
      f-2     :     0.001012
      f+3     :     0.015829
      f-3     :     0.010060

 14 C s       :     2.709772  s :     2.709772
      pz      :     0.835874  p :     2.794666
      px      :     0.986938
      py      :     0.971854
      dz2     :     0.045844  d :     0.653793
      dxz     :     0.105800
      dyz     :     0.091608
      dx2y2   :     0.217167
      dxy     :     0.193374
      f0      :     0.004834  f :     0.079814
      f+1     :     0.006079
      f-1     :     0.004681
      f+2     :     0.005155
      f-2     :     0.013580
      f+3     :     0.023465
      f-3     :     0.022019

 15 C s       :     2.709773  s :     2.709773
      pz      :     0.836101  p :     2.794676
      px      :     0.979238
      py      :     0.979337
      dz2     :     0.045499  d :     0.653792
      dxz     :     0.111963
      dyz     :     0.085602
      dx2y2   :     0.210974
      dxy     :     0.199754
      f0      :     0.004831  f :     0.079814
      f+1     :     0.006286
      f-1     :     0.004484
      f+2     :     0.007074
      f-2     :     0.011600
      f+3     :     0.031189
      f-3     :     0.014349

 16 C s       :     2.697848  s :     2.697848
      pz      :     0.851882  p :     2.784563
      px      :     0.980555
      py      :     0.952126
      dz2     :     0.043527  d :     0.628639
      dxz     :     0.090889
      dyz     :     0.118714
      dx2y2   :     0.184616
      dxy     :     0.190893
      f0      :     0.005396  f :     0.080585
      f+1     :     0.004691
      f-1     :     0.006595
      f+2     :     0.007931
      f-2     :     0.013237
      f+3     :     0.015426
      f-3     :     0.027309

 17 H s       :     0.691023  s :     0.691023
      pz      :     0.028906  p :     0.118923
      px      :     0.071345
      py      :     0.018671

 18 H s       :     0.691023  s :     0.691023
      pz      :     0.028906  p :     0.118923
      px      :     0.071345
      py      :     0.018672

 19 C s       :     2.697840  s :     2.697840
      pz      :     0.852455  p :     2.784574
      px      :     0.959635
      py      :     0.972484
      dz2     :     0.043268  d :     0.628657
      dxz     :     0.096295
      dyz     :     0.113537
      dx2y2   :     0.175900
      dxy     :     0.199656
      f0      :     0.005423  f :     0.080587
      f+1     :     0.005029
      f-1     :     0.006198
      f+2     :     0.005068
      f-2     :     0.016105
      f+3     :     0.022080
      f-3     :     0.020683

 20 C s       :     2.762655  s :     2.762655
[...]
  0-1A  ->  1-1A    2.331554   18805.3   531.8   0.000003800   0.00000   0.00069   0.00010   0.00000
  0-1A  ->  2-1A    2.467961   19905.5   502.4   0.000934810   0.00013  -0.00097   0.01118  -0.00110
  0-1A  ->  3-1A    3.261110   26302.6   380.2   1.157209266   0.20803  -0.45436  -0.03806   0.01145
  0-1A  ->  4-1A    3.323291   26804.2   373.1   1.408641061   0.25805   0.04339  -0.50376   0.04896
  0-1A  ->  5-1A    3.595575   29000.3   344.8   0.000000005   0.00000  -0.00000  -0.00003   0.00000
  0-1A  ->  6-1A    3.818136   30795.4   324.7   0.000000067   0.00000  -0.00012  -0.00001   0.00000
  0-1A  ->  7-1A    3.846502   31024.1   322.3   0.481015722   0.10199   0.31815   0.02657  -0.00807
  0-1A  ->  8-1A    3.906178   31505.5   317.4   0.141528075   0.03047  -0.01486   0.17312  -0.01685
  0-1A  ->  9-1A    4.237999   34181.8   292.6   0.000000001   0.00000  -0.00001  -0.00001   0.00000
  0-1A  -> 10-1A    4.255194   34320.5   291.4   0.000001876   0.00000  -0.00021   0.00063  -0.00005
  0-1A  -> 11-1A    4.306721   34736.0   287.9   0.000000005   0.00000   0.00001   0.00002   0.00002
  0-1A  -> 12-1A    4.313111   34787.6   287.5   0.000000001   0.00000   0.00000   0.00002  -0.00000
  0-1A  -> 13-1A    4.330144   34925.0   286.3   0.001568211   0.00037  -0.00038  -0.00211  -0.01923
  0-1A  -> 14-1A    4.358902   35156.9   284.4   0.000000003   0.00000   0.00000  -0.00002   0.00002
  0-1A  -> 15-1A    4.416356   35620.3   280.7   0.000000001   0.00000   0.00001   0.00001   0.00001
  0-1A  -> 16-1A    4.455905   35939.3   278.2   0.094546620   0.02322  -0.01306   0.15112  -0.01469
  0-1A  -> 17-1A    4.553483   36726.3   272.3   0.000000215   0.00000  -0.00023  -0.00002   0.00002
  0-1A  -> 18-1A    4.572228   36877.5   271.2   0.107949476   0.02721   0.16432   0.01380  -0.00399
  0-1A  -> 19-1A    4.824027   38908.4   257.0   0.000000001   0.00000   0.00000  -0.00001  -0.00000
  0-1A  -> 20-1A    4.947226   39902.1   250.6   0.000000001   0.00000   0.00002  -0.00000  -0.00001
  0-1A  -> 21-1A    5.263207   42450.6   235.6   0.000000001   0.00000  -0.00000  -0.00001  -0.00002
  0-1A  -> 22-1A    5.396022   43521.9   229.8   0.000000001   0.00000  -0.00000  -0.00001  -0.00001
  0-1A  -> 23-1A    5.544980   44723.3   223.6   0.148338203   0.04534   0.21213   0.01775  -0.00530
  0-1A  -> 24-1A    5.696627   45946.4   217.6   0.000000001   0.00000  -0.00001   0.00001   0.00001
  0-1A  -> 25-1A    6.038717   48705.5   205.3   0.000000002   0.00000   0.00001   0.00000   0.00002
  0-1A  -> 26-1A    6.185870   49892.4   200.4   0.000000000   0.00000   0.00000  -0.00000  -0.00001
  0-1A  -> 27-1A    6.200919   50013.8   199.9   0.000288913   0.00010   0.00092  -0.00985   0.00096
  0-1A  -> 28-1A    6.226816   50222.7   199.1   0.000000021   0.00000   0.00001   0.00008  -0.00001
  0-1A  -> 29-1A    6.236202   50298.4   198.8   0.009901180   0.00340  -0.03457  -0.04670   0.00528
  0-1A  -> 30-1A    6.236265   50298.9   198.8   0.028942016   0.00995   0.09935  -0.00883  -0.00091

------------------------------------------------------------------------------------------
                     CD SPECTRUM VIA TRANSITION ELECTRIC DIPOLE MOMENTS    
------------------------------------------------------------------------------------------
     Transition      Energy     Energy  Wavelength    R        MX        MY        MZ   
                      (eV)      (cm-1)    (nm)   (1e40*cgs)   (au)      (au)      (au)  
------------------------------------------------------------------------------------------
  0-1A  ->  1-1A    2.331554   18805.3   531.8   -0.00000  -0.00000  -0.00000  -0.00002
  0-1A  ->  2-1A    2.467961   19905.5   502.4   -0.00014  -0.00000   0.00001   0.00013
  0-1A  ->  3-1A    3.261110   26302.6   380.2   -0.02726   0.00002  -0.00004  -0.00003
  0-1A  ->  4-1A    3.323291   26804.2   373.1    0.08665  -0.00004  -0.00005  -0.00005
  0-1A  ->  5-1A    3.595575   29000.3   344.8    0.00530   0.01492   0.08680   0.87851
  0-1A  ->  6-1A    3.818136   30795.4   324.7   -0.00003   0.00008  -0.00007   0.00005
  0-1A  ->  7-1A    3.846502   31024.1   322.3   -0.04786  -0.00005   0.00002  -0.00005
  0-1A  ->  8-1A    3.906178   31505.5   317.4    0.00189   0.00000   0.00000   0.00000
  0-1A  ->  9-1A    4.237999   34181.8   292.6    0.00310   0.00815  -0.09357   0.00895
  0-1A  -> 10-1A    4.255194   34320.5   291.4   -0.00033   0.00010  -0.00014  -0.00004
  0-1A  -> 11-1A    4.306721   34736.0   287.9   -0.00991  -0.31646  -0.02314   0.04220
  0-1A  -> 12-1A    4.313111   34787.6   287.5    0.00014   0.02439  -0.00146  -0.03762
  0-1A  -> 13-1A    4.330144   34925.0   286.3    0.01438  -0.00045  -0.00008  -0.00027
  0-1A  -> 14-1A    4.358902   35156.9   284.4   -0.02217  -0.02880  -0.05983  -0.59165
  0-1A  -> 15-1A    4.416356   35620.3   280.7    0.00001  -0.00018   0.00060   0.00015
  0-1A  -> 16-1A    4.455905   35939.3   278.2    0.01362   0.00006   0.00002  -0.00012
  0-1A  -> 17-1A    4.553483   36726.3   272.3    0.00001  -0.00004   0.00005  -0.00013
  0-1A  -> 18-1A    4.572228   36877.5   271.2   -0.00495  -0.00001  -0.00000  -0.00001
  0-1A  -> 19-1A    4.824027   38908.4   257.0   -0.00205   0.00627   0.04130   0.41944
  0-1A  -> 20-1A    4.947226   39902.1   250.6    0.00000   0.00012  -0.00001   0.00016
  0-1A  -> 21-1A    5.263207   42450.6   235.6   -0.00000   0.00010  -0.00014   0.00008
  0-1A  -> 22-1A    5.396022   43521.9   229.8   -0.00444   0.00204   0.01586   0.16263
  0-1A  -> 23-1A    5.544980   44723.3   223.6   -0.01800  -0.00004   0.00002   0.00001
  0-1A  -> 24-1A    5.696627   45946.4   217.6    0.01575   0.01451   0.08304   0.84079
  0-1A  -> 25-1A    6.038717   48705.5   205.3   -0.00001  -0.00006  -0.00011  -0.00012
  0-1A  -> 26-1A    6.185870   49892.4   200.4    0.00290  -0.00377  -0.01762  -0.17765
  0-1A  -> 27-1A    6.200919   50013.8   199.9   -0.00095  -0.00001   0.00005   0.00002
  0-1A  -> 28-1A    6.226816   50222.7   199.1   -0.00743   0.00376  -0.04369   0.00403
  0-1A  -> 29-1A    6.236202   50298.4   198.8    0.00458  -0.00003  -0.00003  -0.00003
  0-1A  -> 30-1A    6.236265   50298.9   198.8   -0.00437  -0.00002   0.00002  -0.00003

------------------------------------------------------------------------------------------
                     CD SPECTRUM VIA TRANSITION VELOCITY DIPOLE MOMENTS    
------------------------------------------------------------------------------------------
     Transition      Energy     Energy  Wavelength    R        MX        MY        MZ   
                      (eV)      (cm-1)    (nm)   (1e40*cgs)   (au)      (au)      (au)  
------------------------------------------------------------------------------------------
  0-1A  ->  1-1A    2.331554   18805.3   531.8   -0.00000  -0.00000  -0.00000  -0.00002
  0-1A  ->  2-1A    2.467961   19905.5   502.4   -0.00013  -0.00000   0.00001   0.00013
  0-1A  ->  3-1A    3.261110   26302.6   380.2   -0.02707   0.00002  -0.00004  -0.00003
  0-1A  ->  4-1A    3.323291   26804.2   373.1    0.08635  -0.00004  -0.00005  -0.00005
  0-1A  ->  5-1A    3.595575   29000.3   344.8    0.00532   0.01492   0.08680   0.87851
  0-1A  ->  6-1A    3.818136   30795.4   324.7   -0.00003   0.00008  -0.00007   0.00005
  0-1A  ->  7-1A    3.846502   31024.1   322.3   -0.04790  -0.00005   0.00002  -0.00005
  0-1A  ->  8-1A    3.906178   31505.5   317.4    0.00186   0.00000   0.00000   0.00000
  0-1A  ->  9-1A    4.237999   34181.8   292.6    0.00310   0.00815  -0.09357   0.00895
  0-1A  -> 10-1A    4.255194   34320.5   291.4   -0.00032   0.00010  -0.00014  -0.00004
  0-1A  -> 11-1A    4.306721   34736.0   287.9   -0.00948  -0.31646  -0.02314   0.04220
  0-1A  -> 12-1A    4.313111   34787.6   287.5    0.00031   0.02439  -0.00146  -0.03762
  0-1A  -> 13-1A    4.330144   34925.0   286.3    0.01642  -0.00045  -0.00008  -0.00027
  0-1A  -> 14-1A    4.358902   35156.9   284.4   -0.02556  -0.02880  -0.05983  -0.59165
  0-1A  -> 15-1A    4.416356   35620.3   280.7    0.00001  -0.00018   0.00060   0.00015
  0-1A  -> 16-1A    4.455905   35939.3   278.2    0.01366   0.00006   0.00002  -0.00012
  0-1A  -> 17-1A    4.553483   36726.3   272.3    0.00001  -0.00004   0.00005  -0.00013
  0-1A  -> 18-1A    4.572228   36877.5   271.2   -0.00491  -0.00001  -0.00000  -0.00001
  0-1A  -> 19-1A    4.824027   38908.4   257.0   -0.00225   0.00627   0.04130   0.41944
  0-1A  -> 20-1A    4.947226   39902.1   250.6    0.00000   0.00012  -0.00001   0.00016
  0-1A  -> 21-1A    5.263207   42450.6   235.6   -0.00000   0.00010  -0.00014   0.00008
  0-1A  -> 22-1A    5.396022   43521.9   229.8   -0.00460   0.00204   0.01586   0.16263
  0-1A  -> 23-1A    5.544980   44723.3   223.6   -0.01804  -0.00004   0.00002   0.00001
  0-1A  -> 24-1A    5.696627   45946.4   217.6    0.01610   0.01451   0.08304   0.84079
  0-1A  -> 25-1A    6.038717   48705.5   205.3   -0.00001  -0.00006  -0.00011  -0.00012
  0-1A  -> 26-1A    6.185870   49892.4   200.4    0.00306  -0.00377  -0.01762  -0.17765
  0-1A  -> 27-1A    6.200919   50013.8   199.9   -0.00096  -0.00001   0.00005   0.00002
  0-1A  -> 28-1A    6.226816   50222.7   199.1   -0.00748   0.00376  -0.04369   0.00403
  0-1A  -> 29-1A    6.236202   50298.4   198.8    0.00465  -0.00003  -0.00003  -0.00003
  0-1A  -> 30-1A    6.236265   50298.9   198.8   -0.00438  -0.00002   0.00002  -0.00003

Total run time:    11432.318 sec

           *** ORCA-CIS/TD-DFT FINISHED WITHOUT ERROR ***
-----------------------
CIS/TD-DFT TOTAL ENERGY
-----------------------

    E(SCF)  =   -988.770219675 Eh
    DE(CIS) =      0.085683047 Eh (Root  1)
    ----------------------------- ---------
    E(tot)  =   -988.684536628 Eh


Maximum memory used throughout the entire CIS-calculation: 2728.9 MB
=> NOW LEAVING ORCA_CIS

-------------------------   --------------------
FINAL SINGLE POINT ENERGY      -988.684536627847
-------------------------   --------------------



           ************************************************************
           *        Program running with 4 parallel MPI-processes     *
           *              working on a common directory               *
           ************************************************************

------------------------------------------------------------------------------
                              ORCA PROPERTY CALCULATIONS
------------------------------------------------------------------------------

GBWName                                 ... tddft.gbw
Number of atoms                         ...     38
Number of basis functions               ...    828
Max core memory                         ...   3000 MB

Electric properties:
Dipole moment                           ... YES
Quadrupole moment                       ...  NO
Static polarizability (Dipole/Dipole)   ...  NO
Static polarizability (Dipole/Quad.)    ...  NO
Static polarizability (Quad./Quad.)     ...  NO
Static polarizability (Velocity)        ...  NO
Static hyperpolarizability              ...  NO

Atomic electric properties:
Dipole moment                           ...  NO
Quadrupole moment                       ...  NO
Static polarizability                   ...  NO

Choice of electric origin               ... Center of mass
Position of electric origin             ...    -0.158819     5.090064     6.570961

General magnetic properties:
Magnetizability                         ...  NO

EPR properties:
g-Tensor (aka g-matrix)                 ...  NO
Zero-Field splitting spin-orbit         ...  NO
Zero-field splitting spin-spin          ...  NO
Hyperfine couplings                     ...  NO (   0 nuclei)
Quadrupole couplings                    ...  NO (   0 nuclei)
Contact density                         ...  NO (   0 nuclei)

NMR properties:
Chemical shifts                         ...  NO (   0 nuclei)
Spin-rotation constants                 ...  NO (   0 nuclei)
Spin-spin couplings                     ...  NO (   0 nuclei,    0 pairs)

Choice of magnetic origin               ... GIAO
Position of magnetic origin             ...     0.000000     0.000000     0.000000

Properties with geometric perturbations:
SCF Hessian                             ...  NO
IR spectrum                             ...  NO
VCD spectrum                            ...  NO
X-ray spectroscopy properties:
SCF XES/XAS/RIXS spectra                ...  NO

SCF SOC stabilization energy            ...  NO
Diagonal Born-Oppenheimer correction    ...  NO

-------------
DIPOLE MOMENT
-------------

Method             : SCF
Type of density    : Electron Density
Multiplicity       :   1
Irrep              :   0
Energy             :  -988.7702196747185326 Eh
Basis              : AO
                                X                 Y                 Z
Electronic contribution:     -0.000087640      -0.000000509       0.000435234
Nuclear contribution   :      0.000061902      -0.000054441      -0.000774279
                        -----------------------------------------
Total Dipole Moment    :     -0.000025738      -0.000054949      -0.000339045
                        -----------------------------------------
Magnitude (a.u.)       :      0.000344432
Magnitude (Debye)      :      0.000875478



--------------------
Rotational spectrum 
--------------------
 
Rotational constants in cm-1:             0.008943             0.008871             0.004453 
Rotational constants in MHz :           268.090698           265.941898           133.506036 

Dipole components along the rotational axes: 
x,y,z [a.u.] :    -0.000022    -0.000020    -0.000343 
x,y,z [Debye]:    -0.000055    -0.000050    -0.000872 

 

Dipole moment calculation done in   0.6 sec 

Maximum memory used throughout the entire PROP-calculation: 82.2 MB

--------------------------------
SUGGESTED CITATIONS FOR THIS RUN
--------------------------------

Below you find a list of papers that are relevant to this ORCA run
We neither can nor want to force you to cite these papers, but we appreciate if you do
You receive ORCA, which is the product of decades of hard work by many enthusiastic individuals, for free
The only thing we kindly ask in return is that you cite our papers,
We deeply appreciate it, if you show your appreciation for ORCA by not just citing the generic ORCA reference.

Please note that relegating all ORCA citations to the supporting information does *not* help us.
SI sections are not indexed - citations you put there will not count into any citation statistics
But we need these citations in order to attract the funding resources that allow us to do what we are doing

Therefore, if you are a happy ORCA user, please consider citing a few of the papers listed below in the main body of your paper

In addition to the list printed below, the program has created the file tddft.bibtex that contains the list in bibtex format
You can import this file easily into all common literature databanks and citation aid programs

It goes without saying that in many instances, there are alternative algorithms to achieve similar
results as the ones you have gotten from ORCA. It is, of course, also the case that in some instances
ORCA just re-implements algorithms worked out by others. We are fully aware of that and we are also
fully appreciative of our colleagues work. Hence this citation list should not be read as indicating
that the listed papers, which are focused on our own work, are the only ones worth citing. It simply
meant to make it easier for users to cite ORCA specific papers. It is not a substitute for doing your
own literature research and citing the relevant literature in a scientifically appropriate manner.

List of essential papers. We consider these as the minimum necessary citations

  1. Neese, F.
     Software update: the ORCA program system, version 6.0
     WIRES Comput. Molec. Sci. 2025 15(1), e70019
     doi.org/10.1002/wcms.70019

List of papers to cite with high priority. The work reported in these papers was absolutely
necessary for this run to complete.
Our perspective: the developers of density functionals and basis sets usually get cited in chemistry papers
Good! But without the algorithms to do something with them, the functionals or basis sets would not do anything.
Hence, in our opinion, the algorithm design and method developments papers are equally worthy of getting cited

  1. Neese, F.; Olbrich, G.
     Efficient use of the resolution of the identity approximation in time-dependent density functional calculations with hybrid density functionals
     Chem. Phys. Lett. 2002 362 , 170-178
     doi.org/10.1016/s0009-2614(02)01053-9
  2. Neese, F.
     An improvement of the resolution of the identity approximation for the formation of the Coulomb matrix
     J. Comp. Chem. 2003 24(14), 1740-1747
     doi.org/10.1002/jcc.10318
  3. Neese, F.; Wennmohs, F.; Hansen, A.; Becker, U.
     Efficient, approximate and parallel Hartree-Fock and hybrid DFT calculations. A 'chain-of-spheres' algorithm for the Hartree-Fock exchange
     Chem. Phys. 2009 356(1-3), 98-109
     doi.org/10.1016/j.chemphys.2008.10.036
  4. Garcia-Rates, M.; Neese, F.
     Effect of the Solute Cavity on the Solvation Energy and its Derivatives within the Framework of the Gaussian Charge Scheme
     J. Comput. Chem. 2020 41 , 922-939
     doi.org/10.1002/jcc.26139
  5. Helmich-Paris, B.; de Souza, B.; Neese, F.; Izsák, R.
     An improved chain of spheres for exchange algorithm
     J. Chem. Phys. 2021 155(10), 104109
     doi.org/10.1063/5.0058766
  6. Neese, F.
     The SHARK Integral Generation and Digestion System
     J. Comp. Chem. 2022 44(3), 381
     doi.org/10.1002/jcc.26942

List of suggested additional citations. These are papers that are important in the 'surrounding' of 
of this run, or papers that preceded the highly important papers. If you like your results we are grateful for a citation.

  1. Izsak, R.; Neese, F.
     An overlap fitted chain of spheres exchange method
     J. Chem. Phys. 2011 135 , 144105
     doi.org/10.1063/1.3646921
  2. Izsak, R.; Hansen, A.; Neese, F.
     The resolution of identity and chain of spheres approximations for the LPNO-CCSD singles Fock term
     Molec. Phys. 2012 110 , 2413-2417
     doi.org/10.1080/00268976.2012.687466
  3. Neese, F.
     The ORCA program system
     WIRES Comput. Molec. Sci. 2012 2(1), 73-78
     doi.org/10.1002/wcms.81
  4. Izsak, R.; Neese, F.; Klopper, W.
     Robust fitting techniques in the chain of spheres approximation to the Fock exchange: The role of the complementary space
     J. Chem. Phys. 2013 139 , 
     doi.org/10.1063/1.4819264
  5. Neese, F.
     Software update: the ORCA program system, version 4.0
     WIRES Comput. Molec. Sci. 2018 8(1), 1-6
     doi.org/10.1002/wcms.1327
  6. Neese, F.; Wennmohs, F.; Becker, U.; Riplinger, C.
     The ORCA quantum chemistry program package
     J. Chem. Phys. 2020 152(22), 224108
     doi.org/10.1063/5.0004608
  7. Neese, F.
     Software update: The ORCA program system—Version 5.0
     WIRES Comput. Molec. Sci. 2022 12(1), e1606
     doi.org/10.1002/wcms.1606

List of optional additional citations

  1. Neese, F.
     Approximate second-order SCF convergence for spin unrestricted wavefunctions
     Chem. Phys. Lett. 2000 325(1-3), 93-98
     doi.org/10.1016/s0009-2614(00)00662-x

Timings for individual modules:

Sum of individual times          ...    12025.384 sec (= 200.423 min)
Startup calculation              ...       21.335 sec (=   0.356 min)   0.2 %
SCF iterations                   ...      566.375 sec (=   9.440 min)   4.7 %
Property integrals               ...        1.393 sec (=   0.023 min)   0.0 %
Property calculations            ...        3.289 sec (=   0.055 min)   0.0 %
CIS module                       ...    11432.992 sec (= 190.550 min)  95.1 %
                             ****ORCA TERMINATED NORMALLY****
TOTAL RUN TIME: 0 days 3 hours 20 minutes 27 seconds 573 msec
