
                                 *****************
                                 * O   R   C   A *
                                 *****************

                                            #,                                       
                                            ###                                      
                                            ####                                     
                                            #####                                    
                                            ######                                   
                                           ########,                                 
                                     ,,################,,,,,                         
                               ,,#################################,,                 
                          ,,##########################################,,             
                       ,#########################################, ''#####,          
                    ,#############################################,,   '####,        
                  ,##################################################,,,,####,       
                ,###########''''           ''''###############################       
              ,#####''   ,,,,##########,,,,          '''####'''          '####       
            ,##' ,,,,###########################,,,                        '##       
           ' ,,###''''                  '''############,,,                           
         ,,##''                                '''############,,,,        ,,,,,,###''
      ,#''                                            '''#######################'''  
     '                                                          ''''####''''         
             ,#######,   #######,   ,#######,      ##                                
            ,#'     '#,  ##    ##  ,#'     '#,    #''#        ,####,    ,#,          
            ##       ##  ##   ,#'  ##            #'  '#       #'       ,# #          
            ##       ##  #######   ##           ,######,      #####,      #          
            '#,     ,#'  ##    ##  '#,     ,#' ,#      #,     #,   #      #          
             '#######'   ##     ##  '#######'  #'      '#     '####' #    #          



                #########################################################
                #                        -***-                          #
                #          Department of theory and spectroscopy        #
                #                                                       #
                #                      Frank Neese                      #
                #                                                       #
                #     Directorship, Architecture, Infrastructure        #
                #                    SHARK, DRIVERS                     #
                #        Core code/Algorithms in most modules           #
                #                                                       #
                #        Max Planck Institute fuer Kohlenforschung      #
                #                Kaiser Wilhelm Platz 1                 #
                #                 D-45470 Muelheim/Ruhr                 #
                #                      Germany                          #
                #                                                       #
                #                  All rights reserved                  #
                #                        -***-                          #
                #########################################################


                         Program Version 6.1.1  -  RELEASE   -
                                (GIT: $487d211c$)
                          ($2025-11-21 10:33:24 +0100$)


 With contributions from (in alphabetic order):
[Max-Planck-Institut fuer Kohlenforschung]                               
  Daniel Aravena         : Magnetic Suceptibility                        
  Michael Atanasov       : Ab Initio Ligand Field Theory (pilot matlab implementation)
  Alexander A. Auer      : GIAO ZORA, VPT2 properties, NMR spectrum      
  Ute Becker             : All parallelization in ORCA, NUMFREQ, NUMCALC 
  Giovanni Bistoni       : ED, misc. LED, open-shell LED, HFLD           
  Dmytro Bykov           : pre 5.0 version of the SCF Hessian            
  Marcos Casanova-Páez   : Triplet and SCS-CIS(D). UHF-(DLPNO)-IP/EA/STEOM-CCSD. UHF-CVS-IP/STEOM-CCSD   
  Vijay G. Chilkuri      : MRCI spin determinant printing, contributions to CSF-ICE 
  Pauline Colinet        : FMM embedding                                 
  Dipayan Datta          : RHF DLPNO-CCSD density                        
  Achintya Kumar Dutta   : EOM-CC, STEOM-CC                              
  Nicolas Foglia         : Exact transition moments, OPA infrastructure, MCD improvements    
  Dmitry Ganyushin       : Spin-Orbit,Spin-Spin,Magnetic field MRCI      
  Miquel Garcia-Rates    : C-PCM and meta-GGA Hessian, CCSD/C-PCM, Gaussian charge scheme 
  Tiago L. C. Gouveia    : GS-ROHF, GS-ROCIS                             
  Yang Guo               : DLPNO-NEVPT2, F12-NEVPT2, CIM, IAO-localization        
  Andreas Hansen         : Spin unrestricted coupled pair/coupled cluster methods 
  Ingolf Harden          : AUTO-CI MPn and infrastructure                
  Benjamin Helmich-Paris : MC-RPA, TRAH-(SCF,CASSCF), AVAS, COSX integrals, SCF dyn. polar., MC-PDFT, srDFT 
  Lee Huntington         : MR-EOM, pCC                                   
  Robert Izsak           : Overlap fitted RIJCOSX, COSX-SCS-MP3, EOM     
  Riya Kayal             : Wick's Theorem for AUTO-CI, AUTO-CI UHF-CCSDT 
  Emily Kempfer          : AUTO-CI RHF CISDT and CCSDT, approximate NEVPT4
  Christian Kollmar      : KDIIS, OOCD, Brueckner-CCSD(T), CCSD density, CASPT2, CASPT2-K, improved NEVPT2 
  Axel Koslowski         : Symmetry handling                             
  Simone Kossmann        : meta-GGA functionals, TD-DFT gradient, OOMP2, (MP2 Hessian; deprecated post 5.0) 
  Lucas Lang             : DCDCAS, Hyperfine gauge corrections, ICE-SOC+SSC
  Marvin Lechner         : AUTO-CI (C++ implementation), FIC-MRCC        
  Spencer Leger          : CASSCF response                               
  Dagmar Lenk            : GEPOL surface, SMD, ORCA-2-JSON               
  Dimitrios Liakos       : Extrapolation schemes; Compound Job, Property file
  Dimitrios Manganas     : Further ROCIS development; embedding schemes. LFT, Crystal Embedding 
  Dimitrios Pantazis     : SARC Basis sets                               
  Anastasios Papadopoulos: AUTO-CI, single reference methods and gradients 
  Taras Petrenko         : pre 6.0 DFT Hessian and TD-DFT gradient,  ECA, NRVS 
  Petra Pikulova         : Analytic Raman intensities                    
  Peter Pinski           : DLPNO-MP2, DLPNO-MP2 Gradient                 
  Shashank Vittal Rao    : ES-AILFT, MagRelax                            
  Christoph Reimann      : Effective Core Potentials                     
  Marius Retegan         : Local ZFS, SOC                                
  Christoph Riplinger    : Optimizer, TS searches, QM/MM, DLPNO-CCSD(T), (RO)-DLPNO pert. Triples 
  Michael Roemelt        : Original ROCIS implementation, recursive CI coupling coefficients
  Masaaki Saitow         : Open-shell DLPNO-CCSD energy and density      
  Barbara Sandhoefer     : DKH picture change effects                    
  Yorick L. A. Schmerwitz: GMF and freeze-and-release deltaSCF, NEB S-IDPP initial path                    
  Kantharuban Sivalingam : CASSCF convergence/infrastructure, NEVPT2, NEVPT3, NEVPT4(SD), FIC-MRCI and CEPA variants
  Bernardo de Souza      : ESD, SOC TD-DFT                               
  Georgi L. Stoychev     : AutoAux, RI-MP2 NMR, DLPNO-MP2 response, X2C  
  Van Anh Tran           : RI-MP2 g-tensors                              
  Willem Van den Heuvel  : Paramagnetic NMR                              
  Zikuan Wang            : NOTCH, Electric field optimization            
  Frank Wennmohs         : Technical directorship and infrastructure     
  Hang Xu                : AUTO-CI-Response properties                   
                                                                         
[FACCTs GmbH]                                                            
  Markus Bursch, Nicolas Foglia, Miquel Garcia-Rates, Ingolf Harden, Hagen Neugebauer, Anastasios Papadopoulos, 
  Christoph Riplinger, Bernardo de Souza, Georgi L. Stoychev                                                    
                                                                 
  APM, various basis sets, CI-OPT, improved COSX, DLPNO-Multilevel,           
  DOCKER, DRACO, updates on ESD, Fragmentator, GOAT, IRC, LR-CPCM, L-BFGS, MBIS, meta-GGA TD-DFT gradient, ML-optimized integration grids, 
  MM, NACMEs, nearIR, NEB, NEB-TS, NL-DFT gradient (VV10), 2- and 3-layer-ONIOM, interface openCOSMO-RS, QMMM,   
  Crystal-QMMM, RESP, rigid body optimization, SF, symmetry and pop. for TD-DFT, various functionals, SOLVATOR                                   
                                                                         
[Other institutions]                                                     
  V. Asgeirsson          : NEB                                           
  Christoph Bannwarth    : sTDA-DFT, sTD-DFT, PBEh-3c, B97-3c, D3        
  Giovanni Bistoni       : ETS/NOCV, ADLD/ADEX, COVALED                  
  Martin Brehm           : Molecular dynamics                            
  Ronald Cardenas        : ETS/NOCV                                      
  Martina Colucci        : COVALED                                       
  Sebastian Ehlert       : rSCAN, r2SCAN, r2SCAN-3c, D4, dhf basis sets  
  Marvin Friede          : D4 for Fr, Ra, Ac-Lr                          
  Lars Goerigk           : TD-DFT with DH, B97 family of functionals     
  Stefan Grimme          : VdW corrections, initial TS optimization, DFT functionals, gCP, sTDA/sTD-DF 
  Waldemar Hujo          : DFT-NL                                        
  H. Jonsson             : NEB                                           
  Holger Kruse           : gCP                                           
  Marcel Mueller         : wB97X-3c, vDZP basis set                      
  Hagen Neugebauer       : wr2SCAN, Native XTB                           
  Gianluca Regni         : ADLD/ADEX                                     
  Tobias Risthaus        : pre 6.0 range-separated hybrid DFT and stability analysis
  Lukas Wittmann         : regularized MP2, r2SCAN double-hybrids, wr2SCAN        
                                                                         
We gratefully acknowledge several colleagues who have allowed us to      
interface, adapt or use parts of their codes:                            
  Ed Valeev, F. Pavosevic, A. Kumar             : LibInt (2-el integral package), F12 methods 
  Garnet Chan, S. Sharma, J. Yang, R. Olivares  : DMRG                   
  Ulf Ekstrom                                   : XCFun DFT Library      
  Mihaly Kallay                                 : mrcc  (arbitrary order and MRCC methods)
  Frank Weinhold                                : gennbo (NPA and NBO analysis)           
  Simon Mueller                                 : openCOSMO-RS                            
  Christopher J. Cramer and Donald G. Truhlar   : smd solvation model                     
  S Lehtola, MJT Oliveira, MAL Marques          : LibXC Library                           
  Liviu Ungur et al                             : ANISO software                          


 Your calculation uses the libint2 library for the computation of 2-el integrals
 For citations please refer to: http://libint.valeyev.net

 Your ORCA version has been built with support for libXC version: 7.0.0
 For citations please refer to: https://libxc.gitlab.io

 This ORCA versions uses:
   CBLAS   interface :  Fast vector & matrix operations
   LAPACKE interface :  Fast linear algebra routines
   SCALAPACK package :  Parallel linear algebra routines
   Shared memory     :  Shared parallel matrices
   BLAS/LAPACK       :  OpenBLAS 0.3.29  USE64BITINT DYNAMIC_ARCH NO_AFFINITY Haswell SINGLE_THREADED
        Core in use  :  Haswell
   Copyright (c) 2011-2014, The OpenBLAS Project


  ***********************************
  * Starting time: Sat Jul  4 18:05:06 2026
  * Host name:     steezy
  * Process ID:    1141165
  * Working dir.:  /home/jannes/chlorophyll-ladder/006-core-ladder/porphin/03_tddft_ch2cl2/wb97xd
  ***********************************

NOTE: MaxCore=3000 MB was set to SCF,MP2,MDCI,CIPSI,MRCI,RASCI and CIS
      => If you want to overwrite this, your respective input block should be placed after the MaxCore statement


***************************************
The coordinates will be read from file: /home/jannes/chlorophyll-ladder/006-core-ladder/porphin/01_opt/porphin_opt_b3lypd4_tzvp.xyz
***************************************


Your calculation utilizes the atom-pairwise dispersion correction
with the zero-damping scheme (D30)


XCFun DFT library Copyright 2009-2010 Ulf Ekstrom and contributors.
See http://admol.org/xcfun for more information.
This is free software; see the source code for copying conditions.
There is ABSOLUTELY NO WARRANTY; not even for MERCHANTABILITY or FITNESS FOR A PARTICULAR PURPOSE.
For details see the documentation.
Scientific users of this library should cite U. Ekstrom, L. Visscher, R. Bast, A. J. Thorvaldsen and K. Ruud;
J.Chem.Theor.Comp. 2010, DOI: 10.1021/ct100117s
XCFun Version 0.99 

================================================================================

----- Orbital basis set information -----
Your calculation utilizes the basis: def2-TZVP
   F. Weigend and R. Ahlrichs, Phys. Chem. Chem. Phys. 7, 3297 (2005).

----- AuxJ basis set information -----
Your calculation utilizes the auxiliary basis: def2/J
   H-Rn: F. Weigend, Phys. Chem. Chem. Phys. 8, 1057 (2006).
   Fr-Lr: K. Eichkorn, F. Weigend, O. Treutler, R. Ahlrichs; Theor. Chem. Acc. 97, 119 (1997).

================================================================================
                                        WARNINGS
                       Please study these warnings very carefully!
================================================================================

WARNING: Old DensityContainer found on disk!
         Will remove this file - 
         If you want to keep old densities, please start your calculation with a different basename. 


WARNING: CIS/ROCIS methods need fully converged wavefunctions
  ===> : Setting SCFConvForced true
         You can overwrite this default with %scf ConvForced false 


================================================================================
                                       INPUT FILE
================================================================================
NAME = tddft.inp
|  1> %pal nprocs 4 end
|  2> %maxcore 3000
|  3> ! wB97X-D3 def2-TZVP def2/J RIJCOSX DefGrid3 TightSCF CPCM(CH2Cl2)
|  4> %tddft
|  5>   nroots 30
|  6>   tda false
|  7>   triplets false
|  8> end
|  9> * xyzfile 0 1 /home/jannes/chlorophyll-ladder/006-core-ladder/porphin/01_opt/porphin_opt_b3lypd4_tzvp.xyz
| 10> 
| 11>                          ****END OF INPUT****
================================================================================

                       ****************************
                       * Single Point Calculation *
                       ****************************

---------------------------------
CARTESIAN COORDINATES (ANGSTROEM)
---------------------------------
  N     -2.180891    2.518466    3.532389
  H      1.690443   -2.236382    3.933896
  C     -4.367841    3.017687    3.515126
  C     -0.395315   -1.565610    3.903357
  N      0.088551    0.689208    3.671590
  C      0.950736   -1.453154    3.869075
  H     -0.990663   -2.460360    4.002368
  C      2.882772    1.818374    3.512765
  N     -0.256644    4.697916    3.282877
  C     -1.118820    6.840288    3.085562
  C      2.527769    0.484722    3.650265
  C      2.690769    4.048684    3.296192
  N      2.012819    2.868614    3.422204
  C      4.083084    3.724839    3.307617
  C     -0.919803   -0.214146    3.778525
  C      1.236865   -0.033970    3.723482
  C     -2.858871    1.338374    3.658064
  H     -1.173514    2.603115    3.511443
  H      1.005441    2.783922    3.442823
  C     -3.050836    3.568698    3.441639
  C     -4.251194    1.662224    3.646465
  C     -2.280939    0.082808    3.772232
  C     -2.695851    4.902359    3.304255
  C      4.199763    2.369381    3.439069
  C     -1.404950    5.421089    3.231097
  C      0.227221    6.952725    3.051110
  C      2.112836    5.304259    3.182028
  C      0.751725    5.601268    3.175906
  H     -5.273861    3.600151    3.470570
  H     -5.044736    0.937212    3.728720
  H     -2.966724   -0.749445    3.865261
  H      3.346095   -0.221478    3.707096
  H      5.105812    1.786953    3.483475
  H      4.876640    4.449816    3.225158
  H      2.798652    6.136469    3.088803
  H      0.822550    7.847490    2.952095
  H     -3.514168    5.608569    3.247399
  H     -1.858503    7.623554    3.020905

----------------------------
CARTESIAN COORDINATES (A.U.)
----------------------------
  NO LB      ZA    FRAG     MASS         X           Y           Z
   0 N     7.0000    0    14.007   -4.121286    4.759210    6.675248
   1 H     1.0000    0     1.008    3.194474   -4.226150    7.433986
   2 C     6.0000    0    12.011   -8.254023    5.702602    6.642626
   3 C     6.0000    0    12.011   -0.747036   -2.958575    7.376276
   4 N     7.0000    0    14.007    0.167337    1.302415    6.938300
   5 C     6.0000    0    12.011    1.796630   -2.746063    7.311492
   6 H     1.0000    0     1.008   -1.872083   -4.649406    7.563380
   7 C     6.0000    0    12.011    5.447650    3.436230    6.638163
   8 N     7.0000    0    14.007   -0.484987    8.877775    6.203739
   9 C     6.0000    0    12.011   -2.114264   12.926270    5.830868
  10 C     6.0000    0    12.011    4.776792    0.915991    6.898001
  11 C     6.0000    0    12.011    5.084817    7.650904    6.228900
  12 N     7.0000    0    14.007    3.803677    5.420894    6.467028
  13 C     6.0000    0    12.011    7.715910    7.038925    6.250490
  14 C     6.0000    0    12.011   -1.738176   -0.404677    7.140378
  15 C     6.0000    0    12.011    2.337336   -0.064195    7.036362
  16 C     6.0000    0    12.011   -5.402483    2.529161    6.912740
  17 H     1.0000    0     1.008   -2.217620    4.919174    6.635666
  18 H     1.0000    0     1.008    1.900007    5.260849    6.505992
  19 C     6.0000    0    12.011   -5.765244    6.743862    6.503755
  20 C     6.0000    0    12.011   -8.033592    3.141148    6.890820
  21 C     6.0000    0    12.011   -4.310349    0.156485    7.128485
  22 C     6.0000    0    12.011   -5.094419    9.264115    6.244138
  23 C     6.0000    0    12.011    7.936402    4.477482    6.498898
  24 C     6.0000    0    12.011   -2.654970   10.244374    6.105888
  25 C     6.0000    0    12.011    0.429385   13.138747    5.765762
  26 C     6.0000    0    12.011    3.992682   10.023597    6.013161
  27 C     6.0000    0    12.011    1.420554   10.584862    6.001593
  28 H     1.0000    0     1.008   -9.966153    6.803300    6.558426
  29 H     1.0000    0     1.008   -9.533170    1.771074    7.046259
  30 H     1.0000    0     1.008   -5.606296   -1.416247    7.304285
  31 H     1.0000    0     1.008    6.323203   -0.418534    7.005396
  32 H     1.0000    0     1.008    9.648586    3.376852    6.582814
  33 H     1.0000    0     1.008    9.215514    8.408934    6.094665
  34 H     1.0000    0     1.008    5.288685   11.596245    5.836991
  35 H     1.0000    0     1.008    1.554393   14.829606    5.578651
  36 H     1.0000    0     1.008   -6.640815   10.598659    6.136694
  37 H     1.0000    0     1.008   -3.512061   14.406429    5.708684

--------------------------------
INTERNAL COORDINATES (ANGSTROEM)
--------------------------------
 N      0   0   0     0.000000000000     0.00000000     0.00000000
 H      1   0   0     6.144673229395     0.00000000     0.00000000
 C      1   2   0     2.243272391530   141.89876199     0.00000000
 C      2   1   3     2.191175978699    33.12144035   359.78196922
 N      4   2   1     2.317768042295    95.76702730     0.05041047
 C      2   1   3     1.079266249219     4.21370891     0.07915914
 H      4   2   1     1.079268154455   105.66535074   180.05560002
 C      5   4   2     3.017932326686   124.23173975   359.97265948
 N      1   2   6     2.918045108678    99.67616098   180.35207023
 C      9   1   2     2.317765511693   116.89442777   179.97808325
 C      8   5   4     1.386925732322    52.98756772     0.03785122
 C      8   5   4     2.249010893586   107.28141435   180.03816109
 N      8   5   4     1.366756111009    72.64238625   179.95789291
 C     12   8   5     1.429526220242    72.02656814   179.86646412
 C      5   4   2     1.358035743233    35.90327310   180.00368341
 C      5   4   2     1.358052178109    69.79697305     0.00000000
 C      1   2   6     1.366772292242    68.80094450     0.21857691
 H      1   2   6     1.011143908013    55.83702380   179.99401983
 H     13   8   5     1.011142399064   124.64063398   359.69569907
 C      1   2   6     1.366758138321   179.51311626   348.83759675
 C      3   1   2     1.366797559489    72.26372871     0.13506297
 C     17   1   2     1.386897788060   125.62778630     0.05508444
 C     20   1  18     1.386917453648   125.63133011     0.18593759
 C     14  12   8     1.366806197569   107.97320808     0.00000000
 C      9   1   2     1.358037856131    80.99028717   179.97367567
 C     10   9   1     1.351168367092    73.05307946   179.99423387
 C     12   8   5     1.386906342426   160.26769765   359.97153859
 C      9   1   2     1.358047941200   173.30861488   359.93543063
 H      3   1   2     1.078017863511   160.03617534   180.21836084
 H     21   3   1     1.078015481635   127.69627650   180.02779321
 H     22  17   1     1.082405877126   116.04909900   179.92532307
 H     11   8   5     1.082407332853   116.04421957   180.06654092
 H     24  14  12     1.078015962244   127.69819998   180.03058896
 H     14  12   8     1.078017967300   124.33296377   180.03202002
 H     27  12   8     1.082407600124   116.04702151   179.99456629
 H     26  10   9     1.079269782346   128.37740192   179.99605738
 H     23  20   1     1.082408536204   116.04576671   180.03676831
 H     10   9   1     1.079266886998   158.56973537     0.00000000

---------------------------
INTERNAL COORDINATES (A.U.)
---------------------------
 N      0   0   0     0.000000000000     0.00000000     0.00000000
 H      1   0   0    11.611749585994     0.00000000     0.00000000
 C      1   2   0     4.239170463779   141.89876199     0.00000000
 C      2   1   3     4.140722510968    33.12144035   359.78196922
 N      4   2   1     4.379946841893    95.76702730     0.05041047
 C      2   1   3     2.039517636609     4.21370891     0.07915914
 H      4   2   1     2.039521236983   105.66535074   180.05560002
 C      5   4   2     5.703065588145   124.23173975   359.97265948
 N      1   2   6     5.514306101830    99.67616098   180.35207023
 C      9   1   2     4.379942059747   116.89442777   179.97808325
 C      8   5   4     2.620909802176    52.98756772     0.03785122
 C      8   5   4     4.250014661082   107.28141435   180.03816109
 N      8   5   4     2.582794741670    72.64238625   179.95789291
 C     12   8   5     2.701413057517    72.02656814   179.86646412
 C      5   4   2     2.566315634787    35.90327310   180.00368341
 C      5   4   2     2.566346692200    69.79697305     0.00000000
 C      1   2   6     2.582825319768    68.80094450     0.21857691
 H      1   2   6     1.910785068128    55.83702380   179.99401983
 H     13   8   5     1.910782216628   124.64063398   359.69569907
 C      1   2   6     2.582798572734   179.51311626   348.83759675
 C      3   1   2     2.582873067947    72.26372871     0.13506297
 C     17   1   2     2.620856995174   125.62778630     0.05508444
 C     20   1  18     2.620894157749   125.63133011     0.18593759
 C     14  12   8     2.582889391552   107.97320808     0.00000000
 C      9   1   2     2.566319627585    80.99028717   179.97367567
 C     10   9   1     2.553338174621    73.05307946   179.99423387
 C     12   8   5     2.620873160584   160.26769765   359.97153859
 C      9   1   2     2.566338685603   173.30861488   359.93543063
 H      3   1   2     2.037158529510   160.03617534   180.21836084
 H     21   3   1     2.037154028418   127.69627650   180.02779321
 H     22  17   1     2.045450673515   116.04909900   179.92532307
 H     11   8   5     2.045453424440   116.04421957   180.06654092
 H     24  14  12     2.037154936637   127.69819998   180.03058896
 H     14  12   8     2.037158725644   124.33296377   180.03202002
 H     27  12   8     2.045453929509   116.04702151   179.99456629
 H     26  10   9     2.039524313251   128.37740192   179.99605738
 H     23  20   1     2.045455698445   116.04576671   180.03676831
 H     10   9   1     2.039518841837   158.56973537     0.00000000

---------------------
BASIS SET INFORMATION
---------------------
There are 3 groups of distinct atoms

 Group   1 Type N   : 11s6p2d1f contracted to 5s3p2d1f pattern {62111/411/11/1}
 Group   2 Type H   : 5s1p contracted to 3s1p pattern {311/1}
 Group   3 Type C   : 11s6p2d1f contracted to 5s3p2d1f pattern {62111/411/11/1}

Atom   0N    basis set group =>   1
Atom   1H    basis set group =>   2
Atom   2C    basis set group =>   3
Atom   3C    basis set group =>   3
Atom   4N    basis set group =>   1
Atom   5C    basis set group =>   3
Atom   6H    basis set group =>   2
Atom   7C    basis set group =>   3
Atom   8N    basis set group =>   1
Atom   9C    basis set group =>   3
Atom  10C    basis set group =>   3
Atom  11C    basis set group =>   3
Atom  12N    basis set group =>   1
Atom  13C    basis set group =>   3
Atom  14C    basis set group =>   3
Atom  15C    basis set group =>   3
Atom  16C    basis set group =>   3
Atom  17H    basis set group =>   2
Atom  18H    basis set group =>   2
Atom  19C    basis set group =>   3
Atom  20C    basis set group =>   3
Atom  21C    basis set group =>   3
Atom  22C    basis set group =>   3
Atom  23C    basis set group =>   3
Atom  24C    basis set group =>   3
Atom  25C    basis set group =>   3
Atom  26C    basis set group =>   3
Atom  27C    basis set group =>   3
Atom  28H    basis set group =>   2
Atom  29H    basis set group =>   2
Atom  30H    basis set group =>   2
Atom  31H    basis set group =>   2
Atom  32H    basis set group =>   2
Atom  33H    basis set group =>   2
Atom  34H    basis set group =>   2
Atom  35H    basis set group =>   2
Atom  36H    basis set group =>   2
Atom  37H    basis set group =>   2
---------------------------------
AUXILIARY/J BASIS SET INFORMATION
---------------------------------
There are 3 groups of distinct atoms

 Group   1 Type N   : 12s5p4d2f1g contracted to 6s4p3d1f1g pattern {711111/2111/211/2/1}
 Group   2 Type H   : 5s2p1d contracted to 3s1p1d pattern {311/2/1}
 Group   3 Type C   : 12s5p4d2f1g contracted to 6s4p3d1f1g pattern {711111/2111/211/2/1}

Atom   0N    basis set group =>   1
Atom   1H    basis set group =>   2
Atom   2C    basis set group =>   3
Atom   3C    basis set group =>   3
Atom   4N    basis set group =>   1
Atom   5C    basis set group =>   3
Atom   6H    basis set group =>   2
Atom   7C    basis set group =>   3
Atom   8N    basis set group =>   1
Atom   9C    basis set group =>   3
Atom  10C    basis set group =>   3
Atom  11C    basis set group =>   3
Atom  12N    basis set group =>   1
Atom  13C    basis set group =>   3
Atom  14C    basis set group =>   3
Atom  15C    basis set group =>   3
Atom  16C    basis set group =>   3
Atom  17H    basis set group =>   2
Atom  18H    basis set group =>   2
Atom  19C    basis set group =>   3
Atom  20C    basis set group =>   3
Atom  21C    basis set group =>   3
Atom  22C    basis set group =>   3
Atom  23C    basis set group =>   3
Atom  24C    basis set group =>   3
Atom  25C    basis set group =>   3
Atom  26C    basis set group =>   3
Atom  27C    basis set group =>   3
Atom  28H    basis set group =>   2
Atom  29H    basis set group =>   2
Atom  30H    basis set group =>   2
Atom  31H    basis set group =>   2
Atom  32H    basis set group =>   2
Atom  33H    basis set group =>   2
Atom  34H    basis set group =>   2
Atom  35H    basis set group =>   2
Atom  36H    basis set group =>   2
Atom  37H    basis set group =>   2

Checking for AutoStart:
The File: tddft.gbw exists
Trying to determine its content:
     ... Fine, the file contains calculation information
     ... Fine, the calculation information was read
     ... Fine, the file contains a basis set
     ... Fine, the basis set was read
     ... Fine, the file contains a geometry
     ... Fine, the geometry was read
     ... Fine, the file contains a set of orbitals
     ... Fine, the orbitals can be read
     => possible old guess file was deleted
     => GBW file was renamed to GES file
     => GES file is set as startup file
     => Guess is set to MORead
     ... now leaving AutoStart



           ************************************************************
           *        Program running with 4 parallel MPI-processes     *
           *              working on a common directory               *
           ************************************************************
------------------------------------------------------------------------------
                             ORCA STARTUP CALCULATIONS
                           -- RI-GTO INTEGRALS CHOSEN --
------------------------------------------------------------------------------
------------------------------------------------------------------------------
                   ___                                                        
                  /   \      - P O W E R E D   B Y -                         
                 /     \                                                     
                 |  |  |   _    _      __       _____    __    __             
                 |  |  |  | |  | |    /  \     |  _  \  |  |  /  |          
                  \  \/   | |  | |   /    \    | | | |  |  | /  /          
                 / \  \   | |__| |  /  /\  \   | |_| |  |  |/  /          
                |  |  |   |  __  | /  /__\  \  |    /   |      \           
                |  |  |   | |  | | |   __   |  |    \   |  |\   \          
                \     /   | |  | | |  |  |  |  | |\  \  |  | \   \       
                 \___/    |_|  |_| |__|  |__|  |_| \__\ |__|  \__/        
                                                                              
                      - O R C A' S   B I G   F R I E N D -                    
                                      &                                       
                       - I N T E G R A L  F E E D E R -                       
                                                                              
 v1 FN, 2020, v2 2021, v3 2022-2024                                           
------------------------------------------------------------------------------


----------------------
SHARK INTEGRAL PACKAGE
----------------------

Number of atoms                             ...     38
Number of basis functions                   ...    828
Number of shells                            ...    320
Maximum angular momentum                    ...      3
Integral batch strategy                     ... SHARK/LIBINT Hybrid
RI-J (if used) integral strategy            ... SPLIT-RIJ (Revised 2003 algorithm where possible)
Printlevel                                  ...      1
Contraction scheme used                     ... SEGMENTED contraction
Prescreening option                         ... SCHWARTZ
   Thresh                                   ... 2.500e-11
   Tcut                                     ... 2.500e-12
   Tpresel                                  ... 2.500e-12 
Coulomb Range Separation                    ... NOT USED
Exchange Range Separation                   ... Long Range
   Mu parameter                             ... 2.500e-01
   Scaling (regular/separated)              ... 1.957e-01 8.043e-01
Robust (split-)RI terms used:
  metric    (central integrals)             ... YES
  density   (r.h.s.  integrals)             ... YES
  potential (l.h.s.  integrals)             ... YES
Multipole approximations                    ... NOT USED
Finite Nucleus Model                        ... NOT USED
CABS basis                                  ... NOT available
Auxiliary Coulomb fitting basis             ... AVAILABLE
   # of basis functions in Aux-J            ...   1330
   # of shells in Aux-J                     ...    430
   Maximum angular momentum in Aux-J        ...      4
Auxiliary J/K fitting basis                 ... NOT available
Auxiliary Correlation fitting basis         ... NOT available
Auxiliary 'external' fitting basis          ... NOT available

Checking pre-screening integrals            ... done (  0.0 sec) Dimension = 320
   => SHARK Basis and OBASIS are compatible. Storing Pre-screening
Shell pair information
Shell pair cut-off parameter TPreSel        ...   2.5e-12
Total number of shell pairs                 ...     51360
Shell pairs after pre-screening             ...     36355
Total number of primitive shell pairs       ...    159900
Primitive shell pairs kept                  ...     74234
          la=0 lb=0:   8928 shell pairs
          la=1 lb=0:  10386 shell pairs
          la=1 lb=1:   3015 shell pairs
          la=2 lb=0:   5224 shell pairs
          la=2 lb=1:   3148 shell pairs
          la=2 lb=2:    850 shell pairs
          la=3 lb=0:   2422 shell pairs
          la=3 lb=1:   1488 shell pairs
          la=3 lb=2:    724 shell pairs
          la=3 lb=3:    170 shell pairs

Checking whether 4 symmetric matrices of dimension 828 fit in memory
:Max Core in MB      =   3000.00
 MB in use           =     47.55
 MB left             =   2952.45
 MB needed           =     10.47
 Data fit in memory  = YES
Calculating RI/J V-Matrix + Cholesky decomp.... done (  0.2 sec)
Calculating Nuclear repulsion               ... done (  0.0 sec) ENN=   1861.115687571553 Eh

Diagonalization of the overlap matrix:
Smallest eigenvalue                        ... 1.003e-05
Time for diagonalization                   ...    0.238 sec
Threshold for overlap eigenvalues          ... 1.000e-07
Number of eigenvalues below threshold      ... 0
Time for construction of square roots      ...    0.155 sec
Total time needed                          ...    0.404 sec

-------------------
DFT GRID GENERATION
-------------------

General Integration Accuracy     IntAcc      ... 4.959
Radial Grid Type                 RadialGrid  ... OptM3 with GC (2021)
Angular Grid (max. ang.)         AngularGrid ... 6 (Lebedev-590)
Angular grid pruning method      GridPruning ... 4 (adaptive)
Weight generation scheme         WeightScheme... mBecke (2022)
Basis function cutoff            BFCut       ... 1.0000e-11
Integration weight cutoff        WCut        ... 1.0000e-14
Partially contracted basis set               ... off
Rotationally invariant grid construction     ... off
Angular grids for H and He will be reduced by one unit

Total number of grid points                  ...   459056
Total number of batches                      ...     7194
Average number of points per batch           ...       63
Average number of grid points per atom       ...    12080

--------------------
COSX GRID GENERATION
--------------------

GRIDX 1
-------
General Integration Accuracy     IntAcc      ... 4.020
Radial Grid Type                 RadialGrid  ... OptM3 with GC (2021)
Angular Grid (max. ang.)         AngularGrid ... 2 (Lebedev-110)
Angular grid pruning method      GridPruning ... 4 (adaptive)
Weight generation scheme         WeightScheme... mBecke (2022)
Basis function cutoff            BFCut       ... 1.0000e-11
Integration weight cutoff        WCut        ... 1.0000e-14
Partially contracted basis set               ... on
Rotationally invariant grid construction     ... off
Angular grids for H and He will be reduced by one unit

Total number of grid points                  ...    52427
Total number of batches                      ...      430
Average number of points per batch           ...      121
Average number of grid points per atom       ...     1380
UseSFitting                                  ... on

GRIDX 2
-------
General Integration Accuracy     IntAcc      ... 4.338
Radial Grid Type                 RadialGrid  ... OptM3 with GC (2021)
Angular Grid (max. ang.)         AngularGrid ... 3 (Lebedev-194)
Angular grid pruning method      GridPruning ... 4 (adaptive)
Weight generation scheme         WeightScheme... mBecke (2022)
Basis function cutoff            BFCut       ... 1.0000e-11
Integration weight cutoff        WCut        ... 1.0000e-14
Partially contracted basis set               ... on
Rotationally invariant grid construction     ... off
Angular grids for H and He will be reduced by one unit

Total number of grid points                  ...   114991
Total number of batches                      ...      922
Average number of points per batch           ...      124
Average number of grid points per atom       ...     3026
UseSFitting                                  ... on

GRIDX 3
-------
General Integration Accuracy     IntAcc      ... 4.871
Radial Grid Type                 RadialGrid  ... OptM3 with GC (2021)
Angular Grid (max. ang.)         AngularGrid ... 4 (Lebedev-302)
Angular grid pruning method      GridPruning ... 4 (adaptive)
Weight generation scheme         WeightScheme... mBecke (2022)
Basis function cutoff            BFCut       ... 1.0000e-11
Integration weight cutoff        WCut        ... 1.0000e-14
Partially contracted basis set               ... on
Rotationally invariant grid construction     ... off
Angular grids for H and He will be reduced by one unit

Total number of grid points                  ...   212358
Total number of batches                      ...     1680
Average number of points per batch           ...      126
Average number of grid points per atom       ...     5588
UseSFitting                                  ... on
Grids setup in  19.8 sec
Initializing property integral containers    ... done (  0.0 sec)

SHARK setup successfully completed in  21.4 seconds

Maximum memory used throughout the entire STARTUP-calculation: 144.4 MB


           ************************************************************
           *        Program running with 4 parallel MPI-processes     *
           *              working on a common directory               *
           ************************************************************
-------------------------------------------------------------------------------
                                 ORCA GUESS
                   Start orbitals & Density for SCF / CASSCF
-------------------------------------------------------------------------------

------------
SCF SETTINGS
------------
Hamiltonian:
 Density Functional     Method          .... DFT(GTOs)
 Exchange Functional    Exchange        .... WB97X-D3
 Correlation Functional Correlation     .... WB97X-D3
 Gradients option       PostSCFGGA      .... off
 Hybrid DFT is turned on
   Fraction HF Exchange ScalHFX         ....  0.195728
   Scaling of DF-GGA-X  ScalDFX         ....  0.000000
   Scaling of DF-GGA-C  ScalDFC         ....  1.000000
   Scaling of DF-LDA-C  ScalLDAC        ....  1.000000
   Perturbative correction              ....  0.000000
 Long-range corrected/Screened/Range-Separated Hybrid DFT is turned on
   Amount of maximum screened exact exchange              ....  0.804272
   Range separation parameter mu (erf(mu*r12)/r12)        ....  0.250000
 RI-approximation to the Coulomb term is turned on
   Number of AuxJ basis functions       .... 1330
   RIJ-COSX (HFX calculated with COS-X)).... on


General Settings:
 Integral files         IntName         .... tddft
 Hartree-Fock type      HFTyp           .... RHF
 Total Charge           Charge          ....    0
 Multiplicity           Mult            ....    1
 Number of Electrons    NEL             ....  162
 Basis Dimension        Dim             ....  828
 Nuclear Repulsion      ENuc            ....   1861.1156875716 Eh

Convergence Acceleration:
 AO-DIIS                CNVDIIS         .... on
   Start iteration      DIISMaxIt       ....    12
   Startup error        DIISStart       ....  0.200000
   # of expansion vecs  DIISMaxEq       ....     5
   Bias factor          DIISBfac        ....   1.050
   Max. coefficient     DIISMaxC        ....  10.000
 MO-DIIS                CNVKDIIS        .... off
 Trust-Rad. Augm. Hess. CNVTRAH         .... auto
   Auto Start mean grad. ratio tolernc. ....  1.125000
   Auto Start start iteration           ....     1
   Auto Start num. interpolation iter.  ....    10
   Max. Number of Micro iterations      ....    24
   Max. Number of Macro iterations      .... Maxiter - #DIIS iter
   Number of Davidson start vectors     ....     2
   Converg. threshold    (grad. norm)   ....   1.000e-05
   Grad. Scal. Fac. for Micro threshold ....   0.100
   Minimum threshold for Micro iter.    ....   1.000e-02
   NR start threshold (gradient norm)   ....   1.000e-04
   Initial trust radius                 ....   0.400
   Minimum AH scaling param. (alpha)    ....   1.000
   Maximum AH scaling param. (alpha)    .... 1000.000
   Quad. conv. algorithm                .... NR
   White noise on init. David. guess    .... on
   Maximum white noise                  ....   0.010
   Pseudo random numbers                .... off
   Inactive MOs                         .... canonical
   Orbital update algorithm             .... Taylor
   Preconditioner                       .... Diag
   Full preconditioner red. dimension   ....   250
 SOSCF                 CNVSOSCF           .... on
   Start iteration     SOSCFMaxIt         ....   150
   Startup grad/error  SOSCFStart         ....  0.003300
   Hessian update      SOSCFHessUp        .... L-BFGS
   Autom. constraints  SOSCFAutoConstrain .... off
 Level Shifting         CNVShift        .... on
   Level shift para.    LevelShift      ....    0.2500
   Turn off err/grad.   ShiftErr        ....    0.0010
 Zerner damping         CNVZerner       .... off
 Static damping         CNVDamp         .... on
   Fraction old density DampFac         ....    0.7000
   Max. Damping (<1)    DampMax         ....    0.9800
   Min. Damping (>=0)   DampMin         ....    0.0000
   Turn off err/grad.   DampErr         ....    0.1000

SCF Procedure:
 Maximum # iterations   MaxIter         ....   125
 SCF integral mode      SCFMode         .... Direct
   Integral package                     .... SHARK and LIBINT hybrid scheme
 Reset frequency        DirectResetFreq ....    20
 Integral Threshold     Thresh          ....  2.500e-11 Eh
 Primitive CutOff       TCut            ....  2.500e-12 Eh

Convergence Tolerance:
 Convergence Check Mode ConvCheckMode   .... Total+1el-Energy
 Convergence forced     ConvForced      .... 1
 Energy Change          TolE            ....  1.000e-08 Eh
 1-El. energy change                    ....  1.000e-05 Eh
 Orbital Gradient       TolG            ....  1.000e-05
 Orbital Rotation angle TolX            ....  1.000e-05
 DIIS Error             TolErr          ....  5.000e-07

---------------------
INITIAL GUESS: MOREAD
---------------------
Guess MOs are being read from file: tddft.ges
Input Geometry matches current geometry (good)
Input basis set matches current basis set (good)
Occupation numbers will be reassigned to an Aufbau configuration
MOs were renormalized
MOs were reorthogonalized (Cholesky)
                      ------------------
                      INITIAL GUESS DONE (   0.9 sec)
                      ------------------
             **** ENERGY FILE WAS UPDATED (tddft.en.tmp) ****
Finished Guess after   1.6 sec
Maximum memory used throughout the entire GUESS-calculation: 90.5 MB


           ************************************************************
           *        Program running with 4 parallel MPI-processes     *
           *              working on a common directory               *
           ************************************************************

-------------------------------------------------------------------------------------------
                                      ORCA LEAN-SCF
                              memory conserving SCF solver
-------------------------------------------------------------------------------------------

--------------------
CPCM SOLVATION MODEL
--------------------
CPCM parameters:
  Epsilon                                         ...       8.9990
  Refrac                                          ...       1.4242
  Rsolv                                           ...       1.3000
  Surface type                                    ... GAUSSIAN VDW
  Discretization scheme                           ... Constant charge density
    Threshold for H atoms                         ...       5.0000 (charges/Ang^2)
    Threshold for non-H atoms                     ...       5.0000 (charges/Ang^2)
  Epsilon function type                           ...         CPCM
Solvent:                                          ... DICHLOROMETHANE
Radii:
  Scheme                                          ... Element-dependent radii
  Radius for N  used is    3.5149 Bohr (=   1.8600 Ang.)
  Radius for H  used is    2.4944 Bohr (=   1.3200 Ang.)
  Radius for C  used is    3.8550 Bohr (=   2.0400 Ang.)
Calculating surface                               ...        done! (  0.0s)
Cavity surface points                             ...         3512
Cavity Volume                                     ...    2435.1087
Cavity Surface-area                               ...    1185.7219
Calculating surface distance matrix               ...        done! (  0.6s)
Performing Cholesky decomposition & store         ...        done! (  1.6s)
Overall time for CPCM initialization              ...                 2.2s

----------------------------------------D-I-I-S--------------------------------------------
Iteration    Energy (Eh)           Delta-E    RMSDP     MaxDP     DIISErr   Damp  Time(sec)
-------------------------------------------------------------------------------------------
               ***  Starting incremental Fock matrix formation  ***
                              *** Initializing SOSCF ***
---------------------------------------S-O-S-C-F--------------------------------------
Iteration    Energy (Eh)           Delta-E    RMSDP     MaxDP     MaxGrad    Time(sec)
--------------------------------------------------------------------------------------
    1    -989.5910438073185560     0.00e+00  1.01e-05  2.19e-04  3.42e-07   233.7
               *** Restarting incremental Fock matrix formation ***
    2    -989.5910438076364244    -3.18e-10  2.39e-06  5.08e-05  5.61e-07   315.7
                  *** Gradient check signals convergence ***

               *****************************************************
               *                     SUCCESS                       *
               *           SCF CONVERGED AFTER   2 CYCLES          *
               *****************************************************

Recomputing exchange energy using gridx3       ... done (  571.423 sec)
Old exchange energy                            :    -43.769957605 Eh
New exchange energy                            :    -43.769957851 Eh
Exchange energy change after final integration :     -0.000000246 Eh
Total energy after final integration           :   -989.591044077 Eh
             **** ENERGY FILE WAS UPDATED (tddft.en.tmp) ****

----------------
TOTAL SCF ENERGY
----------------

Total Energy       :       -989.59104407653194 Eh          -26928.14131 eV

Components:
Nuclear Repulsion  :       1861.11568757155305 Eh           50643.53253 eV
Electronic Energy  :      -2850.68845567641984 Eh          -77571.17652 eV
One Electron Energy:      -5038.67741448183824 Eh         -137109.38295 eV
Two Electron Energy:       2187.98895880541841 Eh           59538.20643 eV
CPCM Dielectric    :         -0.01827572552674 Eh              -0.49731 eV

Virial components:
Potential Energy   :      -1974.70774282798425 Eh          -53734.52949 eV
Kinetic Energy     :        985.11669875145230 Eh           26806.38818 eV
Virial Ratio       :          2.00454194445262

DFT components:
N(Alpha)           :       81.000009383904 electrons
N(Beta)            :       81.000009383904 electrons
N(Total)           :      162.000018767809 electrons
E(XC)              :      -97.610935050582 Eh       

CPCM Solvation Model Properties:
Surface-charge          :         -0.03437612578992
Corrected charge        :          0.00000000000000
Outlying charge corr.   :          0.00005650832469 Eh               0.00154 eV
Free-energy (cav+disp)  :  This term is not implemented in the current solvation scheme

---------------
SCF CONVERGENCE
---------------

  Last Energy change         ...    3.1787e-10  Tolerance :   1.0000e-08
  Last MAX-Density change    ...    5.0825e-05  Tolerance :   1.0000e-07
  Last RMS-Density change    ...    2.3943e-06  Tolerance :   5.0000e-09
  Last DIIS Error            ...    1.7870e-06  Tolerance :   5.0000e-07
  Last Orbital Gradient      ...    5.6073e-07  Tolerance :   1.0000e-05
  Last Orbital Rotation      ...    1.6328e-06  Tolerance :   1.0000e-05


----------------
ORBITAL ENERGIES
----------------

  NO   OCC          E(Eh)            E(eV) 
   0   2.0000     -14.467457      -393.6795 
   1   2.0000     -14.467454      -393.6794 
   2   2.0000     -14.402957      -391.9244 
   3   2.0000     -14.402954      -391.9243 
   4   2.0000     -10.333636      -281.1925 
   5   2.0000     -10.333634      -281.1925 
   6   2.0000     -10.333598      -281.1915 
   7   2.0000     -10.333596      -281.1914 
   8   2.0000     -10.315031      -280.6863 
   9   2.0000     -10.315030      -280.6862 
  10   2.0000     -10.314996      -280.6853 
  11   2.0000     -10.314995      -280.6853 
  12   2.0000     -10.295275      -280.1487 
  13   2.0000     -10.295271      -280.1486 
  14   2.0000     -10.295267      -280.1485 
  15   2.0000     -10.295263      -280.1484 
  16   2.0000     -10.292684      -280.0782 
  17   2.0000     -10.292682      -280.0781 
  18   2.0000     -10.291989      -280.0593 
  19   2.0000     -10.291986      -280.0592 
  20   2.0000     -10.280146      -279.7370 
  21   2.0000     -10.280145      -279.7370 
  22   2.0000     -10.279364      -279.7157 
  23   2.0000     -10.279363      -279.7157 
  24   2.0000      -1.118594       -30.4385 
  25   2.0000      -1.116904       -30.3925 
  26   2.0000      -1.072572       -29.1862 
  27   2.0000      -1.069826       -29.1115 
  28   2.0000      -0.945597       -25.7310 
  29   2.0000      -0.923118       -25.1193 
  30   2.0000      -0.916787       -24.9470 
  31   2.0000      -0.915242       -24.9050 
  32   2.0000      -0.911688       -24.8083 
  33   2.0000      -0.880868       -23.9696 
  34   2.0000      -0.880520       -23.9602 
  35   2.0000      -0.865063       -23.5396 
  36   2.0000      -0.841678       -22.9032 
  37   2.0000      -0.779949       -21.2235 
  38   2.0000      -0.772708       -21.0264 
  39   2.0000      -0.716859       -19.5067 
  40   2.0000      -0.713279       -19.4093 
  41   2.0000      -0.707959       -19.2645 
  42   2.0000      -0.698976       -19.0201 
  43   2.0000      -0.691708       -18.8223 
  44   2.0000      -0.686937       -18.6925 
  45   2.0000      -0.670110       -18.2346 
  46   2.0000      -0.660220       -17.9655 
  47   2.0000      -0.628724       -17.1084 
  48   2.0000      -0.618685       -16.8353 
  49   2.0000      -0.608744       -16.5648 
  50   2.0000      -0.602917       -16.4062 
  51   2.0000      -0.565096       -15.3771 
  52   2.0000      -0.554791       -15.0966 
  53   2.0000      -0.548301       -14.9200 
  54   2.0000      -0.548274       -14.9193 
  55   2.0000      -0.546816       -14.8796 
  56   2.0000      -0.542039       -14.7496 
  57   2.0000      -0.530496       -14.4355 
  58   2.0000      -0.528108       -14.3705 
  59   2.0000      -0.521188       -14.1822 
  60   2.0000      -0.519996       -14.1498 
  61   2.0000      -0.513901       -13.9840 
  62   2.0000      -0.506110       -13.7720 
  63   2.0000      -0.495162       -13.4740 
  64   2.0000      -0.482431       -13.1276 
  65   2.0000      -0.478308       -13.0154 
  66   2.0000      -0.477856       -13.0031 
  67   2.0000      -0.471048       -12.8179 
  68   2.0000      -0.464138       -12.6298 
  69   2.0000      -0.463483       -12.6120 
  70   2.0000      -0.435742       -11.8572 
  71   2.0000      -0.387233       -10.5371 
  72   2.0000      -0.377911       -10.2835 
  73   2.0000      -0.375431       -10.2160 
  74   2.0000      -0.374664       -10.1951 
  75   2.0000      -0.369482       -10.0541 
  76   2.0000      -0.367022        -9.9872 
  77   2.0000      -0.343000        -9.3335 
  78   2.0000      -0.338964        -9.2237 
  79   2.0000      -0.265758        -7.2316 
  80   2.0000      -0.264815        -7.2060 
  81   0.0000      -0.045762        -1.2452 
  82   0.0000      -0.045659        -1.2425 
  83   0.0000       0.040994         1.1155 
  84   0.0000       0.111386         3.0310 
  85   0.0000       0.127891         3.4801 
  86   0.0000       0.130171         3.5421 
  87   0.0000       0.135817         3.6958 
  88   0.0000       0.144858         3.9418 
  89   0.0000       0.147584         4.0160 
  90   0.0000       0.148978         4.0539 
  91   0.0000       0.149516         4.0686 
*Only the first 10 virtual orbitals were printed.

                    ********************************
                    * MULLIKEN POPULATION ANALYSIS *
                    ********************************

-----------------------
MULLIKEN ATOMIC CHARGES
-----------------------
   0 N :   -0.195994
   1 H :    0.164262
   2 C :   -0.219863
   3 C :   -0.232916
   4 N :   -0.508767
   5 C :   -0.233360
   6 H :    0.164255
   7 C :    0.261375
   8 N :   -0.508753
   9 C :   -0.233266
  10 C :   -0.404718
  11 C :    0.261224
  12 N :   -0.195977
  13 C :   -0.219810
  14 C :    0.317425
  15 C :    0.316668
  16 C :    0.261242
  17 H :    0.235647
  18 H :    0.235645
  19 C :    0.261500
  20 C :   -0.219745
  21 C :   -0.405255
  22 C :   -0.404766
  23 C :   -0.219823
  24 C :    0.316497
  25 C :   -0.232996
  26 C :   -0.405232
  27 C :    0.317522
  28 H :    0.174263
  29 H :    0.174270
  30 H :    0.175573
  31 H :    0.175602
  32 H :    0.174268
  33 H :    0.174264
  34 H :    0.175575
  35 H :    0.164245
  36 H :    0.175656
  37 H :    0.164262
Sum of atomic charges:    0.0000000

--------------------------------
MULLIKEN REDUCED ORBITAL CHARGES
--------------------------------
  0 N s       :     3.436477  s :     3.436477
      pz      :     1.507404  p :     3.688722
      px      :     1.079303
      py      :     1.102014
      dz2     :     0.005174  d :     0.066249
      dxz     :     0.004528
      dyz     :     0.016024
      dx2y2   :     0.022262
      dxy     :     0.018260
      f0      :     0.000828  f :     0.004546
      f+1     :     0.000659
      f-1     :     0.000578
      f+2     :     0.000094
      f-2     :     0.000593
      f+3     :     0.000768
      f-3     :     0.001025

  1 H s       :     0.813855  s :     0.813855
      pz      :     0.004510  p :     0.021883
      px      :     0.008245
      py      :     0.009128

  2 C s       :     3.272755  s :     3.272755
      pz      :     0.986334  p :     2.855035
      px      :     0.920167
      py      :     0.948534
      dz2     :     0.005660  d :     0.084233
      dxz     :     0.009934
      dyz     :     0.020299
      dx2y2   :     0.017576
      dxy     :     0.030765
      f0      :     0.001533  f :     0.007839
      f+1     :     0.000821
      f-1     :     0.000685
      f+2     :     0.000926
      f-2     :     0.000460
      f+3     :     0.002260
      f-3     :     0.001155

  3 C s       :     3.269058  s :     3.269058
      pz      :     0.987951  p :     2.872908
      px      :     0.964959
      py      :     0.919998
      dz2     :     0.004941  d :     0.083161
      dxz     :     0.019780
      dyz     :     0.009301
      dx2y2   :     0.017882
      dxy     :     0.031258
      f0      :     0.001505  f :     0.007789
      f+1     :     0.000542
      f-1     :     0.000793
      f+2     :     0.001012
      f-2     :     0.000395
      f+3     :     0.001198
      f-3     :     0.002345

  4 N s       :     3.625134  s :     3.625134
      pz      :     1.290667  p :     3.816123
      px      :     1.047354
      py      :     1.478103
      dz2     :     0.005883  d :     0.063898
      dxz     :     0.012471
      dyz     :     0.009050
      dx2y2   :     0.014417
      dxy     :     0.022078
      f0      :     0.000631  f :     0.003612
      f+1     :     0.000395
      f-1     :     0.000303
      f+2     :     0.000134
      f-2     :     0.000574
      f+3     :     0.000905
      f-3     :     0.000670

  5 C s       :     3.269485  s :     3.269485
      pz      :     0.987908  p :     2.872915
      px      :     0.972280
      py      :     0.912727
      dz2     :     0.005155  d :     0.083169
      dxz     :     0.017654
      dyz     :     0.011169
      dx2y2   :     0.019750
      dxy     :     0.029441
      f0      :     0.001495  f :     0.007791
      f+1     :     0.000587
      f-1     :     0.000768
      f+2     :     0.001261
      f-2     :     0.000129
      f+3     :     0.001368
      f-3     :     0.002182

  6 H s       :     0.813859  s :     0.813859
      pz      :     0.004560  p :     0.021886
      px      :     0.006544
      py      :     0.010781

  7 C s       :     3.092495  s :     3.092495
      pz      :     0.926451  p :     2.486535
      px      :     0.814070
      py      :     0.746015
      dz2     :     0.005087  d :     0.145515
      dxz     :     0.029604
      dyz     :     0.037441
      dx2y2   :     0.030554
      dxy     :     0.042829
      f0      :     0.002311  f :     0.014080
      f+1     :     0.000931
      f-1     :     0.001168
      f+2     :     0.000675
      f-2     :     0.002507
      f+3     :     0.003313
      f-3     :     0.003176

  8 N s       :     3.625124  s :     3.625124
      pz      :     1.290660  p :     3.816118
      px      :     1.047344
      py      :     1.478115
      dz2     :     0.005882  d :     0.063899
      dxz     :     0.012471
      dyz     :     0.009050
      dx2y2   :     0.014417
      dxy     :     0.022079
      f0      :     0.000631  f :     0.003612
      f+1     :     0.000395
      f-1     :     0.000303
      f+2     :     0.000134
      f-2     :     0.000574
      f+3     :     0.000905
      f-3     :     0.000670

  9 C s       :     3.269418  s :     3.269418
      pz      :     0.987920  p :     2.872884
      px      :     0.972274
      py      :     0.912690
      dz2     :     0.005156  d :     0.083173
      dxz     :     0.017652
      dyz     :     0.011168
      dx2y2   :     0.019754
      dxy     :     0.029443
      f0      :     0.001495  f :     0.007791
      f+1     :     0.000587
      f-1     :     0.000768
      f+2     :     0.001261
      f-2     :     0.000129
      f+3     :     0.001368
      f-3     :     0.002182

 10 C s       :     3.347380  s :     3.347380
      pz      :     1.004583  p :     2.973262
      px      :     1.012028
      py      :     0.956651
      dz2     :     0.003462  d :     0.076831
      dxz     :     0.014303
      dyz     :     0.016458
      dx2y2   :     0.009332
      dxy     :     0.033274
      f0      :     0.001435  f :     0.007245
      f+1     :     0.000668
      f-1     :     0.000733
      f+2     :     0.000776
      f-2     :     0.000455
      f+3     :     0.001783
      f-3     :     0.001396

 11 C s       :     3.092615  s :     3.092615
      pz      :     0.926125  p :     2.486524
      px      :     0.829695
      py      :     0.730704
      dz2     :     0.005103  d :     0.145555
      dxz     :     0.029066
      dyz     :     0.038102
      dx2y2   :     0.037552
      dxy     :     0.035732
      f0      :     0.002313  f :     0.014082
      f+1     :     0.000879
      f-1     :     0.001221
      f+2     :     0.001139
      f-2     :     0.002042
      f+3     :     0.002231
      f-3     :     0.004257

 12 N s       :     3.436470  s :     3.436470
      pz      :     1.507397  p :     3.688710
      px      :     1.079300
      py      :     1.102014
      dz2     :     0.005175  d :     0.066251
      dxz     :     0.004528
      dyz     :     0.016024
      dx2y2   :     0.022264
      dxy     :     0.018259
      f0      :     0.000828  f :     0.004546
      f+1     :     0.000659
      f-1     :     0.000578
      f+2     :     0.000094
      f-2     :     0.000593
      f+3     :     0.000768
      f-3     :     0.001025

 13 C s       :     3.272850  s :     3.272850
      pz      :     0.986655  p :     2.854878
      px      :     0.908920
      py      :     0.959303
      dz2     :     0.005451  d :     0.084243
      dxz     :     0.012157
      dyz     :     0.018312
      dx2y2   :     0.018242
      dxy     :     0.030081
      f0      :     0.001545  f :     0.007840
      f+1     :     0.000747
      f-1     :     0.000737
      f+2     :     0.001225
      f-2     :     0.000176
      f+3     :     0.002083
      f-3     :     0.001326

 14 C s       :     3.081805  s :     3.081805
      pz      :     0.907210  p :     2.438629
      px      :     0.742229
      py      :     0.789190
      dz2     :     0.004127  d :     0.148072
      dxz     :     0.035099
      dyz     :     0.027685
      dx2y2   :     0.042095
      dxy     :     0.039066
      f0      :     0.002171  f :     0.014069
      f+1     :     0.001026
      f-1     :     0.000938
      f+2     :     0.000734
      f-2     :     0.002049
      f+3     :     0.003737
      f-3     :     0.003414

 15 C s       :     3.082210  s :     3.082210
      pz      :     0.907317  p :     2.438998
      px      :     0.743154
      py      :     0.788527
      dz2     :     0.004028  d :     0.148054
      dxz     :     0.036165
      dyz     :     0.026717
      dx2y2   :     0.042093
      dxy     :     0.039050
      f0      :     0.002175  f :     0.014070
      f+1     :     0.001046
      f-1     :     0.000915
      f+2     :     0.001070
      f-2     :     0.001708
      f+3     :     0.004960
      f-3     :     0.002196

 16 C s       :     3.092606  s :     3.092606
      pz      :     0.926116  p :     2.486525
      px      :     0.829744
      py      :     0.730665
      dz2     :     0.005100  d :     0.145545
      dxz     :     0.029066
      dyz     :     0.038106
      dx2y2   :     0.037543
      dxy     :     0.035731
      f0      :     0.002313  f :     0.014082
      f+1     :     0.000879
      f-1     :     0.001221
      f+2     :     0.001139
      f-2     :     0.002042
      f+3     :     0.002231
      f-3     :     0.004257

 17 H s       :     0.721444  s :     0.721444
      pz      :     0.010006  p :     0.042909
      px      :     0.026261
      py      :     0.006642

 18 H s       :     0.721446  s :     0.721446
      pz      :     0.010006  p :     0.042909
      px      :     0.026261
      py      :     0.006642

 19 C s       :     3.092396  s :     3.092396
      pz      :     0.926444  p :     2.486503
      px      :     0.814055
      py      :     0.746005
      dz2     :     0.005087  d :     0.145521
      dxz     :     0.029607
      dyz     :     0.037443
      dx2y2   :     0.030562
      dxy     :     0.042822
      f0      :     0.002311  f :     0.014080
      f+1     :     0.000931
      f-1     :     0.001168
      f+2     :     0.000675
      f-2     :     0.002507
      f+3     :     0.003313
      f-3     :     0.003176

 20 C s       :     3.272796  s :     3.272796
      pz      :     0.986653  p :     2.854869
      px      :     0.908913
      py      :     0.959303
      dz2     :     0.005451  d :     0.084241
      dxz     :     0.012156
      dyz     :     0.018312
      dx2y2   :     0.018241
      dxy     :     0.030081
      f0      :     0.001545  f :     0.007840
      f+1     :     0.000747
      f-1     :     0.000737
      f+2     :     0.001225
      f-2     :     0.000176
      f+3     :     0.002083
      f-3     :     0.001326

 21 C s       :     3.347778  s :     3.347778
      pz      :     1.005260  p :     2.973400
      px      :     0.990740
      py      :     0.977400
      dz2     :     0.003105  d :     0.076832
      dxz     :     0.018529
      dyz     :     0.012599
      dx2y2   :     0.009838
      dxy     :     0.032762
      f0      :     0.001464  f :     0.007245
      f+1     :     0.000654
      f-1     :     0.000698
      f+2     :     0.000764
      f-2     :     0.000476
      f+3     :     0.001232
      f-3     :     0.001956

 22 C s       :     3.347325  s :     3.347325
      pz      :     1.004607  p :     2.973368
      px      :     1.012057
      py      :     0.956705
      dz2     :     0.003462  d :     0.076828
      dxz     :     0.014303
      dyz     :     0.016459
      dx2y2   :     0.009334
      dxy     :     0.033270
      f0      :     0.001435  f :     0.007245
      f+1     :     0.000668
      f-1     :     0.000733
      f+2     :     0.000776
      f-2     :     0.000455
      f+3     :     0.001783
      f-3     :     0.001395

 23 C s       :     3.272716  s :     3.272716
      pz      :     0.986339  p :     2.855038
      px      :     0.920128
      py      :     0.948571
      dz2     :     0.005661  d :     0.084229
      dxz     :     0.009934
      dyz     :     0.020297
      dx2y2   :     0.017574
      dxy     :     0.030763
      f0      :     0.001533  f :     0.007839
      f+1     :     0.000821
      f-1     :     0.000685
      f+2     :     0.000926
      f-2     :     0.000460
      f+3     :     0.002260
      f-3     :     0.001155

 24 C s       :     3.082405  s :     3.082405
      pz      :     0.907310  p :     2.438985
      px      :     0.743192
      py      :     0.788483
      dz2     :     0.004025  d :     0.148043
      dxz     :     0.036167
      dyz     :     0.026717
      dx2y2   :     0.042084
      dxy     :     0.039050
      f0      :     0.002175  f :     0.014070
      f+1     :     0.001045
      f-1     :     0.000915
      f+2     :     0.001070
      f-2     :     0.001708
      f+3     :     0.004960
      f-3     :     0.002197

 25 C s       :     3.269162  s :     3.269162
      pz      :     0.987944  p :     2.872878
      px      :     0.964945
      py      :     0.919988
      dz2     :     0.004941  d :     0.083168
      dxz     :     0.019781
      dyz     :     0.009301
      dx2y2   :     0.017884
      dxy     :     0.031261
      f0      :     0.001505  f :     0.007789
      f+1     :     0.000542
      f-1     :     0.000793
      f+2     :     0.001012
      f-2     :     0.000395
      f+3     :     0.001198
      f-3     :     0.002345

 26 C s       :     3.347759  s :     3.347759
      pz      :     1.005230  p :     2.973399
      px      :     0.990744
      py      :     0.977425
      dz2     :     0.003103  d :     0.076830
      dxz     :     0.018531
      dyz     :     0.012601
      dx2y2   :     0.009831
      dxy     :     0.032764
      f0      :     0.001464  f :     0.007245
      f+1     :     0.000654
      f-1     :     0.000698
      f+2     :     0.000764
      f-2     :     0.000476
      f+3     :     0.001232
      f-3     :     0.001956

 27 C s       :     3.081746  s :     3.081746
      pz      :     0.907232  p :     2.438585
      px      :     0.742182
      py      :     0.789170
      dz2     :     0.004126  d :     0.148078
      dxz     :     0.035099
      dyz     :     0.027685
      dx2y2   :     0.042100
      dxy     :     0.039070
      f0      :     0.002171  f :     0.014069
      f+1     :     0.001026
      f-1     :     0.000938
      f+2     :     0.000734
      f-2     :     0.002049
      f+3     :     0.003737
      f-3     :     0.003414

 28 H s       :     0.803911  s :     0.803911
      pz      :     0.004465  p :     0.021826
      px      :     0.010955
      py      :     0.006407

 29 H s       :     0.803906  s :     0.803906
      pz      :     0.004508  p :     0.021824
      px      :     0.009213
      py      :     0.008103

 30 H s       :     0.801994  s :     0.801994
      pz      :     0.004928  p :     0.022433
      px      :     0.007710
      py      :     0.009795

 31 H s       :     0.801965  s :     0.801965
      pz      :     0.004877  p :     0.022433
      px      :     0.009555
      py      :     0.008001

 32 H s       :     0.803905  s :     0.803905
      pz      :     0.004465  p :     0.021827
      px      :     0.010956
      py      :     0.006406

 33 H s       :     0.803912  s :     0.803912
      pz      :     0.004509  p :     0.021824
      px      :     0.009213
      py      :     0.008102

 34 H s       :     0.801992  s :     0.801992
      pz      :     0.004928  p :     0.022433
      px      :     0.007710
      py      :     0.009795

 35 H s       :     0.813870  s :     0.813870
      pz      :     0.004560  p :     0.021886
      px      :     0.006544
      py      :     0.010782

 36 H s       :     0.801911  s :     0.801911
      pz      :     0.004878  p :     0.022433
      px      :     0.009555
      py      :     0.008001

 37 H s       :     0.813855  s :     0.813855
      pz      :     0.004510  p :     0.021883
      px      :     0.008244
      py      :     0.009128



                     *******************************
                     * LOEWDIN POPULATION ANALYSIS *
                     *******************************

----------------------
LOEWDIN ATOMIC CHARGES
----------------------
   0 N :    0.258677
   1 H :    0.148368
   2 C :   -0.101297
   3 C :   -0.117538
   4 N :    0.078157
   5 C :   -0.117540
   6 H :    0.148357
   7 C :   -0.189933
   8 N :    0.078162
   9 C :   -0.117543
  10 C :   -0.092489
  11 C :   -0.189915
  12 N :    0.258680
  13 C :   -0.101283
  14 C :   -0.236417
  15 C :   -0.236433
  16 C :   -0.189910
  17 H :    0.189430
  18 H :    0.189429
  19 C :   -0.189929
  20 C :   -0.101275
  21 C :   -0.092483
  22 C :   -0.092499
  23 C :   -0.101302
  24 C :   -0.236434
  25 C :   -0.117539
  26 C :   -0.092474
  27 C :   -0.236418
  28 H :    0.154667
  29 H :    0.154674
  30 H :    0.171494
  31 H :    0.171497
  32 H :    0.154665
  33 H :    0.154674
  34 H :    0.171496
  35 H :    0.148358
  36 H :    0.171497
  37 H :    0.148368

-------------------------------
LOEWDIN REDUCED ORBITAL CHARGES
-------------------------------
  0 N s       :     2.884887  s :     2.884887
      pz      :     1.325563  p :     3.603125
      px      :     1.138003
      py      :     1.139559
      dz2     :     0.014880  d :     0.235337
      dxz     :     0.012255
      dyz     :     0.048526
      dx2y2   :     0.088814
      dxy     :     0.070861
      f0      :     0.001209  f :     0.017975
      f+1     :     0.001699
      f-1     :     0.001688
      f+2     :     0.000469
      f-2     :     0.003651
      f+3     :     0.002792
      f-3     :     0.006466

  1 H s       :     0.789920  s :     0.789920
      pz      :     0.013605  p :     0.061711
      px      :     0.022618
      py      :     0.025488

  2 C s       :     2.760749  s :     2.760749
      pz      :     0.896494  p :     2.925011
      px      :     0.987137
      py      :     1.041379
      dz2     :     0.026986  d :     0.368802
      dxz     :     0.031178
      dyz     :     0.060277
      dx2y2   :     0.101424
      dxy     :     0.148937
      f0      :     0.003109  f :     0.046735
      f+1     :     0.003694
      f-1     :     0.003912
      f+2     :     0.007267
      f-2     :     0.002770
      f+3     :     0.017336
      f-3     :     0.008647

  3 C s       :     2.766806  s :     2.766806
      pz      :     0.897548  p :     2.934890
      px      :     1.054513
      py      :     0.982829
      dz2     :     0.026468  d :     0.369025
      dxz     :     0.057847
      dyz     :     0.031068
      dx2y2   :     0.101499
      dxy     :     0.152144
      f0      :     0.003078  f :     0.046817
      f+1     :     0.003859
      f-1     :     0.003554
      f+2     :     0.007488
      f-2     :     0.002163
      f+3     :     0.008623
      f-3     :     0.018052

  4 N s       :     3.041215  s :     3.041215
      pz      :     1.160311  p :     3.662126
      px      :     1.105571
      py      :     1.396244
      dz2     :     0.016729  d :     0.199434
      dxz     :     0.041425
      dyz     :     0.012388
      dx2y2   :     0.056335
      dxy     :     0.072557
      f0      :     0.001118  f :     0.019068
      f+1     :     0.001760
      f-1     :     0.000820
      f+2     :     0.000342
      f-2     :     0.003571
      f+3     :     0.006936
      f-3     :     0.004521

  5 C s       :     2.766806  s :     2.766806
      pz      :     0.897609  p :     2.934902
      px      :     1.052629
      py      :     0.984664
      dz2     :     0.027239  d :     0.369016
      dxz     :     0.049506
      dyz     :     0.038567
      dx2y2   :     0.102921
      dxy     :     0.150783
      f0      :     0.003045  f :     0.046816
      f+1     :     0.003870
      f-1     :     0.003608
      f+2     :     0.008885
      f-2     :     0.000730
      f+3     :     0.010119
      f-3     :     0.016559

  6 H s       :     0.789934  s :     0.789934
      pz      :     0.013730  p :     0.061709
      px      :     0.018316
      py      :     0.029663

  7 C s       :     2.696671  s :     2.696671
      pz      :     0.853131  p :     2.788912
      px      :     0.961308
      py      :     0.974473
      dz2     :     0.042235  d :     0.623516
      dxz     :     0.095745
      dyz     :     0.113160
      dx2y2   :     0.174334
      dxy     :     0.198041
      f0      :     0.005530  f :     0.080834
      f+1     :     0.005007
      f-1     :     0.006188
      f+2     :     0.005051
      f-2     :     0.016213
      f+3     :     0.022145
      f-3     :     0.020701

  8 N s       :     3.041213  s :     3.041213
      pz      :     1.160301  p :     3.662121
      px      :     1.105573
      py      :     1.396247
      dz2     :     0.016729  d :     0.199436
      dxz     :     0.041425
      dyz     :     0.012387
      dx2y2   :     0.056336
      dxy     :     0.072558
      f0      :     0.001118  f :     0.019068
      f+1     :     0.001760
      f-1     :     0.000820
      f+2     :     0.000342
      f-2     :     0.003571
      f+3     :     0.006936
      f-3     :     0.004521

  9 C s       :     2.766807  s :     2.766807
      pz      :     0.897616  p :     2.934909
      px      :     1.052632
      py      :     0.984661
      dz2     :     0.027240  d :     0.369012
      dxz     :     0.049502
      dyz     :     0.038566
      dx2y2   :     0.102920
      dxy     :     0.150784
      f0      :     0.003045  f :     0.046816
      f+1     :     0.003870
      f-1     :     0.003608
      f+2     :     0.008884
      f-2     :     0.000730
      f+3     :     0.010119
      f-3     :     0.016559

 10 C s       :     2.754301  s :     2.754301
      pz      :     0.895668  p :     2.929745
      px      :     1.020735
      py      :     1.013343
      dz2     :     0.025045  d :     0.368421
      dxz     :     0.044443
      dyz     :     0.052426
      dx2y2   :     0.096270
      dxy     :     0.150237
      f0      :     0.003269  f :     0.040023
      f+1     :     0.003592
      f-1     :     0.003966
      f+2     :     0.006121
      f-2     :     0.002207
      f+3     :     0.011232
      f-3     :     0.009636

 11 C s       :     2.696674  s :     2.696674
      pz      :     0.852548  p :     2.788911
      px      :     0.982500
      py      :     0.953863
      dz2     :     0.042501  d :     0.623498
      dxz     :     0.090315
      dyz     :     0.118360
      dx2y2   :     0.183026
      dxy     :     0.189297
      f0      :     0.005501  f :     0.080832
      f+1     :     0.004672
      f-1     :     0.006585
      f+2     :     0.007942
      f-2     :     0.013315
      f+3     :     0.015413
      f-3     :     0.027403

 12 N s       :     2.884886  s :     2.884886
      pz      :     1.325555  p :     3.603119
      px      :     1.138002
      py      :     1.139562
      dz2     :     0.014882  d :     0.235341
      dxz     :     0.012255
      dyz     :     0.048529
      dx2y2   :     0.088814
      dxy     :     0.070861
      f0      :     0.001209  f :     0.017975
      f+1     :     0.001699
      f-1     :     0.001688
      f+2     :     0.000469
      f-2     :     0.003651
      f+3     :     0.002793
      f-3     :     0.006465

 13 C s       :     2.760751  s :     2.760751
      pz      :     0.896458  p :     2.925003
      px      :     0.988538
      py      :     1.040007
      dz2     :     0.026280  d :     0.368795
      dxz     :     0.040043
      dyz     :     0.052137
      dx2y2   :     0.100508
      dxy     :     0.149827
      f0      :     0.003140  f :     0.046734
      f+1     :     0.003615
      f-1     :     0.003931
      f+2     :     0.009028
      f-2     :     0.001035
      f+3     :     0.015895
      f-3     :     0.010089

 14 C s       :     2.708666  s :     2.708666
      pz      :     0.836472  p :     2.800064
      px      :     0.989294
      py      :     0.974298
      dz2     :     0.044554  d :     0.647587
      dxz     :     0.105529
      dyz     :     0.090729
      dx2y2   :     0.215352
      dxy     :     0.191423
      f0      :     0.004924  f :     0.080099
      f+1     :     0.006074
      f-1     :     0.004664
      f+2     :     0.005144
      f-2     :     0.013672
      f+3     :     0.023504
      f-3     :     0.022117

 15 C s       :     2.708665  s :     2.708665
      pz      :     0.836704  p :     2.800090
      px      :     0.981624
      py      :     0.981762
      dz2     :     0.044200  d :     0.647579
      dxz     :     0.111720
      dyz     :     0.084709
      dx2y2   :     0.209376
      dxy     :     0.197573
      f0      :     0.004923  f :     0.080099
      f+1     :     0.006272
      f-1     :     0.004473
      f+2     :     0.007077
      f-2     :     0.011678
      f+3     :     0.031352
      f-3     :     0.014323

 16 C s       :     2.696676  s :     2.696676
      pz      :     0.852538  p :     2.788901
      px      :     0.982495
      py      :     0.953868
      dz2     :     0.042495  d :     0.623502
      dxz     :     0.090311
      dyz     :     0.118367
      dx2y2   :     0.183027
      dxy     :     0.189301
      f0      :     0.005502  f :     0.080832
      f+1     :     0.004672
      f-1     :     0.006584
      f+2     :     0.007941
      f-2     :     0.013316
      f+3     :     0.015413
      f-3     :     0.027404

 17 H s       :     0.692743  s :     0.692743
      pz      :     0.028865  p :     0.117827
      px      :     0.070406
      py      :     0.018556

[...]
  0-1A  -> 16-1A    5.148037   41521.7   240.8   0.000000010   0.00000   0.00001  -0.00005  -0.00001
  0-1A  -> 17-1A    5.457032   44013.9   227.2   0.000001044   0.00000   0.00056   0.00004  -0.00003
  0-1A  -> 18-1A    5.483750   44229.4   226.1   0.168523639   0.05094   0.22486   0.01879  -0.00541
  0-1A  -> 19-1A    5.494994   44320.1   225.6   0.000000007   0.00000  -0.00005  -0.00000   0.00000
  0-1A  -> 20-1A    5.567567   44905.5   222.7   0.000000041   0.00000   0.00011   0.00001   0.00001
  0-1A  -> 21-1A    6.060540   48881.6   204.6   0.000000002   0.00000   0.00001   0.00000   0.00002
  0-1A  -> 22-1A    6.218306   50154.0   199.4   0.000000001   0.00000   0.00000  -0.00000  -0.00002
  0-1A  -> 23-1A    6.783081   54709.2   182.8   0.000000010   0.00000  -0.00006  -0.00000   0.00002
  0-1A  -> 24-1A    6.818391   54994.0   181.8   0.259573067   0.09756   0.31118   0.02598  -0.00738
  0-1A  -> 25-1A    6.821995   55023.1   181.7   0.000000216   0.00000   0.00028   0.00005  -0.00001
  0-1A  -> 26-1A    6.896312   55622.5   179.8   0.054861821   0.02086   0.01207  -0.14322   0.01407
  0-1A  -> 27-1A    7.045900   56829.0   176.0   0.000765879   0.00030   0.00087   0.00154   0.01716
  0-1A  -> 28-1A    7.171301   57840.4   172.9   0.091445166   0.03615   0.18939   0.01586  -0.00522
  0-1A  -> 29-1A    7.183245   57936.8   172.6   0.000433918   0.00017   0.00081  -0.01302   0.00132
  0-1A  -> 30-1A    7.201378   58083.0   172.2   0.000002690   0.00000  -0.00083   0.00061  -0.00003

------------------------------------------------------------------------------------------
                     CD SPECTRUM VIA TRANSITION ELECTRIC DIPOLE MOMENTS    
------------------------------------------------------------------------------------------
     Transition      Energy     Energy  Wavelength    R        MX        MY        MZ   
                      (eV)      (cm-1)    (nm)   (1e40*cgs)   (au)      (au)      (au)  
------------------------------------------------------------------------------------------
  0-1A  ->  1-1A    2.054773   16572.9   603.4   -0.00017  -0.00000   0.00000  -0.00002
  0-1A  ->  2-1A    2.261286   18238.5   548.3   -0.00015   0.00000   0.00002   0.00020
  0-1A  ->  3-1A    3.361629   27113.4   368.8   -0.04161   0.00002  -0.00004  -0.00002
  0-1A  ->  4-1A    3.408679   27492.9   363.7    0.09512   0.00005   0.00005   0.00003
  0-1A  ->  5-1A    4.066071   32795.1   304.9    0.00634  -0.01758  -0.10232  -1.03588
  0-1A  ->  6-1A    4.332007   34940.0   286.2   -0.04774  -0.00006   0.00002  -0.00006
  0-1A  ->  7-1A    4.610585   37186.9   268.9    0.00002   0.00018  -0.00112   0.00016
  0-1A  ->  8-1A    4.675113   37707.3   265.2    0.00408   0.00915  -0.10479   0.01003
  0-1A  ->  9-1A    4.682172   37764.3   264.8   -0.00127   0.00015  -0.00030  -0.00002
  0-1A  -> 10-1A    4.711949   38004.4   263.1   -0.00408  -0.00000  -0.00000   0.00013
  0-1A  -> 11-1A    4.886199   39409.9   253.7    0.03381   0.24317  -0.03193  -0.54502
  0-1A  -> 12-1A    4.893069   39465.3   253.4   -0.02279   0.31321   0.06913   0.43475
  0-1A  -> 13-1A    4.917610   39663.2   252.1   -0.02459   0.00045   0.00003  -0.00042
  0-1A  -> 14-1A    5.009166   40401.7   247.5    0.00001  -0.00018   0.00042  -0.00013
  0-1A  -> 15-1A    5.103262   41160.6   243.0    0.02189  -0.00007  -0.00005  -0.00007
  0-1A  -> 16-1A    5.148037   41521.7   240.8   -0.00766   0.00320   0.02027   0.20869
  0-1A  -> 17-1A    5.457032   44013.9   227.2    0.00006   0.00013  -0.00095   0.00022
  0-1A  -> 18-1A    5.483750   44229.4   226.1   -0.00616  -0.00001  -0.00001  -0.00013
  0-1A  -> 19-1A    5.494994   44320.1   225.6    0.00015  -0.00961  -0.06079  -0.61671
  0-1A  -> 20-1A    5.567567   44905.5   222.7   -0.00003  -0.00010   0.00003  -0.00017
  0-1A  -> 21-1A    6.060540   48881.6   204.6   -0.00001  -0.00000  -0.00003  -0.00012
  0-1A  -> 22-1A    6.218306   50154.0   199.4    0.00330  -0.00272  -0.00914  -0.08918
  0-1A  -> 23-1A    6.783081   54709.2   182.8    0.00001  -0.00005   0.00001   0.00016
  0-1A  -> 24-1A    6.818391   54994.0   181.8   -0.02147  -0.00005   0.00005  -0.00024
  0-1A  -> 25-1A    6.821995   55023.1   181.7    0.00087   0.00386   0.02526   0.25689
  0-1A  -> 26-1A    6.896312   55622.5   179.8   -0.00112  -0.00004   0.00001   0.00005
  0-1A  -> 27-1A    7.045900   56829.0   176.0    0.00337   0.00001   0.00003   0.00004
  0-1A  -> 28-1A    7.171301   57840.4   172.9   -0.01226  -0.00004   0.00007  -0.00005
  0-1A  -> 29-1A    7.183245   57936.8   172.6   -0.00026  -0.00002   0.00004   0.00023
  0-1A  -> 30-1A    7.201378   58083.0   172.2   -0.00001   0.00001  -0.00001  -0.00014

------------------------------------------------------------------------------------------
                     CD SPECTRUM VIA TRANSITION VELOCITY DIPOLE MOMENTS    
------------------------------------------------------------------------------------------
     Transition      Energy     Energy  Wavelength    R        MX        MY        MZ   
                      (eV)      (cm-1)    (nm)   (1e40*cgs)   (au)      (au)      (au)  
------------------------------------------------------------------------------------------
  0-1A  ->  1-1A    2.054773   16572.9   603.4   -0.00017  -0.00000   0.00000  -0.00002
  0-1A  ->  2-1A    2.261286   18238.5   548.3   -0.00013   0.00000   0.00002   0.00020
  0-1A  ->  3-1A    3.361629   27113.4   368.8   -0.04135   0.00002  -0.00004  -0.00002
  0-1A  ->  4-1A    3.408679   27492.9   363.7    0.09469   0.00005   0.00005   0.00003
  0-1A  ->  5-1A    4.066071   32795.1   304.9    0.00652  -0.01758  -0.10232  -1.03588
  0-1A  ->  6-1A    4.332007   34940.0   286.2   -0.04773  -0.00006   0.00002  -0.00006
  0-1A  ->  7-1A    4.610585   37186.9   268.9    0.00002   0.00018  -0.00112   0.00016
  0-1A  ->  8-1A    4.675113   37707.3   265.2    0.00403   0.00915  -0.10479   0.01003
  0-1A  ->  9-1A    4.682172   37764.3   264.8   -0.00124   0.00015  -0.00030  -0.00002
  0-1A  -> 10-1A    4.711949   38004.4   263.1   -0.00400  -0.00000  -0.00000   0.00013
  0-1A  -> 11-1A    4.886199   39409.9   253.7    0.03789   0.24317  -0.03193  -0.54502
  0-1A  -> 12-1A    4.893069   39465.3   253.4   -0.02558   0.31321   0.06913   0.43475
  0-1A  -> 13-1A    4.917610   39663.2   252.1   -0.02808   0.00045   0.00003  -0.00042
  0-1A  -> 14-1A    5.009166   40401.7   247.5    0.00001  -0.00018   0.00042  -0.00013
  0-1A  -> 15-1A    5.103262   41160.6   243.0    0.02182  -0.00007  -0.00005  -0.00007
  0-1A  -> 16-1A    5.148037   41521.7   240.8   -0.00688   0.00320   0.02027   0.20869
  0-1A  -> 17-1A    5.457032   44013.9   227.2    0.00006   0.00013  -0.00095   0.00022
  0-1A  -> 18-1A    5.483750   44229.4   226.1   -0.00613  -0.00001  -0.00001  -0.00013
  0-1A  -> 19-1A    5.494994   44320.1   225.6   -0.00082  -0.00961  -0.06079  -0.61671
  0-1A  -> 20-1A    5.567567   44905.5   222.7   -0.00003  -0.00010   0.00003  -0.00017
  0-1A  -> 21-1A    6.060540   48881.6   204.6   -0.00001  -0.00000  -0.00003  -0.00012
  0-1A  -> 22-1A    6.218306   50154.0   199.4    0.00357  -0.00272  -0.00914  -0.08918
  0-1A  -> 23-1A    6.783081   54709.2   182.8    0.00001  -0.00005   0.00001   0.00016
  0-1A  -> 24-1A    6.818391   54994.0   181.8   -0.02141  -0.00005   0.00005  -0.00024
  0-1A  -> 25-1A    6.821995   55023.1   181.7    0.00122   0.00386   0.02526   0.25689
  0-1A  -> 26-1A    6.896312   55622.5   179.8   -0.00111  -0.00004   0.00001   0.00005
  0-1A  -> 27-1A    7.045900   56829.0   176.0    0.00125   0.00001   0.00003   0.00004
  0-1A  -> 28-1A    7.171301   57840.4   172.9   -0.01225  -0.00004   0.00007  -0.00005
  0-1A  -> 29-1A    7.183245   57936.8   172.6   -0.00037  -0.00002   0.00004   0.00023
  0-1A  -> 30-1A    7.201378   58083.0   172.2   -0.00002   0.00001  -0.00001  -0.00014

Total run time:    15487.524 sec

           *** ORCA-CIS/TD-DFT FINISHED WITHOUT ERROR ***
-----------------------
CIS/TD-DFT TOTAL ENERGY
-----------------------

    E(SCF)  =   -989.591044077 Eh
    DE(CIS) =      0.075511538 Eh (Root  1)
    ----------------------------- ---------
    E(tot)  =   -989.515532538 Eh


Maximum memory used throughout the entire CIS-calculation: 2728.9 MB
=> NOW LEAVING ORCA_CIS


-------------------------------------------------------------------------------
                          DFT DISPERSION CORRECTION                            
                                                                               
                              DFTD3 V3.1  Rev 1                                
                              USING zero damping                               
-------------------------------------------------------------------------------
The omegaB97X-D3 functional is recognized. Fit by Chai et al.
Active option DFTDOPT                   ...         3   

molecular C6(AA) [au] = 19469.888519 


            DFT-D V3
 parameters
 s6 scaling factor         :     1.0000 
 rs6 scaling factor        :     1.2810 
 s8 scaling factor         :     1.0000 
 rs8 scaling factor        :     1.0940 
 Damping factor alpha6     :    14.0000 
 Damping factor alpha8     :    16.0000 
 ad hoc parameters k1-k3   :    16.0000     1.3333    -4.0000 

 Edisp/kcal,au: -11.017703951633  -0.017557826984 
 E6   /kcal   :  -5.152446943 
 E8   /kcal   :  -5.865257009 
 % E8         :  53.234839442 

-------------------------   ----------------
Dispersion correction           -0.017557827
-------------------------   ----------------


-------------------------   --------------------
FINAL SINGLE POINT ENERGY      -989.533090365307
-------------------------   --------------------



           ************************************************************
           *        Program running with 4 parallel MPI-processes     *
           *              working on a common directory               *
           ************************************************************

------------------------------------------------------------------------------
                              ORCA PROPERTY CALCULATIONS
------------------------------------------------------------------------------

GBWName                                 ... tddft.gbw
Number of atoms                         ...     38
Number of basis functions               ...    828
Max core memory                         ...   3000 MB

Electric properties:
Dipole moment                           ... YES
Quadrupole moment                       ...  NO
Static polarizability (Dipole/Dipole)   ...  NO
Static polarizability (Dipole/Quad.)    ...  NO
Static polarizability (Quad./Quad.)     ...  NO
Static polarizability (Velocity)        ...  NO
Static hyperpolarizability              ...  NO

Atomic electric properties:
Dipole moment                           ...  NO
Quadrupole moment                       ...  NO
Static polarizability                   ...  NO

Choice of electric origin               ... Center of mass
Position of electric origin             ...    -0.158819     5.090064     6.570961

General magnetic properties:
Magnetizability                         ...  NO

EPR properties:
g-Tensor (aka g-matrix)                 ...  NO
Zero-Field splitting spin-orbit         ...  NO
Zero-field splitting spin-spin          ...  NO
Hyperfine couplings                     ...  NO (   0 nuclei)
Quadrupole couplings                    ...  NO (   0 nuclei)
Contact density                         ...  NO (   0 nuclei)

NMR properties:
Chemical shifts                         ...  NO (   0 nuclei)
Spin-rotation constants                 ...  NO (   0 nuclei)
Spin-spin couplings                     ...  NO (   0 nuclei,    0 pairs)

Choice of magnetic origin               ... GIAO
Position of magnetic origin             ...     0.000000     0.000000     0.000000

Properties with geometric perturbations:
SCF Hessian                             ...  NO
IR spectrum                             ...  NO
VCD spectrum                            ...  NO
X-ray spectroscopy properties:
SCF XES/XAS/RIXS spectra                ...  NO

SCF SOC stabilization energy            ...  NO
Diagonal Born-Oppenheimer correction    ...  NO

-------------
DIPOLE MOMENT
-------------

Method             : SCF
Type of density    : Electron Density
Multiplicity       :   1
Irrep              :   0
Energy             :  -989.5910440765319436 Eh
Basis              : AO
                                X                 Y                 Z
Electronic contribution:     -0.000105157      -0.000001142       0.000427369
Nuclear contribution   :      0.000061902      -0.000054441      -0.000774279
                        -----------------------------------------
Total Dipole Moment    :     -0.000043255      -0.000055582      -0.000346910
                        -----------------------------------------
Magnitude (a.u.)       :      0.000353988
Magnitude (Debye)      :      0.000899765



--------------------
Rotational spectrum 
--------------------
 
Rotational constants in cm-1:             0.008943             0.008871             0.004453 
Rotational constants in MHz :           268.090698           265.941898           133.506036 

Dipole components along the rotational axes: 
x,y,z [a.u.] :    -0.000039    -0.000018    -0.000351 
x,y,z [Debye]:    -0.000099    -0.000046    -0.000893 

 

Dipole moment calculation done in   0.0 sec 

Maximum memory used throughout the entire PROP-calculation: 82.2 MB

--------------------------------
SUGGESTED CITATIONS FOR THIS RUN
--------------------------------

Below you find a list of papers that are relevant to this ORCA run
We neither can nor want to force you to cite these papers, but we appreciate if you do
You receive ORCA, which is the product of decades of hard work by many enthusiastic individuals, for free
The only thing we kindly ask in return is that you cite our papers,
We deeply appreciate it, if you show your appreciation for ORCA by not just citing the generic ORCA reference.

Please note that relegating all ORCA citations to the supporting information does *not* help us.
SI sections are not indexed - citations you put there will not count into any citation statistics
But we need these citations in order to attract the funding resources that allow us to do what we are doing

Therefore, if you are a happy ORCA user, please consider citing a few of the papers listed below in the main body of your paper

In addition to the list printed below, the program has created the file tddft.bibtex that contains the list in bibtex format
You can import this file easily into all common literature databanks and citation aid programs

It goes without saying that in many instances, there are alternative algorithms to achieve similar
results as the ones you have gotten from ORCA. It is, of course, also the case that in some instances
ORCA just re-implements algorithms worked out by others. We are fully aware of that and we are also
fully appreciative of our colleagues work. Hence this citation list should not be read as indicating
that the listed papers, which are focused on our own work, are the only ones worth citing. It simply
meant to make it easier for users to cite ORCA specific papers. It is not a substitute for doing your
own literature research and citing the relevant literature in a scientifically appropriate manner.

List of essential papers. We consider these as the minimum necessary citations

  1. Neese, F.
     Software update: the ORCA program system, version 6.0
     WIRES Comput. Molec. Sci. 2025 15(1), e70019
     doi.org/10.1002/wcms.70019

List of papers to cite with high priority. The work reported in these papers was absolutely
necessary for this run to complete.
Our perspective: the developers of density functionals and basis sets usually get cited in chemistry papers
Good! But without the algorithms to do something with them, the functionals or basis sets would not do anything.
Hence, in our opinion, the algorithm design and method developments papers are equally worthy of getting cited

  1. Neese, F.; Olbrich, G.
     Efficient use of the resolution of the identity approximation in time-dependent density functional calculations with hybrid density functionals
     Chem. Phys. Lett. 2002 362 , 170-178
     doi.org/10.1016/s0009-2614(02)01053-9
  2. Neese, F.
     An improvement of the resolution of the identity approximation for the formation of the Coulomb matrix
     J. Comp. Chem. 2003 24(14), 1740-1747
     doi.org/10.1002/jcc.10318
  3. Neese, F.; Wennmohs, F.; Hansen, A.; Becker, U.
     Efficient, approximate and parallel Hartree-Fock and hybrid DFT calculations. A 'chain-of-spheres' algorithm for the Hartree-Fock exchange
     Chem. Phys. 2009 356(1-3), 98-109
     doi.org/10.1016/j.chemphys.2008.10.036
  4. Grimme, S.; Antony, J.; Ehrlich, S.; Krieg, H.
     A consistent and accurate ab initio parametrization of density functional dispersion correction (DFT-D) for the 94 elements H-Pu
     J. Chem. Phys. 2010 132 , 154104
     doi.org/10.1063/1.3382344
  5. Garcia-Rates, M.; Neese, F.
     Effect of the Solute Cavity on the Solvation Energy and its Derivatives within the Framework of the Gaussian Charge Scheme
     J. Comput. Chem. 2020 41 , 922-939
     doi.org/10.1002/jcc.26139
  6. Helmich-Paris, B.; de Souza, B.; Neese, F.; Izsák, R.
     An improved chain of spheres for exchange algorithm
     J. Chem. Phys. 2021 155(10), 104109
     doi.org/10.1063/5.0058766
  7. Neese, F.
     The SHARK Integral Generation and Digestion System
     J. Comp. Chem. 2022 44(3), 381
     doi.org/10.1002/jcc.26942

List of suggested additional citations. These are papers that are important in the 'surrounding' of 
of this run, or papers that preceded the highly important papers. If you like your results we are grateful for a citation.

  1. Izsak, R.; Neese, F.
     An overlap fitted chain of spheres exchange method
     J. Chem. Phys. 2011 135 , 144105
     doi.org/10.1063/1.3646921
  2. Izsak, R.; Hansen, A.; Neese, F.
     The resolution of identity and chain of spheres approximations for the LPNO-CCSD singles Fock term
     Molec. Phys. 2012 110 , 2413-2417
     doi.org/10.1080/00268976.2012.687466
  3. Neese, F.
     The ORCA program system
     WIRES Comput. Molec. Sci. 2012 2(1), 73-78
     doi.org/10.1002/wcms.81
  4. Izsak, R.; Neese, F.; Klopper, W.
     Robust fitting techniques in the chain of spheres approximation to the Fock exchange: The role of the complementary space
     J. Chem. Phys. 2013 139 , 
     doi.org/10.1063/1.4819264
  5. Neese, F.
     Software update: the ORCA program system, version 4.0
     WIRES Comput. Molec. Sci. 2018 8(1), 1-6
     doi.org/10.1002/wcms.1327
  6. Neese, F.; Wennmohs, F.; Becker, U.; Riplinger, C.
     The ORCA quantum chemistry program package
     J. Chem. Phys. 2020 152(22), 224108
     doi.org/10.1063/5.0004608
  7. Neese, F.
     Software update: The ORCA program system—Version 5.0
     WIRES Comput. Molec. Sci. 2022 12(1), e1606
     doi.org/10.1002/wcms.1606

List of optional additional citations

  1. Neese, F.
     Approximate second-order SCF convergence for spin unrestricted wavefunctions
     Chem. Phys. Lett. 2000 325(1-3), 93-98
     doi.org/10.1016/s0009-2614(00)00662-x

Timings for individual modules:

Sum of individual times          ...    16743.493 sec (= 279.058 min)
Startup calculation              ...       21.687 sec (=   0.361 min)   0.1 %
SCF iterations                   ...     1224.054 sec (=  20.401 min)   7.3 %
Property integrals               ...        9.039 sec (=   0.151 min)   0.1 %
Property calculations            ...        0.584 sec (=   0.010 min)   0.0 %
CIS module                       ...    15488.129 sec (= 258.135 min)  92.5 %
                             ****ORCA TERMINATED NORMALLY****
TOTAL RUN TIME: 0 days 4 hours 39 minutes 3 seconds 971 msec
