
                                 *****************
                                 * O   R   C   A *
                                 *****************

                                            #,                                       
                                            ###                                      
                                            ####                                     
                                            #####                                    
                                            ######                                   
                                           ########,                                 
                                     ,,################,,,,,                         
                               ,,#################################,,                 
                          ,,##########################################,,             
                       ,#########################################, ''#####,          
                    ,#############################################,,   '####,        
                  ,##################################################,,,,####,       
                ,###########''''           ''''###############################       
              ,#####''   ,,,,##########,,,,          '''####'''          '####       
            ,##' ,,,,###########################,,,                        '##       
           ' ,,###''''                  '''############,,,                           
         ,,##''                                '''############,,,,        ,,,,,,###''
      ,#''                                            '''#######################'''  
     '                                                          ''''####''''         
             ,#######,   #######,   ,#######,      ##                                
            ,#'     '#,  ##    ##  ,#'     '#,    #''#        ,####,    ,#,          
            ##       ##  ##   ,#'  ##            #'  '#       #'       ,# #          
            ##       ##  #######   ##           ,######,      #####,      #          
            '#,     ,#'  ##    ##  '#,     ,#' ,#      #,     #,   #      #          
             '#######'   ##     ##  '#######'  #'      '#     '####' #    #          



                #########################################################
                #                        -***-                          #
                #          Department of theory and spectroscopy        #
                #                                                       #
                #                      Frank Neese                      #
                #                                                       #
                #     Directorship, Architecture, Infrastructure        #
                #                    SHARK, DRIVERS                     #
                #        Core code/Algorithms in most modules           #
                #                                                       #
                #        Max Planck Institute fuer Kohlenforschung      #
                #                Kaiser Wilhelm Platz 1                 #
                #                 D-45470 Muelheim/Ruhr                 #
                #                      Germany                          #
                #                                                       #
                #                  All rights reserved                  #
                #                        -***-                          #
                #########################################################


                         Program Version 6.1.1  -  RELEASE   -
                                (GIT: $487d211c$)
                          ($2025-11-21 10:33:24 +0100$)


 With contributions from (in alphabetic order):
[Max-Planck-Institut fuer Kohlenforschung]                               
  Daniel Aravena         : Magnetic Suceptibility                        
  Michael Atanasov       : Ab Initio Ligand Field Theory (pilot matlab implementation)
  Alexander A. Auer      : GIAO ZORA, VPT2 properties, NMR spectrum      
  Ute Becker             : All parallelization in ORCA, NUMFREQ, NUMCALC 
  Giovanni Bistoni       : ED, misc. LED, open-shell LED, HFLD           
  Dmytro Bykov           : pre 5.0 version of the SCF Hessian            
  Marcos Casanova-Páez   : Triplet and SCS-CIS(D). UHF-(DLPNO)-IP/EA/STEOM-CCSD. UHF-CVS-IP/STEOM-CCSD   
  Vijay G. Chilkuri      : MRCI spin determinant printing, contributions to CSF-ICE 
  Pauline Colinet        : FMM embedding                                 
  Dipayan Datta          : RHF DLPNO-CCSD density                        
  Achintya Kumar Dutta   : EOM-CC, STEOM-CC                              
  Nicolas Foglia         : Exact transition moments, OPA infrastructure, MCD improvements    
  Dmitry Ganyushin       : Spin-Orbit,Spin-Spin,Magnetic field MRCI      
  Miquel Garcia-Rates    : C-PCM and meta-GGA Hessian, CCSD/C-PCM, Gaussian charge scheme 
  Tiago L. C. Gouveia    : GS-ROHF, GS-ROCIS                             
  Yang Guo               : DLPNO-NEVPT2, F12-NEVPT2, CIM, IAO-localization        
  Andreas Hansen         : Spin unrestricted coupled pair/coupled cluster methods 
  Ingolf Harden          : AUTO-CI MPn and infrastructure                
  Benjamin Helmich-Paris : MC-RPA, TRAH-(SCF,CASSCF), AVAS, COSX integrals, SCF dyn. polar., MC-PDFT, srDFT 
  Lee Huntington         : MR-EOM, pCC                                   
  Robert Izsak           : Overlap fitted RIJCOSX, COSX-SCS-MP3, EOM     
  Riya Kayal             : Wick's Theorem for AUTO-CI, AUTO-CI UHF-CCSDT 
  Emily Kempfer          : AUTO-CI RHF CISDT and CCSDT, approximate NEVPT4
  Christian Kollmar      : KDIIS, OOCD, Brueckner-CCSD(T), CCSD density, CASPT2, CASPT2-K, improved NEVPT2 
  Axel Koslowski         : Symmetry handling                             
  Simone Kossmann        : meta-GGA functionals, TD-DFT gradient, OOMP2, (MP2 Hessian; deprecated post 5.0) 
  Lucas Lang             : DCDCAS, Hyperfine gauge corrections, ICE-SOC+SSC
  Marvin Lechner         : AUTO-CI (C++ implementation), FIC-MRCC        
  Spencer Leger          : CASSCF response                               
  Dagmar Lenk            : GEPOL surface, SMD, ORCA-2-JSON               
  Dimitrios Liakos       : Extrapolation schemes; Compound Job, Property file
  Dimitrios Manganas     : Further ROCIS development; embedding schemes. LFT, Crystal Embedding 
  Dimitrios Pantazis     : SARC Basis sets                               
  Anastasios Papadopoulos: AUTO-CI, single reference methods and gradients 
  Taras Petrenko         : pre 6.0 DFT Hessian and TD-DFT gradient,  ECA, NRVS 
  Petra Pikulova         : Analytic Raman intensities                    
  Peter Pinski           : DLPNO-MP2, DLPNO-MP2 Gradient                 
  Shashank Vittal Rao    : ES-AILFT, MagRelax                            
  Christoph Reimann      : Effective Core Potentials                     
  Marius Retegan         : Local ZFS, SOC                                
  Christoph Riplinger    : Optimizer, TS searches, QM/MM, DLPNO-CCSD(T), (RO)-DLPNO pert. Triples 
  Michael Roemelt        : Original ROCIS implementation, recursive CI coupling coefficients
  Masaaki Saitow         : Open-shell DLPNO-CCSD energy and density      
  Barbara Sandhoefer     : DKH picture change effects                    
  Yorick L. A. Schmerwitz: GMF and freeze-and-release deltaSCF, NEB S-IDPP initial path                    
  Kantharuban Sivalingam : CASSCF convergence/infrastructure, NEVPT2, NEVPT3, NEVPT4(SD), FIC-MRCI and CEPA variants
  Bernardo de Souza      : ESD, SOC TD-DFT                               
  Georgi L. Stoychev     : AutoAux, RI-MP2 NMR, DLPNO-MP2 response, X2C  
  Van Anh Tran           : RI-MP2 g-tensors                              
  Willem Van den Heuvel  : Paramagnetic NMR                              
  Zikuan Wang            : NOTCH, Electric field optimization            
  Frank Wennmohs         : Technical directorship and infrastructure     
  Hang Xu                : AUTO-CI-Response properties                   
                                                                         
[FACCTs GmbH]                                                            
  Markus Bursch, Nicolas Foglia, Miquel Garcia-Rates, Ingolf Harden, Hagen Neugebauer, Anastasios Papadopoulos, 
  Christoph Riplinger, Bernardo de Souza, Georgi L. Stoychev                                                    
                                                                 
  APM, various basis sets, CI-OPT, improved COSX, DLPNO-Multilevel,           
  DOCKER, DRACO, updates on ESD, Fragmentator, GOAT, IRC, LR-CPCM, L-BFGS, MBIS, meta-GGA TD-DFT gradient, ML-optimized integration grids, 
  MM, NACMEs, nearIR, NEB, NEB-TS, NL-DFT gradient (VV10), 2- and 3-layer-ONIOM, interface openCOSMO-RS, QMMM,   
  Crystal-QMMM, RESP, rigid body optimization, SF, symmetry and pop. for TD-DFT, various functionals, SOLVATOR                                   
                                                                         
[Other institutions]                                                     
  V. Asgeirsson          : NEB                                           
  Christoph Bannwarth    : sTDA-DFT, sTD-DFT, PBEh-3c, B97-3c, D3        
  Giovanni Bistoni       : ETS/NOCV, ADLD/ADEX, COVALED                  
  Martin Brehm           : Molecular dynamics                            
  Ronald Cardenas        : ETS/NOCV                                      
  Martina Colucci        : COVALED                                       
  Sebastian Ehlert       : rSCAN, r2SCAN, r2SCAN-3c, D4, dhf basis sets  
  Marvin Friede          : D4 for Fr, Ra, Ac-Lr                          
  Lars Goerigk           : TD-DFT with DH, B97 family of functionals     
  Stefan Grimme          : VdW corrections, initial TS optimization, DFT functionals, gCP, sTDA/sTD-DF 
  Waldemar Hujo          : DFT-NL                                        
  H. Jonsson             : NEB                                           
  Holger Kruse           : gCP                                           
  Marcel Mueller         : wB97X-3c, vDZP basis set                      
  Hagen Neugebauer       : wr2SCAN, Native XTB                           
  Gianluca Regni         : ADLD/ADEX                                     
  Tobias Risthaus        : pre 6.0 range-separated hybrid DFT and stability analysis
  Lukas Wittmann         : regularized MP2, r2SCAN double-hybrids, wr2SCAN        
                                                                         
We gratefully acknowledge several colleagues who have allowed us to      
interface, adapt or use parts of their codes:                            
  Ed Valeev, F. Pavosevic, A. Kumar             : LibInt (2-el integral package), F12 methods 
  Garnet Chan, S. Sharma, J. Yang, R. Olivares  : DMRG                   
  Ulf Ekstrom                                   : XCFun DFT Library      
  Mihaly Kallay                                 : mrcc  (arbitrary order and MRCC methods)
  Frank Weinhold                                : gennbo (NPA and NBO analysis)           
  Simon Mueller                                 : openCOSMO-RS                            
  Christopher J. Cramer and Donald G. Truhlar   : smd solvation model                     
  S Lehtola, MJT Oliveira, MAL Marques          : LibXC Library                           
  Liviu Ungur et al                             : ANISO software                          


 Your calculation uses the libint2 library for the computation of 2-el integrals
 For citations please refer to: http://libint.valeyev.net

 Your ORCA version has been built with support for libXC version: 7.0.0
 For citations please refer to: https://libxc.gitlab.io

 This ORCA versions uses:
   CBLAS   interface :  Fast vector & matrix operations
   LAPACKE interface :  Fast linear algebra routines
   SCALAPACK package :  Parallel linear algebra routines
   Shared memory     :  Shared parallel matrices
   BLAS/LAPACK       :  OpenBLAS 0.3.29  USE64BITINT DYNAMIC_ARCH NO_AFFINITY Haswell SINGLE_THREADED
        Core in use  :  Haswell
   Copyright (c) 2011-2014, The OpenBLAS Project


  ***********************************
  * Starting time: Sat Jul  4 18:05:06 2026
  * Host name:     steezy
  * Process ID:    1141159
  * Working dir.:  /home/jannes/chlorophyll-ladder/006-core-ladder/porphin/03_tddft_ch2cl2/camb3lyp
  ***********************************

NOTE: MaxCore=3000 MB was set to SCF,MP2,MDCI,CIPSI,MRCI,RASCI and CIS
      => If you want to overwrite this, your respective input block should be placed after the MaxCore statement


***************************************
The coordinates will be read from file: /home/jannes/chlorophyll-ladder/006-core-ladder/porphin/01_opt/porphin_opt_b3lypd4_tzvp.xyz
***************************************


XCFun DFT library Copyright 2009-2010 Ulf Ekstrom and contributors.
See http://admol.org/xcfun for more information.
This is free software; see the source code for copying conditions.
There is ABSOLUTELY NO WARRANTY; not even for MERCHANTABILITY or FITNESS FOR A PARTICULAR PURPOSE.
For details see the documentation.
Scientific users of this library should cite U. Ekstrom, L. Visscher, R. Bast, A. J. Thorvaldsen and K. Ruud;
J.Chem.Theor.Comp. 2010, DOI: 10.1021/ct100117s
XCFun Version 0.99 

================================================================================

----- Orbital basis set information -----
Your calculation utilizes the basis: def2-TZVP
   F. Weigend and R. Ahlrichs, Phys. Chem. Chem. Phys. 7, 3297 (2005).

----- AuxJ basis set information -----
Your calculation utilizes the auxiliary basis: def2/J
   H-Rn: F. Weigend, Phys. Chem. Chem. Phys. 8, 1057 (2006).
   Fr-Lr: K. Eichkorn, F. Weigend, O. Treutler, R. Ahlrichs; Theor. Chem. Acc. 97, 119 (1997).

================================================================================
                                        WARNINGS
                       Please study these warnings very carefully!
================================================================================

WARNING: Old DensityContainer found on disk!
         Will remove this file - 
         If you want to keep old densities, please start your calculation with a different basename. 


WARNING: CIS/ROCIS methods need fully converged wavefunctions
  ===> : Setting SCFConvForced true
         You can overwrite this default with %scf ConvForced false 


================================================================================
                                       INPUT FILE
================================================================================
NAME = tddft.inp
|  1> %pal nprocs 4 end
|  2> %maxcore 3000
|  3> ! CAM-B3LYP def2-TZVP def2/J RIJCOSX DefGrid3 TightSCF CPCM(CH2Cl2)
|  4> %tddft
|  5>   nroots 30
|  6>   tda false
|  7>   triplets false
|  8> end
|  9> * xyzfile 0 1 /home/jannes/chlorophyll-ladder/006-core-ladder/porphin/01_opt/porphin_opt_b3lypd4_tzvp.xyz
| 10> 
| 11>                          ****END OF INPUT****
================================================================================

                       ****************************
                       * Single Point Calculation *
                       ****************************

---------------------------------
CARTESIAN COORDINATES (ANGSTROEM)
---------------------------------
  N     -2.180891    2.518466    3.532389
  H      1.690443   -2.236382    3.933896
  C     -4.367841    3.017687    3.515126
  C     -0.395315   -1.565610    3.903357
  N      0.088551    0.689208    3.671590
  C      0.950736   -1.453154    3.869075
  H     -0.990663   -2.460360    4.002368
  C      2.882772    1.818374    3.512765
  N     -0.256644    4.697916    3.282877
  C     -1.118820    6.840288    3.085562
  C      2.527769    0.484722    3.650265
  C      2.690769    4.048684    3.296192
  N      2.012819    2.868614    3.422204
  C      4.083084    3.724839    3.307617
  C     -0.919803   -0.214146    3.778525
  C      1.236865   -0.033970    3.723482
  C     -2.858871    1.338374    3.658064
  H     -1.173514    2.603115    3.511443
  H      1.005441    2.783922    3.442823
  C     -3.050836    3.568698    3.441639
  C     -4.251194    1.662224    3.646465
  C     -2.280939    0.082808    3.772232
  C     -2.695851    4.902359    3.304255
  C      4.199763    2.369381    3.439069
  C     -1.404950    5.421089    3.231097
  C      0.227221    6.952725    3.051110
  C      2.112836    5.304259    3.182028
  C      0.751725    5.601268    3.175906
  H     -5.273861    3.600151    3.470570
  H     -5.044736    0.937212    3.728720
  H     -2.966724   -0.749445    3.865261
  H      3.346095   -0.221478    3.707096
  H      5.105812    1.786953    3.483475
  H      4.876640    4.449816    3.225158
  H      2.798652    6.136469    3.088803
  H      0.822550    7.847490    2.952095
  H     -3.514168    5.608569    3.247399
  H     -1.858503    7.623554    3.020905

----------------------------
CARTESIAN COORDINATES (A.U.)
----------------------------
  NO LB      ZA    FRAG     MASS         X           Y           Z
   0 N     7.0000    0    14.007   -4.121286    4.759210    6.675248
   1 H     1.0000    0     1.008    3.194474   -4.226150    7.433986
   2 C     6.0000    0    12.011   -8.254023    5.702602    6.642626
   3 C     6.0000    0    12.011   -0.747036   -2.958575    7.376276
   4 N     7.0000    0    14.007    0.167337    1.302415    6.938300
   5 C     6.0000    0    12.011    1.796630   -2.746063    7.311492
   6 H     1.0000    0     1.008   -1.872083   -4.649406    7.563380
   7 C     6.0000    0    12.011    5.447650    3.436230    6.638163
   8 N     7.0000    0    14.007   -0.484987    8.877775    6.203739
   9 C     6.0000    0    12.011   -2.114264   12.926270    5.830868
  10 C     6.0000    0    12.011    4.776792    0.915991    6.898001
  11 C     6.0000    0    12.011    5.084817    7.650904    6.228900
  12 N     7.0000    0    14.007    3.803677    5.420894    6.467028
  13 C     6.0000    0    12.011    7.715910    7.038925    6.250490
  14 C     6.0000    0    12.011   -1.738176   -0.404677    7.140378
  15 C     6.0000    0    12.011    2.337336   -0.064195    7.036362
  16 C     6.0000    0    12.011   -5.402483    2.529161    6.912740
  17 H     1.0000    0     1.008   -2.217620    4.919174    6.635666
  18 H     1.0000    0     1.008    1.900007    5.260849    6.505992
  19 C     6.0000    0    12.011   -5.765244    6.743862    6.503755
  20 C     6.0000    0    12.011   -8.033592    3.141148    6.890820
  21 C     6.0000    0    12.011   -4.310349    0.156485    7.128485
  22 C     6.0000    0    12.011   -5.094419    9.264115    6.244138
  23 C     6.0000    0    12.011    7.936402    4.477482    6.498898
  24 C     6.0000    0    12.011   -2.654970   10.244374    6.105888
  25 C     6.0000    0    12.011    0.429385   13.138747    5.765762
  26 C     6.0000    0    12.011    3.992682   10.023597    6.013161
  27 C     6.0000    0    12.011    1.420554   10.584862    6.001593
  28 H     1.0000    0     1.008   -9.966153    6.803300    6.558426
  29 H     1.0000    0     1.008   -9.533170    1.771074    7.046259
  30 H     1.0000    0     1.008   -5.606296   -1.416247    7.304285
  31 H     1.0000    0     1.008    6.323203   -0.418534    7.005396
  32 H     1.0000    0     1.008    9.648586    3.376852    6.582814
  33 H     1.0000    0     1.008    9.215514    8.408934    6.094665
  34 H     1.0000    0     1.008    5.288685   11.596245    5.836991
  35 H     1.0000    0     1.008    1.554393   14.829606    5.578651
  36 H     1.0000    0     1.008   -6.640815   10.598659    6.136694
  37 H     1.0000    0     1.008   -3.512061   14.406429    5.708684

--------------------------------
INTERNAL COORDINATES (ANGSTROEM)
--------------------------------
 N      0   0   0     0.000000000000     0.00000000     0.00000000
 H      1   0   0     6.144673229395     0.00000000     0.00000000
 C      1   2   0     2.243272391530   141.89876199     0.00000000
 C      2   1   3     2.191175978699    33.12144035   359.78196922
 N      4   2   1     2.317768042295    95.76702730     0.05041047
 C      2   1   3     1.079266249219     4.21370891     0.07915914
 H      4   2   1     1.079268154455   105.66535074   180.05560002
 C      5   4   2     3.017932326686   124.23173975   359.97265948
 N      1   2   6     2.918045108678    99.67616098   180.35207023
 C      9   1   2     2.317765511693   116.89442777   179.97808325
 C      8   5   4     1.386925732322    52.98756772     0.03785122
 C      8   5   4     2.249010893586   107.28141435   180.03816109
 N      8   5   4     1.366756111009    72.64238625   179.95789291
 C     12   8   5     1.429526220242    72.02656814   179.86646412
 C      5   4   2     1.358035743233    35.90327310   180.00368341
 C      5   4   2     1.358052178109    69.79697305     0.00000000
 C      1   2   6     1.366772292242    68.80094450     0.21857691
 H      1   2   6     1.011143908013    55.83702380   179.99401983
 H     13   8   5     1.011142399064   124.64063398   359.69569907
 C      1   2   6     1.366758138321   179.51311626   348.83759675
 C      3   1   2     1.366797559489    72.26372871     0.13506297
 C     17   1   2     1.386897788060   125.62778630     0.05508444
 C     20   1  18     1.386917453648   125.63133011     0.18593759
 C     14  12   8     1.366806197569   107.97320808     0.00000000
 C      9   1   2     1.358037856131    80.99028717   179.97367567
 C     10   9   1     1.351168367092    73.05307946   179.99423387
 C     12   8   5     1.386906342426   160.26769765   359.97153859
 C      9   1   2     1.358047941200   173.30861488   359.93543063
 H      3   1   2     1.078017863511   160.03617534   180.21836084
 H     21   3   1     1.078015481635   127.69627650   180.02779321
 H     22  17   1     1.082405877126   116.04909900   179.92532307
 H     11   8   5     1.082407332853   116.04421957   180.06654092
 H     24  14  12     1.078015962244   127.69819998   180.03058896
 H     14  12   8     1.078017967300   124.33296377   180.03202002
 H     27  12   8     1.082407600124   116.04702151   179.99456629
 H     26  10   9     1.079269782346   128.37740192   179.99605738
 H     23  20   1     1.082408536204   116.04576671   180.03676831
 H     10   9   1     1.079266886998   158.56973537     0.00000000

---------------------------
INTERNAL COORDINATES (A.U.)
---------------------------
 N      0   0   0     0.000000000000     0.00000000     0.00000000
 H      1   0   0    11.611749585994     0.00000000     0.00000000
 C      1   2   0     4.239170463779   141.89876199     0.00000000
 C      2   1   3     4.140722510968    33.12144035   359.78196922
 N      4   2   1     4.379946841893    95.76702730     0.05041047
 C      2   1   3     2.039517636609     4.21370891     0.07915914
 H      4   2   1     2.039521236983   105.66535074   180.05560002
 C      5   4   2     5.703065588145   124.23173975   359.97265948
 N      1   2   6     5.514306101830    99.67616098   180.35207023
 C      9   1   2     4.379942059747   116.89442777   179.97808325
 C      8   5   4     2.620909802176    52.98756772     0.03785122
 C      8   5   4     4.250014661082   107.28141435   180.03816109
 N      8   5   4     2.582794741670    72.64238625   179.95789291
 C     12   8   5     2.701413057517    72.02656814   179.86646412
 C      5   4   2     2.566315634787    35.90327310   180.00368341
 C      5   4   2     2.566346692200    69.79697305     0.00000000
 C      1   2   6     2.582825319768    68.80094450     0.21857691
 H      1   2   6     1.910785068128    55.83702380   179.99401983
 H     13   8   5     1.910782216628   124.64063398   359.69569907
 C      1   2   6     2.582798572734   179.51311626   348.83759675
 C      3   1   2     2.582873067947    72.26372871     0.13506297
 C     17   1   2     2.620856995174   125.62778630     0.05508444
 C     20   1  18     2.620894157749   125.63133011     0.18593759
 C     14  12   8     2.582889391552   107.97320808     0.00000000
 C      9   1   2     2.566319627585    80.99028717   179.97367567
 C     10   9   1     2.553338174621    73.05307946   179.99423387
 C     12   8   5     2.620873160584   160.26769765   359.97153859
 C      9   1   2     2.566338685603   173.30861488   359.93543063
 H      3   1   2     2.037158529510   160.03617534   180.21836084
 H     21   3   1     2.037154028418   127.69627650   180.02779321
 H     22  17   1     2.045450673515   116.04909900   179.92532307
 H     11   8   5     2.045453424440   116.04421957   180.06654092
 H     24  14  12     2.037154936637   127.69819998   180.03058896
 H     14  12   8     2.037158725644   124.33296377   180.03202002
 H     27  12   8     2.045453929509   116.04702151   179.99456629
 H     26  10   9     2.039524313251   128.37740192   179.99605738
 H     23  20   1     2.045455698445   116.04576671   180.03676831
 H     10   9   1     2.039518841837   158.56973537     0.00000000

---------------------
BASIS SET INFORMATION
---------------------
There are 3 groups of distinct atoms

 Group   1 Type N   : 11s6p2d1f contracted to 5s3p2d1f pattern {62111/411/11/1}
 Group   2 Type H   : 5s1p contracted to 3s1p pattern {311/1}
 Group   3 Type C   : 11s6p2d1f contracted to 5s3p2d1f pattern {62111/411/11/1}

Atom   0N    basis set group =>   1
Atom   1H    basis set group =>   2
Atom   2C    basis set group =>   3
Atom   3C    basis set group =>   3
Atom   4N    basis set group =>   1
Atom   5C    basis set group =>   3
Atom   6H    basis set group =>   2
Atom   7C    basis set group =>   3
Atom   8N    basis set group =>   1
Atom   9C    basis set group =>   3
Atom  10C    basis set group =>   3
Atom  11C    basis set group =>   3
Atom  12N    basis set group =>   1
Atom  13C    basis set group =>   3
Atom  14C    basis set group =>   3
Atom  15C    basis set group =>   3
Atom  16C    basis set group =>   3
Atom  17H    basis set group =>   2
Atom  18H    basis set group =>   2
Atom  19C    basis set group =>   3
Atom  20C    basis set group =>   3
Atom  21C    basis set group =>   3
Atom  22C    basis set group =>   3
Atom  23C    basis set group =>   3
Atom  24C    basis set group =>   3
Atom  25C    basis set group =>   3
Atom  26C    basis set group =>   3
Atom  27C    basis set group =>   3
Atom  28H    basis set group =>   2
Atom  29H    basis set group =>   2
Atom  30H    basis set group =>   2
Atom  31H    basis set group =>   2
Atom  32H    basis set group =>   2
Atom  33H    basis set group =>   2
Atom  34H    basis set group =>   2
Atom  35H    basis set group =>   2
Atom  36H    basis set group =>   2
Atom  37H    basis set group =>   2
---------------------------------
AUXILIARY/J BASIS SET INFORMATION
---------------------------------
There are 3 groups of distinct atoms

 Group   1 Type N   : 12s5p4d2f1g contracted to 6s4p3d1f1g pattern {711111/2111/211/2/1}
 Group   2 Type H   : 5s2p1d contracted to 3s1p1d pattern {311/2/1}
 Group   3 Type C   : 12s5p4d2f1g contracted to 6s4p3d1f1g pattern {711111/2111/211/2/1}

Atom   0N    basis set group =>   1
Atom   1H    basis set group =>   2
Atom   2C    basis set group =>   3
Atom   3C    basis set group =>   3
Atom   4N    basis set group =>   1
Atom   5C    basis set group =>   3
Atom   6H    basis set group =>   2
Atom   7C    basis set group =>   3
Atom   8N    basis set group =>   1
Atom   9C    basis set group =>   3
Atom  10C    basis set group =>   3
Atom  11C    basis set group =>   3
Atom  12N    basis set group =>   1
Atom  13C    basis set group =>   3
Atom  14C    basis set group =>   3
Atom  15C    basis set group =>   3
Atom  16C    basis set group =>   3
Atom  17H    basis set group =>   2
Atom  18H    basis set group =>   2
Atom  19C    basis set group =>   3
Atom  20C    basis set group =>   3
Atom  21C    basis set group =>   3
Atom  22C    basis set group =>   3
Atom  23C    basis set group =>   3
Atom  24C    basis set group =>   3
Atom  25C    basis set group =>   3
Atom  26C    basis set group =>   3
Atom  27C    basis set group =>   3
Atom  28H    basis set group =>   2
Atom  29H    basis set group =>   2
Atom  30H    basis set group =>   2
Atom  31H    basis set group =>   2
Atom  32H    basis set group =>   2
Atom  33H    basis set group =>   2
Atom  34H    basis set group =>   2
Atom  35H    basis set group =>   2
Atom  36H    basis set group =>   2
Atom  37H    basis set group =>   2

Checking for AutoStart:
The File: tddft.gbw exists
Trying to determine its content:
     ... Fine, the file contains calculation information
     ... Fine, the calculation information was read
     ... Fine, the file contains a basis set
     ... Fine, the basis set was read
     ... Fine, the file contains a geometry
     ... Fine, the geometry was read
     ... Fine, the file contains a set of orbitals
     ... Fine, the orbitals can be read
     => possible old guess file was deleted
     => GBW file was renamed to GES file
     => GES file is set as startup file
     => Guess is set to MORead
     ... now leaving AutoStart



           ************************************************************
           *        Program running with 4 parallel MPI-processes     *
           *              working on a common directory               *
           ************************************************************
------------------------------------------------------------------------------
                             ORCA STARTUP CALCULATIONS
                           -- RI-GTO INTEGRALS CHOSEN --
------------------------------------------------------------------------------
------------------------------------------------------------------------------
                   ___                                                        
                  /   \      - P O W E R E D   B Y -                         
                 /     \                                                     
                 |  |  |   _    _      __       _____    __    __             
                 |  |  |  | |  | |    /  \     |  _  \  |  |  /  |          
                  \  \/   | |  | |   /    \    | | | |  |  | /  /          
                 / \  \   | |__| |  /  /\  \   | |_| |  |  |/  /          
                |  |  |   |  __  | /  /__\  \  |    /   |      \           
                |  |  |   | |  | | |   __   |  |    \   |  |\   \          
                \     /   | |  | | |  |  |  |  | |\  \  |  | \   \       
                 \___/    |_|  |_| |__|  |__|  |_| \__\ |__|  \__/        
                                                                              
                      - O R C A' S   B I G   F R I E N D -                    
                                      &                                       
                       - I N T E G R A L  F E E D E R -                       
                                                                              
 v1 FN, 2020, v2 2021, v3 2022-2024                                           
------------------------------------------------------------------------------


----------------------
SHARK INTEGRAL PACKAGE
----------------------

Number of atoms                             ...     38
Number of basis functions                   ...    828
Number of shells                            ...    320
Maximum angular momentum                    ...      3
Integral batch strategy                     ... SHARK/LIBINT Hybrid
RI-J (if used) integral strategy            ... SPLIT-RIJ (Revised 2003 algorithm where possible)
Printlevel                                  ...      1
Contraction scheme used                     ... SEGMENTED contraction
Prescreening option                         ... SCHWARTZ
   Thresh                                   ... 2.500e-11
   Tcut                                     ... 2.500e-12
   Tpresel                                  ... 2.500e-12 
Coulomb Range Separation                    ... NOT USED
Exchange Range Separation                   ... Long Range
   Mu parameter                             ... 3.300e-01
   Scaling (regular/separated)              ... 1.900e-01 4.600e-01
Robust (split-)RI terms used:
  metric    (central integrals)             ... YES
  density   (r.h.s.  integrals)             ... YES
  potential (l.h.s.  integrals)             ... YES
Multipole approximations                    ... NOT USED
Finite Nucleus Model                        ... NOT USED
CABS basis                                  ... NOT available
Auxiliary Coulomb fitting basis             ... AVAILABLE
   # of basis functions in Aux-J            ...   1330
   # of shells in Aux-J                     ...    430
   Maximum angular momentum in Aux-J        ...      4
Auxiliary J/K fitting basis                 ... NOT available
Auxiliary Correlation fitting basis         ... NOT available
Auxiliary 'external' fitting basis          ... NOT available

Checking pre-screening integrals            ... done (  0.0 sec) Dimension = 320
   => SHARK Basis and OBASIS are compatible. Storing Pre-screening
Shell pair information
Shell pair cut-off parameter TPreSel        ...   2.5e-12
Total number of shell pairs                 ...     51360
Shell pairs after pre-screening             ...     36355
Total number of primitive shell pairs       ...    159900
Primitive shell pairs kept                  ...     74234
          la=0 lb=0:   8928 shell pairs
          la=1 lb=0:  10386 shell pairs
          la=1 lb=1:   3015 shell pairs
          la=2 lb=0:   5224 shell pairs
          la=2 lb=1:   3148 shell pairs
          la=2 lb=2:    850 shell pairs
          la=3 lb=0:   2422 shell pairs
          la=3 lb=1:   1488 shell pairs
          la=3 lb=2:    724 shell pairs
          la=3 lb=3:    170 shell pairs

Checking whether 4 symmetric matrices of dimension 828 fit in memory
:Max Core in MB      =   3000.00
 MB in use           =     47.55
 MB left             =   2952.45
 MB needed           =     10.47
 Data fit in memory  = YES
Calculating RI/J V-Matrix + Cholesky decomp.... done (  0.2 sec)
Calculating Nuclear repulsion               ... done (  0.0 sec) ENN=   1861.115687571553 Eh

Diagonalization of the overlap matrix:
Smallest eigenvalue                        ... 1.003e-05
Time for diagonalization                   ...    0.236 sec
Threshold for overlap eigenvalues          ... 1.000e-07
Number of eigenvalues below threshold      ... 0
Time for construction of square roots      ...    0.153 sec
Total time needed                          ...    0.398 sec

-------------------
DFT GRID GENERATION
-------------------

General Integration Accuracy     IntAcc      ... 4.959
Radial Grid Type                 RadialGrid  ... OptM3 with GC (2021)
Angular Grid (max. ang.)         AngularGrid ... 6 (Lebedev-590)
Angular grid pruning method      GridPruning ... 4 (adaptive)
Weight generation scheme         WeightScheme... mBecke (2022)
Basis function cutoff            BFCut       ... 1.0000e-11
Integration weight cutoff        WCut        ... 1.0000e-14
Partially contracted basis set               ... off
Rotationally invariant grid construction     ... off
Angular grids for H and He will be reduced by one unit

Total number of grid points                  ...   459056
Total number of batches                      ...     7194
Average number of points per batch           ...       63
Average number of grid points per atom       ...    12080

--------------------
COSX GRID GENERATION
--------------------

GRIDX 1
-------
General Integration Accuracy     IntAcc      ... 4.020
Radial Grid Type                 RadialGrid  ... OptM3 with GC (2021)
Angular Grid (max. ang.)         AngularGrid ... 2 (Lebedev-110)
Angular grid pruning method      GridPruning ... 4 (adaptive)
Weight generation scheme         WeightScheme... mBecke (2022)
Basis function cutoff            BFCut       ... 1.0000e-11
Integration weight cutoff        WCut        ... 1.0000e-14
Partially contracted basis set               ... on
Rotationally invariant grid construction     ... off
Angular grids for H and He will be reduced by one unit

Total number of grid points                  ...    52427
Total number of batches                      ...      430
Average number of points per batch           ...      121
Average number of grid points per atom       ...     1380
UseSFitting                                  ... on

GRIDX 2
-------
General Integration Accuracy     IntAcc      ... 4.338
Radial Grid Type                 RadialGrid  ... OptM3 with GC (2021)
Angular Grid (max. ang.)         AngularGrid ... 3 (Lebedev-194)
Angular grid pruning method      GridPruning ... 4 (adaptive)
Weight generation scheme         WeightScheme... mBecke (2022)
Basis function cutoff            BFCut       ... 1.0000e-11
Integration weight cutoff        WCut        ... 1.0000e-14
Partially contracted basis set               ... on
Rotationally invariant grid construction     ... off
Angular grids for H and He will be reduced by one unit

Total number of grid points                  ...   114991
Total number of batches                      ...      922
Average number of points per batch           ...      124
Average number of grid points per atom       ...     3026
UseSFitting                                  ... on

GRIDX 3
-------
General Integration Accuracy     IntAcc      ... 4.871
Radial Grid Type                 RadialGrid  ... OptM3 with GC (2021)
Angular Grid (max. ang.)         AngularGrid ... 4 (Lebedev-302)
Angular grid pruning method      GridPruning ... 4 (adaptive)
Weight generation scheme         WeightScheme... mBecke (2022)
Basis function cutoff            BFCut       ... 1.0000e-11
Integration weight cutoff        WCut        ... 1.0000e-14
Partially contracted basis set               ... on
Rotationally invariant grid construction     ... off
Angular grids for H and He will be reduced by one unit

Total number of grid points                  ...   212358
Total number of batches                      ...     1680
Average number of points per batch           ...      126
Average number of grid points per atom       ...     5588
UseSFitting                                  ... on
Grids setup in  17.5 sec
Initializing property integral containers    ... done (  0.0 sec)

SHARK setup successfully completed in  19.1 seconds

Maximum memory used throughout the entire STARTUP-calculation: 144.4 MB


           ************************************************************
           *        Program running with 4 parallel MPI-processes     *
           *              working on a common directory               *
           ************************************************************
-------------------------------------------------------------------------------
                                 ORCA GUESS
                   Start orbitals & Density for SCF / CASSCF
-------------------------------------------------------------------------------

------------
SCF SETTINGS
------------
Hamiltonian:
 Density Functional     Method          .... DFT(GTOs)
 Exchange Functional    Exchange        .... WB88
 Correlation Functional Correlation     .... LYP
 LDA part of GGA corr.  LDAOpt          .... VWN-5
 Gradients option       PostSCFGGA      .... off
 Hybrid DFT is turned on
   Fraction HF Exchange ScalHFX         ....  0.190000
   Scaling of DF-GGA-X  ScalDFX         ....  0.350000
   Scaling of DF-GGA-C  ScalDFC         ....  0.810000
   Scaling of DF-LDA-C  ScalLDAC        ....  1.000000
   Perturbative correction              ....  0.000000
 Long-range corrected/Screened/Range-Separated Hybrid DFT is turned on
   Amount of maximum screened exact exchange              ....  0.460000
   Range separation parameter mu (erf(mu*r12)/r12)        ....  0.330000
 RI-approximation to the Coulomb term is turned on
   Number of AuxJ basis functions       .... 1330
   RIJ-COSX (HFX calculated with COS-X)).... on


General Settings:
 Integral files         IntName         .... tddft
 Hartree-Fock type      HFTyp           .... RHF
 Total Charge           Charge          ....    0
 Multiplicity           Mult            ....    1
 Number of Electrons    NEL             ....  162
 Basis Dimension        Dim             ....  828
 Nuclear Repulsion      ENuc            ....   1861.1156875716 Eh

Convergence Acceleration:
 AO-DIIS                CNVDIIS         .... on
   Start iteration      DIISMaxIt       ....    12
   Startup error        DIISStart       ....  0.200000
   # of expansion vecs  DIISMaxEq       ....     5
   Bias factor          DIISBfac        ....   1.050
   Max. coefficient     DIISMaxC        ....  10.000
 MO-DIIS                CNVKDIIS        .... off
 Trust-Rad. Augm. Hess. CNVTRAH         .... auto
   Auto Start mean grad. ratio tolernc. ....  1.125000
   Auto Start start iteration           ....     1
   Auto Start num. interpolation iter.  ....    10
   Max. Number of Micro iterations      ....    24
   Max. Number of Macro iterations      .... Maxiter - #DIIS iter
   Number of Davidson start vectors     ....     2
   Converg. threshold    (grad. norm)   ....   1.000e-05
   Grad. Scal. Fac. for Micro threshold ....   0.100
   Minimum threshold for Micro iter.    ....   1.000e-02
   NR start threshold (gradient norm)   ....   1.000e-04
   Initial trust radius                 ....   0.400
   Minimum AH scaling param. (alpha)    ....   1.000
   Maximum AH scaling param. (alpha)    .... 1000.000
   Quad. conv. algorithm                .... NR
   White noise on init. David. guess    .... on
   Maximum white noise                  ....   0.010
   Pseudo random numbers                .... off
   Inactive MOs                         .... canonical
   Orbital update algorithm             .... Taylor
   Preconditioner                       .... Diag
   Full preconditioner red. dimension   ....   250
 SOSCF                 CNVSOSCF           .... on
   Start iteration     SOSCFMaxIt         ....   150
   Startup grad/error  SOSCFStart         ....  0.003300
   Hessian update      SOSCFHessUp        .... L-BFGS
   Autom. constraints  SOSCFAutoConstrain .... off
 Level Shifting         CNVShift        .... on
   Level shift para.    LevelShift      ....    0.2500
   Turn off err/grad.   ShiftErr        ....    0.0010
 Zerner damping         CNVZerner       .... off
 Static damping         CNVDamp         .... on
   Fraction old density DampFac         ....    0.7000
   Max. Damping (<1)    DampMax         ....    0.9800
   Min. Damping (>=0)   DampMin         ....    0.0000
   Turn off err/grad.   DampErr         ....    0.1000

SCF Procedure:
 Maximum # iterations   MaxIter         ....   125
 SCF integral mode      SCFMode         .... Direct
   Integral package                     .... SHARK and LIBINT hybrid scheme
 Reset frequency        DirectResetFreq ....    20
 Integral Threshold     Thresh          ....  2.500e-11 Eh
 Primitive CutOff       TCut            ....  2.500e-12 Eh

Convergence Tolerance:
 Convergence Check Mode ConvCheckMode   .... Total+1el-Energy
 Convergence forced     ConvForced      .... 1
 Energy Change          TolE            ....  1.000e-08 Eh
 1-El. energy change                    ....  1.000e-05 Eh
 Orbital Gradient       TolG            ....  1.000e-05
 Orbital Rotation angle TolX            ....  1.000e-05
 DIIS Error             TolErr          ....  5.000e-07

---------------------
INITIAL GUESS: MOREAD
---------------------
Guess MOs are being read from file: tddft.ges
Input Geometry matches current geometry (good)
Input basis set matches current basis set (good)
Occupation numbers will be reassigned to an Aufbau configuration
MOs were renormalized
MOs were reorthogonalized (Cholesky)
                      ------------------
                      INITIAL GUESS DONE (   0.7 sec)
                      ------------------
             **** ENERGY FILE WAS UPDATED (tddft.en.tmp) ****
Finished Guess after   1.4 sec
Maximum memory used throughout the entire GUESS-calculation: 90.5 MB


           ************************************************************
           *        Program running with 4 parallel MPI-processes     *
           *              working on a common directory               *
           ************************************************************

-------------------------------------------------------------------------------------------
                                      ORCA LEAN-SCF
                              memory conserving SCF solver
-------------------------------------------------------------------------------------------

--------------------
CPCM SOLVATION MODEL
--------------------
CPCM parameters:
  Epsilon                                         ...       8.9990
  Refrac                                          ...       1.4242
  Rsolv                                           ...       1.3000
  Surface type                                    ... GAUSSIAN VDW
  Discretization scheme                           ... Constant charge density
    Threshold for H atoms                         ...       5.0000 (charges/Ang^2)
    Threshold for non-H atoms                     ...       5.0000 (charges/Ang^2)
  Epsilon function type                           ...         CPCM
Solvent:                                          ... DICHLOROMETHANE
Radii:
  Scheme                                          ... Element-dependent radii
  Radius for N  used is    3.5149 Bohr (=   1.8600 Ang.)
  Radius for H  used is    2.4944 Bohr (=   1.3200 Ang.)
  Radius for C  used is    3.8550 Bohr (=   2.0400 Ang.)
Calculating surface                               ...        done! (  0.0s)
Cavity surface points                             ...         3512
Cavity Volume                                     ...    2435.1087
Cavity Surface-area                               ...    1185.7219
Calculating surface distance matrix               ...        done! (  0.3s)
Performing Cholesky decomposition & store         ...        done! (  0.8s)
Overall time for CPCM initialization              ...                 1.1s

----------------------------------------D-I-I-S--------------------------------------------
Iteration    Energy (Eh)           Delta-E    RMSDP     MaxDP     DIISErr   Damp  Time(sec)
-------------------------------------------------------------------------------------------
               ***  Starting incremental Fock matrix formation  ***
                              *** Initializing SOSCF ***
---------------------------------------S-O-S-C-F--------------------------------------
Iteration    Energy (Eh)           Delta-E    RMSDP     MaxDP     MaxGrad    Time(sec)
--------------------------------------------------------------------------------------
    1    -989.3777184205566755     0.00e+00  7.66e-06  2.19e-04  6.12e-07   161.3
               *** Restarting incremental Fock matrix formation ***
    2    -989.3777184208104245    -2.54e-10  1.68e-06  4.43e-05  7.88e-07   182.8
                  *** Gradient check signals convergence ***

               *****************************************************
               *                     SUCCESS                       *
               *           SCF CONVERGED AFTER   2 CYCLES          *
               *****************************************************

Recomputing exchange energy using gridx3       ... done (  320.039 sec)
Old exchange energy                            :    -38.319163218 Eh
New exchange energy                            :    -38.319163710 Eh
Exchange energy change after final integration :     -0.000000492 Eh
Total energy after final integration           :   -989.377718914 Eh
             **** ENERGY FILE WAS UPDATED (tddft.en.tmp) ****

----------------
TOTAL SCF ENERGY
----------------

Total Energy       :       -989.37771891417242 Eh          -26922.33644 eV

Components:
Nuclear Repulsion  :       1861.11568757155305 Eh           50643.53253 eV
Electronic Energy  :      -2850.47611617405710 Eh          -77565.39847 eV
One Electron Energy:      -5038.67069917340450 Eh         -137109.20022 eV
Two Electron Energy:       2188.19458299934740 Eh           59543.80175 eV
CPCM Dielectric    :         -0.01728981966756 Eh              -0.47048 eV

Virial components:
Potential Energy   :      -1974.38942125077051 Eh          -53725.86752 eV
Kinetic Energy     :        985.01170233659809 Eh           26803.53109 eV
Virial Ratio       :          2.00443245147973

DFT components:
N(Alpha)           :       81.000009893692 electrons
N(Beta)            :       81.000009893692 electrons
N(Total)           :      162.000019787383 electrons
E(XC)              :     -102.843669031238 Eh       

CPCM Solvation Model Properties:
Surface-charge          :         -0.03793337759814
Corrected charge        :         -0.00000000000000
Outlying charge corr.   :          0.00006880842236 Eh               0.00187 eV
Free-energy (cav+disp)  :  This term is not implemented in the current solvation scheme

---------------
SCF CONVERGENCE
---------------

  Last Energy change         ...    2.5375e-10  Tolerance :   1.0000e-08
  Last MAX-Density change    ...    4.4296e-05  Tolerance :   1.0000e-07
  Last RMS-Density change    ...    1.6778e-06  Tolerance :   5.0000e-09
  Last DIIS Error            ...    2.8947e-06  Tolerance :   5.0000e-07
  Last Orbital Gradient      ...    7.8810e-07  Tolerance :   1.0000e-05
  Last Orbital Rotation      ...    2.6956e-06  Tolerance :   1.0000e-05


----------------
ORBITAL ENERGIES
----------------

  NO   OCC          E(Eh)            E(eV) 
   0   2.0000     -14.431721      -392.7071 
   1   2.0000     -14.431718      -392.7070 
   2   2.0000     -14.367584      -390.9618 
   3   2.0000     -14.367581      -390.9618 
   4   2.0000     -10.300714      -280.2967 
   5   2.0000     -10.300712      -280.2966 
   6   2.0000     -10.300668      -280.2954 
   7   2.0000     -10.300666      -280.2954 
   8   2.0000     -10.282092      -279.7900 
   9   2.0000     -10.282092      -279.7899 
  10   2.0000     -10.282048      -279.7888 
  11   2.0000     -10.282048      -279.7887 
  12   2.0000     -10.262226      -279.2494 
  13   2.0000     -10.262221      -279.2492 
  14   2.0000     -10.262218      -279.2491 
  15   2.0000     -10.262213      -279.2490 
  16   2.0000     -10.259524      -279.1758 
  17   2.0000     -10.259521      -279.1758 
  18   2.0000     -10.258820      -279.1567 
  19   2.0000     -10.258818      -279.1566 
  20   2.0000     -10.247006      -278.8352 
  21   2.0000     -10.247005      -278.8352 
  22   2.0000     -10.246217      -278.8137 
  23   2.0000     -10.246216      -278.8137 
  24   2.0000      -1.082660       -29.4607 
  25   2.0000      -1.080932       -29.4137 
  26   2.0000      -1.036694       -28.2099 
  27   2.0000      -1.033909       -28.1341 
  28   2.0000      -0.909977       -24.7617 
  29   2.0000      -0.887563       -24.1518 
  30   2.0000      -0.881343       -23.9826 
  31   2.0000      -0.879805       -23.9407 
  32   2.0000      -0.876154       -23.8414 
  33   2.0000      -0.845654       -23.0114 
  34   2.0000      -0.845270       -23.0010 
  35   2.0000      -0.829954       -22.5842 
  36   2.0000      -0.806496       -21.9459 
  37   2.0000      -0.745583       -20.2884 
  38   2.0000      -0.738328       -20.0909 
  39   2.0000      -0.683187       -18.5905 
  40   2.0000      -0.679559       -18.4917 
  41   2.0000      -0.674464       -18.3531 
  42   2.0000      -0.665692       -18.1144 
  43   2.0000      -0.658357       -17.9148 
  44   2.0000      -0.654085       -17.7985 
  45   2.0000      -0.636983       -17.3332 
  46   2.0000      -0.627130       -17.0651 
  47   2.0000      -0.595994       -16.2178 
  48   2.0000      -0.585819       -15.9409 
  49   2.0000      -0.576640       -15.6912 
  50   2.0000      -0.570918       -15.5355 
  51   2.0000      -0.533879       -14.5276 
  52   2.0000      -0.520911       -14.1747 
  53   2.0000      -0.517994       -14.0953 
  54   2.0000      -0.516814       -14.0632 
  55   2.0000      -0.514499       -14.0002 
  56   2.0000      -0.511758       -13.9256 
  57   2.0000      -0.500280       -13.6133 
  58   2.0000      -0.498017       -13.5517 
  59   2.0000      -0.489569       -13.3218 
  60   2.0000      -0.487086       -13.2543 
  61   2.0000      -0.483702       -13.1622 
  62   2.0000      -0.472208       -12.8494 
  63   2.0000      -0.465447       -12.6655 
  64   2.0000      -0.453881       -12.3507 
  65   2.0000      -0.449430       -12.2296 
  66   2.0000      -0.449074       -12.2199 
  67   2.0000      -0.442243       -12.0340 
  68   2.0000      -0.435725       -11.8567 
  69   2.0000      -0.435228       -11.8432 
  70   2.0000      -0.401937       -10.9372 
  71   2.0000      -0.355581        -9.6759 
  72   2.0000      -0.346489        -9.4284 
  73   2.0000      -0.345363        -9.3978 
  74   2.0000      -0.344389        -9.3713 
  75   2.0000      -0.338082        -9.1997 
  76   2.0000      -0.335841        -9.1387 
  77   2.0000      -0.312145        -8.4939 
  78   2.0000      -0.308016        -8.3815 
  79   2.0000      -0.243396        -6.6232 
  80   2.0000      -0.243339        -6.6216 
  81   0.0000      -0.067265        -1.8304 
  82   0.0000      -0.067143        -1.8270 
  83   0.0000       0.011276         0.3068 
  84   0.0000       0.079914         2.1746 
  85   0.0000       0.095363         2.5950 
  86   0.0000       0.095809         2.6071 
  87   0.0000       0.097312         2.6480 
  88   0.0000       0.104546         2.8448 
  89   0.0000       0.105810         2.8792 
  90   0.0000       0.109127         2.9695 
  91   0.0000       0.111914         3.0453 
*Only the first 10 virtual orbitals were printed.

                    ********************************
                    * MULLIKEN POPULATION ANALYSIS *
                    ********************************

-----------------------
MULLIKEN ATOMIC CHARGES
-----------------------
   0 N :   -0.181934
   1 H :    0.161849
   2 C :   -0.217625
   3 C :   -0.228707
   4 N :   -0.449115
   5 C :   -0.228752
   6 H :    0.161855
   7 C :    0.223054
   8 N :   -0.449101
   9 C :   -0.228676
  10 C :   -0.335897
  11 C :    0.222722
  12 N :   -0.181919
  13 C :   -0.217521
  14 C :    0.252068
  15 C :    0.251435
  16 C :    0.222729
  17 H :    0.239842
  18 H :    0.239840
  19 C :    0.223150
  20 C :   -0.217465
  21 C :   -0.336292
  22 C :   -0.335925
  23 C :   -0.217592
  24 C :    0.251287
  25 C :   -0.228773
  26 C :   -0.336281
  27 C :    0.252153
  28 H :    0.172404
  29 H :    0.172404
  30 H :    0.169042
  31 H :    0.169077
  32 H :    0.172408
  33 H :    0.172399
  34 H :    0.169042
  35 H :    0.161847
  36 H :    0.169119
  37 H :    0.161851
Sum of atomic charges:    0.0000000

--------------------------------
MULLIKEN REDUCED ORBITAL CHARGES
--------------------------------
  0 N s       :     3.462831  s :     3.462831
      pz      :     1.509140  p :     3.654428
      px      :     1.079092
      py      :     1.066196
      dz2     :     0.005010  d :     0.060197
      dxz     :     0.004538
      dyz     :     0.015883
      dx2y2   :     0.019994
      dxy     :     0.014772
      f0      :     0.000788  f :     0.004477
      f+1     :     0.000644
      f-1     :     0.000529
      f+2     :     0.000090
      f-2     :     0.000578
      f+3     :     0.000833
      f-3     :     0.001014

  1 H s       :     0.816283  s :     0.816283
      pz      :     0.004570  p :     0.021867
      px      :     0.008207
      py      :     0.009090

  2 C s       :     3.277091  s :     3.277091
      pz      :     0.989014  p :     2.856946
      px      :     0.932073
      py      :     0.935859
      dz2     :     0.005647  d :     0.075882
      dxz     :     0.009872
      dyz     :     0.019883
      dx2y2   :     0.014045
      dxy     :     0.026434
      f0      :     0.001445  f :     0.007706
      f+1     :     0.000740
      f-1     :     0.000569
      f+2     :     0.000919
      f-2     :     0.000447
      f+3     :     0.002227
      f-3     :     0.001359

  3 C s       :     3.274150  s :     3.274150
      pz      :     0.991615  p :     2.872002
      px      :     0.949975
      py      :     0.930412
      dz2     :     0.004834  d :     0.074886
      dxz     :     0.019314
      dyz     :     0.009306
      dx2y2   :     0.013709
      dxy     :     0.027723
      f0      :     0.001421  f :     0.007669
      f+1     :     0.000423
      f-1     :     0.000726
      f+2     :     0.001004
      f-2     :     0.000387
      f+3     :     0.001390
      f-3     :     0.002319

  4 N s       :     3.633920  s :     3.633920
      pz      :     1.286922  p :     3.754606
      px      :     1.007132
      py      :     1.460552
      dz2     :     0.004989  d :     0.057125
      dxz     :     0.012361
      dyz     :     0.008693
      dx2y2   :     0.012810
      dxy     :     0.018271
      f0      :     0.000600  f :     0.003465
      f+1     :     0.000351
      f-1     :     0.000288
      f+2     :     0.000127
      f-2     :     0.000559
      f+3     :     0.000886
      f-3     :     0.000654

  5 C s       :     3.274308  s :     3.274308
      pz      :     0.991436  p :     2.871881
      px      :     0.963305
      py      :     0.917139
      dz2     :     0.005050  d :     0.074895
      dxz     :     0.017192
      dyz     :     0.011169
      dx2y2   :     0.014626
      dxy     :     0.026857
      f0      :     0.001409  f :     0.007669
      f+1     :     0.000473
      f-1     :     0.000697
      f+2     :     0.001248
      f-2     :     0.000126
      f+3     :     0.001473
      f-3     :     0.002243

  6 H s       :     0.816276  s :     0.816276
      pz      :     0.004621  p :     0.021870
      px      :     0.006443
      py      :     0.010806

  7 C s       :     3.138288  s :     3.138288
      pz      :     0.922901  p :     2.485205
      px      :     0.813557
      py      :     0.748747
      dz2     :     0.006047  d :     0.139440
      dxz     :     0.029232
      dyz     :     0.037645
      dx2y2   :     0.026818
      dxy     :     0.039698
      f0      :     0.002193  f :     0.014014
      f+1     :     0.000863
      f-1     :     0.001112
      f+2     :     0.000665
      f-2     :     0.002476
      f+3     :     0.003491
      f-3     :     0.003213

  8 N s       :     3.633910  s :     3.633910
      pz      :     1.286916  p :     3.754602
      px      :     1.007123
      py      :     1.460562
      dz2     :     0.004989  d :     0.057125
      dxz     :     0.012362
      dyz     :     0.008693
      dx2y2   :     0.012810
      dxy     :     0.018271
      f0      :     0.000600  f :     0.003465
      f+1     :     0.000351
      f-1     :     0.000288
      f+2     :     0.000127
      f-2     :     0.000559
      f+3     :     0.000886
      f-3     :     0.000654

  9 C s       :     3.274250  s :     3.274250
      pz      :     0.991444  p :     2.871858
      px      :     0.963301
      py      :     0.917112
      dz2     :     0.005050  d :     0.074899
      dxz     :     0.017191
      dyz     :     0.011169
      dx2y2   :     0.014629
      dxy     :     0.026859
      f0      :     0.001409  f :     0.007669
      f+1     :     0.000473
      f-1     :     0.000697
      f+2     :     0.001248
      f-2     :     0.000126
      f+3     :     0.001473
      f-3     :     0.002243

 10 C s       :     3.334391  s :     3.334391
      pz      :     1.005984  p :     2.923788
      px      :     0.989843
      py      :     0.927960
      dz2     :     0.004141  d :     0.070727
      dxz     :     0.014372
      dyz     :     0.016598
      dx2y2   :     0.009349
      dxy     :     0.026266
      f0      :     0.001360  f :     0.006992
      f+1     :     0.000561
      f-1     :     0.000611
      f+2     :     0.000777
      f-2     :     0.000430
      f+3     :     0.001723
      f-3     :     0.001531

 11 C s       :     3.138448  s :     3.138448
      pz      :     0.922380  p :     2.485338
      px      :     0.834626
      py      :     0.728332
      dz2     :     0.006034  d :     0.139479
      dxz     :     0.028875
      dyz     :     0.038169
      dx2y2   :     0.032083
      dxy     :     0.034318
      f0      :     0.002199  f :     0.014014
      f+1     :     0.000785
      f-1     :     0.001183
      f+2     :     0.001117
      f-2     :     0.002029
      f+3     :     0.002599
      f-3     :     0.004100

 12 N s       :     3.462824  s :     3.462824
      pz      :     1.509134  p :     3.654418
      px      :     1.079088
      py      :     1.066196
      dz2     :     0.005011  d :     0.060199
      dxz     :     0.004538
      dyz     :     0.015883
      dx2y2   :     0.019996
      dxy     :     0.014772
      f0      :     0.000788  f :     0.004477
      f+1     :     0.000644
      f-1     :     0.000529
      f+2     :     0.000090
      f-2     :     0.000578
      f+3     :     0.000833
      f-3     :     0.001014

 13 C s       :     3.277119  s :     3.277119
      pz      :     0.989521  p :     2.856812
      px      :     0.914434
      py      :     0.952857
      dz2     :     0.005438  d :     0.075885
      dxz     :     0.012127
      dyz     :     0.017865
      dx2y2   :     0.013909
      dxy     :     0.026545
      f0      :     0.001458  f :     0.007706
      f+1     :     0.000664
      f-1     :     0.000623
      f+2     :     0.001209
      f-2     :     0.000173
      f+3     :     0.002130
      f-3     :     0.001450

 14 C s       :     3.133704  s :     3.133704
      pz      :     0.904360  p :     2.453090
      px      :     0.759825
      py      :     0.788905
      dz2     :     0.005104  d :     0.146985
      dxz     :     0.035554
      dyz     :     0.027692
      dx2y2   :     0.041102
      dxy     :     0.037532
      f0      :     0.002052  f :     0.014153
      f+1     :     0.000975
      f-1     :     0.000882
      f+2     :     0.000723
      f-2     :     0.002044
      f+3     :     0.003865
      f-3     :     0.003614

 15 C s       :     3.133857  s :     3.133857
      pz      :     0.904566  p :     2.453550
      px      :     0.757903
      py      :     0.791082
      dz2     :     0.005024  d :     0.147005
      dxz     :     0.036647
      dyz     :     0.026670
      dx2y2   :     0.039079
      dxy     :     0.039586
      f0      :     0.002051  f :     0.014153
      f+1     :     0.001024
      f-1     :     0.000834
      f+2     :     0.001055
      f-2     :     0.001700
      f+3     :     0.004890
      f-3     :     0.002599

 16 C s       :     3.138441  s :     3.138441
      pz      :     0.922378  p :     2.485346
      px      :     0.834669
      py      :     0.728299
      dz2     :     0.006030  d :     0.139471
      dxz     :     0.028874
      dyz     :     0.038173
      dx2y2   :     0.032076
      dxy     :     0.034317
      f0      :     0.002199  f :     0.014013
      f+1     :     0.000786
      f-1     :     0.001182
      f+2     :     0.001117
      f-2     :     0.002029
      f+3     :     0.002599
      f-3     :     0.004100

 17 H s       :     0.717758  s :     0.717758
      pz      :     0.009986  p :     0.042400
      px      :     0.026019
      py      :     0.006395

 18 H s       :     0.717760  s :     0.717760
      pz      :     0.009986  p :     0.042400
      px      :     0.026019
      py      :     0.006395

 19 C s       :     3.138209  s :     3.138209
      pz      :     0.922895  p :     2.485182
      px      :     0.813548
      py      :     0.748739
      dz2     :     0.006047  d :     0.139445
      dxz     :     0.029234
      dyz     :     0.037646
      dx2y2   :     0.026824
      dxy     :     0.039693
      f0      :     0.002194  f :     0.014014
      f+1     :     0.000863
      f-1     :     0.001112
      f+2     :     0.000665
      f-2     :     0.002476
      f+3     :     0.003491
      f-3     :     0.003213

 20 C s       :     3.277070  s :     3.277070
      pz      :     0.989517  p :     2.856807
      px      :     0.914428
      py      :     0.952862
      dz2     :     0.005438  d :     0.075883
      dxz     :     0.012126
      dyz     :     0.017865
      dx2y2   :     0.013908
      dxy     :     0.026545
      f0      :     0.001458  f :     0.007706
      f+1     :     0.000664
      f-1     :     0.000623
      f+2     :     0.001209
      f-2     :     0.000173
      f+3     :     0.002130
      f-3     :     0.001450

 21 C s       :     3.334784  s :     3.334784
      pz      :     1.006823  p :     2.923787
      px      :     0.963009
      py      :     0.953955
      dz2     :     0.003773  d :     0.070729
      dxz     :     0.018664
      dyz     :     0.012694
      dx2y2   :     0.009481
      dxy     :     0.026117
      f0      :     0.001389  f :     0.006992
      f+1     :     0.000532
      f-1     :     0.000589
      f+2     :     0.000762
      f-2     :     0.000459
      f+3     :     0.001422
      f-3     :     0.001840

 22 C s       :     3.334342  s :     3.334342
      pz      :     1.006000  p :     2.923867
      px      :     0.989863
      py      :     0.928003
      dz2     :     0.004140  d :     0.070724
      dxz     :     0.014372
      dyz     :     0.016599
      dx2y2   :     0.009351
      dxy     :     0.026263
      f0      :     0.001360  f :     0.006992
      f+1     :     0.000561
      f-1     :     0.000610
      f+2     :     0.000777
      f-2     :     0.000430
      f+3     :     0.001723
      f-3     :     0.001531

 23 C s       :     3.277060  s :     3.277060
      pz      :     0.989017  p :     2.856947
      px      :     0.932043
      py      :     0.935887
      dz2     :     0.005648  d :     0.075879
      dxz     :     0.009872
      dyz     :     0.019882
      dx2y2   :     0.014044
      dxy     :     0.026433
      f0      :     0.001445  f :     0.007706
      f+1     :     0.000740
      f-1     :     0.000569
      f+2     :     0.000919
      f-2     :     0.000447
      f+3     :     0.002226
      f-3     :     0.001359

 24 C s       :     3.134016  s :     3.134016
      pz      :     0.904563  p :     2.453547
      px      :     0.757936
      py      :     0.791048
      dz2     :     0.005021  d :     0.146997
      dxz     :     0.036648
      dyz     :     0.026670
      dx2y2   :     0.039072
      dxy     :     0.039586
      f0      :     0.002051  f :     0.014154
      f+1     :     0.001024
      f-1     :     0.000834
      f+2     :     0.001055
      f-2     :     0.001700
      f+3     :     0.004890
      f-3     :     0.002599

 25 C s       :     3.274231  s :     3.274231
      pz      :     0.991614  p :     2.871981
      px      :     0.949965
      py      :     0.930402
      dz2     :     0.004834  d :     0.074892
      dxz     :     0.019314
      dyz     :     0.009306
      dx2y2   :     0.013710
      dxy     :     0.027726
      f0      :     0.001420  f :     0.007669
      f+1     :     0.000423
      f-1     :     0.000726
      f+2     :     0.001004
      f-2     :     0.000387
      f+3     :     0.001390
      f-3     :     0.002319

 26 C s       :     3.334775  s :     3.334775
      pz      :     1.006797  p :     2.923787
      px      :     0.963013
      py      :     0.953977
      dz2     :     0.003771  d :     0.070727
      dxz     :     0.018666
      dyz     :     0.012696
      dx2y2   :     0.009475
      dxy     :     0.026119
      f0      :     0.001389  f :     0.006992
      f+1     :     0.000532
      f-1     :     0.000589
      f+2     :     0.000762
      f-2     :     0.000459
      f+3     :     0.001421
      f-3     :     0.001840

 27 C s       :     3.133654  s :     3.133654
      pz      :     0.904379  p :     2.453051
      px      :     0.759784
      py      :     0.788888
      dz2     :     0.005104  d :     0.146989
      dxz     :     0.035553
      dyz     :     0.027692
      dx2y2   :     0.041106
      dxy     :     0.037534
      f0      :     0.002052  f :     0.014153
      f+1     :     0.000975
      f-1     :     0.000882
      f+2     :     0.000723
      f-2     :     0.002044
      f+3     :     0.003865
      f-3     :     0.003614

 28 H s       :     0.805666  s :     0.805666
      pz      :     0.004514  p :     0.021929
      px      :     0.011076
      py      :     0.006339

 29 H s       :     0.805668  s :     0.805668
      pz      :     0.004560  p :     0.021928
      px      :     0.009252
      py      :     0.008116

 30 H s       :     0.808774  s :     0.808774
      pz      :     0.004952  p :     0.022185
      px      :     0.007542
      py      :     0.009691

 31 H s       :     0.808739  s :     0.808739
      pz      :     0.004900  p :     0.022185
      px      :     0.009428
      py      :     0.007856

 32 H s       :     0.805663  s :     0.805663
      pz      :     0.004514  p :     0.021930
      px      :     0.011077
      py      :     0.006339

 33 H s       :     0.805674  s :     0.805674
      pz      :     0.004560  p :     0.021927
      px      :     0.009252
      py      :     0.008115

 34 H s       :     0.808773  s :     0.808773
      pz      :     0.004952  p :     0.022185
      px      :     0.007542
      py      :     0.009690

 35 H s       :     0.816284  s :     0.816284
      pz      :     0.004621  p :     0.021870
      px      :     0.006443
      py      :     0.010806

 36 H s       :     0.808696  s :     0.808696
      pz      :     0.004901  p :     0.022185
      px      :     0.009428
      py      :     0.007856

 37 H s       :     0.816282  s :     0.816282
      pz      :     0.004570  p :     0.021867
      px      :     0.008207
      py      :     0.009091



                     *******************************
                     * LOEWDIN POPULATION ANALYSIS *
                     *******************************

----------------------
LOEWDIN ATOMIC CHARGES
----------------------
   0 N :    0.257954
   1 H :    0.147509
   2 C :   -0.102555
   3 C :   -0.118898
   4 N :    0.080564
   5 C :   -0.118900
   6 H :    0.147506
   7 C :   -0.187607
   8 N :    0.080570
   9 C :   -0.118903
  10 C :   -0.092783
  11 C :   -0.187586
  12 N :    0.257957
  13 C :   -0.102541
  14 C :   -0.234374
  15 C :   -0.234386
  16 C :   -0.187582
  17 H :    0.190486
  18 H :    0.190485
  19 C :   -0.187605
  20 C :   -0.102535
  21 C :   -0.092775
  22 C :   -0.092791
  23 C :   -0.102560
  24 C :   -0.234388
  25 C :   -0.118900
  26 C :   -0.092768
  27 C :   -0.234374
  28 H :    0.153752
  29 H :    0.153754
  30 H :    0.170438
  31 H :    0.170438
  32 H :    0.153751
  33 H :    0.153754
  34 H :    0.170440
  35 H :    0.147507
  36 H :    0.170438
  37 H :    0.147508

-------------------------------
LOEWDIN REDUCED ORBITAL CHARGES
-------------------------------
  0 N s       :     2.884624  s :     2.884624
      pz      :     1.328227  p :     3.606155
      px      :     1.139767
      py      :     1.138161
      dz2     :     0.014772  d :     0.233286
      dxz     :     0.012251
      dyz     :     0.047776
      dx2y2   :     0.088093
      dxy     :     0.070395
      f0      :     0.001190  f :     0.017981
      f+1     :     0.001719
      f-1     :     0.001732
      f+2     :     0.000461
      f-2     :     0.003579
      f+3     :     0.002898
      f-3     :     0.006402

  1 H s       :     0.791376  s :     0.791376
      pz      :     0.013585  p :     0.061115
      px      :     0.022317
      py      :     0.025213

  2 C s       :     2.760364  s :     2.760364
      pz      :     0.899209  p :     2.929171
      px      :     0.988079
      py      :     1.041884
      dz2     :     0.026999  d :     0.366265
      dxz     :     0.030781
      dyz     :     0.059719
      dx2y2   :     0.101174
      dxy     :     0.147592
      f0      :     0.003047  f :     0.046756
      f+1     :     0.003765
      f-1     :     0.003994
      f+2     :     0.007164
      f-2     :     0.002715
      f+3     :     0.017151
      f-3     :     0.008919

  3 C s       :     2.766425  s :     2.766425
      pz      :     0.900506  p :     2.939113
      px      :     1.054967
      py      :     0.983641
      dz2     :     0.026470  d :     0.366521
      dxz     :     0.057303
      dyz     :     0.030797
      dx2y2   :     0.101204
      dxy     :     0.150748
      f0      :     0.003015  f :     0.046839
      f+1     :     0.003951
      f-1     :     0.003615
      f+2     :     0.007394
      f-2     :     0.002124
      f+3     :     0.008881
      f-3     :     0.017860

  4 N s       :     3.039873  s :     3.039873
      pz      :     1.161311  p :     3.662714
      px      :     1.104116
      py      :     1.397287
      dz2     :     0.016612  d :     0.197691
      dxz     :     0.040765
      dyz     :     0.012235
      dx2y2   :     0.055940
      dxy     :     0.072139
      f0      :     0.001096  f :     0.019157
      f+1     :     0.001818
      f-1     :     0.000841
      f+2     :     0.000334
      f-2     :     0.003509
      f+3     :     0.006923
      f-3     :     0.004636

  5 C s       :     2.766427  s :     2.766427
      pz      :     0.900564  p :     2.939119
      px      :     1.053277
      py      :     0.985277
      dz2     :     0.027236  d :     0.366517
      dxz     :     0.049021
      dyz     :     0.038241
      dx2y2   :     0.102722
      dxy     :     0.149296
      f0      :     0.002983  f :     0.046838
      f+1     :     0.003960
      f-1     :     0.003669
      f+2     :     0.008763
      f-2     :     0.000718
      f+3     :     0.010268
      f-3     :     0.016477

  6 H s       :     0.791381  s :     0.791381
      pz      :     0.013708  p :     0.061113
      px      :     0.018066
      py      :     0.029339

  7 C s       :     2.696807  s :     2.696807
      pz      :     0.852704  p :     2.791518
      px      :     0.962454
      py      :     0.976360
      dz2     :     0.042111  d :     0.618818
      dxz     :     0.094937
      dyz     :     0.112220
      dx2y2   :     0.172963
      dxy     :     0.196587
      f0      :     0.005424  f :     0.080463
      f+1     :     0.005076
      f-1     :     0.006245
      f+2     :     0.004989
      f-2     :     0.015988
      f+3     :     0.022063
      f-3     :     0.020677

  8 N s       :     3.039871  s :     3.039871
      pz      :     1.161301  p :     3.662709
      px      :     1.104118
      py      :     1.397290
      dz2     :     0.016612  d :     0.197693
      dxz     :     0.040765
      dyz     :     0.012235
      dx2y2   :     0.055941
      dxy     :     0.072140
      f0      :     0.001096  f :     0.019157
      f+1     :     0.001818
      f-1     :     0.000841
      f+2     :     0.000334
      f-2     :     0.003508
      f+3     :     0.006923
      f-3     :     0.004636

  9 C s       :     2.766428  s :     2.766428
      pz      :     0.900569  p :     2.939124
      px      :     1.053280
      py      :     0.985274
      dz2     :     0.027237  d :     0.366514
      dxz     :     0.049018
      dyz     :     0.038240
      dx2y2   :     0.102722
      dxy     :     0.149298
      f0      :     0.002983  f :     0.046837
      f+1     :     0.003960
      f-1     :     0.003669
      f+2     :     0.008762
      f-2     :     0.000718
      f+3     :     0.010268
      f-3     :     0.016477

 10 C s       :     2.753945  s :     2.753945
      pz      :     0.897639  p :     2.932823
      px      :     1.021339
      py      :     1.013846
      dz2     :     0.025122  d :     0.365929
      dxz     :     0.043998
      dyz     :     0.051797
      dx2y2   :     0.095854
      dxy     :     0.149157
      f0      :     0.003223  f :     0.040086
      f+1     :     0.003680
      f-1     :     0.004050
      f+2     :     0.005999
      f-2     :     0.002177
      f+3     :     0.011178
      f-3     :     0.009779

 11 C s       :     2.696812  s :     2.696812
      pz      :     0.852122  p :     2.791512
      px      :     0.983680
      py      :     0.955710
      dz2     :     0.042382  d :     0.618801
      dxz     :     0.089470
      dyz     :     0.117451
      dx2y2   :     0.181627
      dxy     :     0.187871
      f0      :     0.005395  f :     0.080461
      f+1     :     0.004747
      f-1     :     0.006638
      f+2     :     0.007829
      f-2     :     0.013141
      f+3     :     0.015609
      f-3     :     0.027103

 12 N s       :     2.884622  s :     2.884622
      pz      :     1.328221  p :     3.606150
      px      :     1.139765
      py      :     1.138164
      dz2     :     0.014773  d :     0.233290
      dxz     :     0.012251
      dyz     :     0.047777
      dx2y2   :     0.088093
      dxy     :     0.070394
      f0      :     0.001190  f :     0.017981
      f+1     :     0.001720
      f-1     :     0.001732
      f+2     :     0.000461
      f-2     :     0.003579
      f+3     :     0.002898
      f-3     :     0.006402

 13 C s       :     2.760367  s :     2.760367
      pz      :     0.899179  p :     2.929162
      px      :     0.989280
      py      :     1.040702
      dz2     :     0.026297  d :     0.366258
      dxz     :     0.039567
      dyz     :     0.051653
      dx2y2   :     0.100345
      dxy     :     0.148396
      f0      :     0.003076  f :     0.046754
      f+1     :     0.003695
      f-1     :     0.004006
      f+2     :     0.008887
      f-2     :     0.001018
      f+3     :     0.015819
      f-3     :     0.010252

 14 C s       :     2.709012  s :     2.709012
      pz      :     0.836190  p :     2.802918
      px      :     0.991328
      py      :     0.975400
      dz2     :     0.044377  d :     0.642758
      dxz     :     0.104580
      dyz     :     0.090008
      dx2y2   :     0.213708
      dxy     :     0.190085
      f0      :     0.004816  f :     0.079686
      f+1     :     0.006132
      f-1     :     0.004728
      f+2     :     0.005077
      f-2     :     0.013464
      f+3     :     0.023403
      f-3     :     0.022067

 15 C s       :     2.709013  s :     2.709013
      pz      :     0.836418  p :     2.802931
      px      :     0.983650
      py      :     0.982863
      dz2     :     0.044022  d :     0.642757
      dxz     :     0.110780
      dyz     :     0.083983
      dx2y2   :     0.207825
      dxy     :     0.196148
      f0      :     0.004814  f :     0.079686
      f+1     :     0.006334
      f-1     :     0.004533
      f+2     :     0.006975
      f-2     :     0.011506
      f+3     :     0.030958
      f-3     :     0.014565

 16 C s       :     2.696814  s :     2.696814
      pz      :     0.852114  p :     2.791504
      px      :     0.983675
      py      :     0.955715
      dz2     :     0.042375  d :     0.618803
      dxz     :     0.089467
      dyz     :     0.117457
      dx2y2   :     0.181629
      dxy     :     0.187875
      f0      :     0.005395  f :     0.080461
      f+1     :     0.004747
      f-1     :     0.006637
      f+2     :     0.007827
      f-2     :     0.013142
      f+3     :     0.015609
      f-3     :     0.027103

 17 H s       :     0.692471  s :     0.692471
      pz      :     0.028821  p :     0.117043
      px      :     0.069766
      py      :     0.018456

 18 H s       :     0.692472  s :     0.692472
[...]
  0-1A  ->  1-1A    2.197050   17720.4   564.3   0.002094221   0.00025  -0.01586  -0.00137   0.00038
  0-1A  ->  2-1A    2.375872   19162.7   521.8   0.004492479   0.00059   0.00209  -0.02405   0.00235
  0-1A  ->  3-1A    3.335522   26902.8   371.7   1.376001170   0.25300  -0.50107  -0.04207   0.01264
  0-1A  ->  4-1A    3.383279   27288.0   366.5   1.531875563   0.28569  -0.04578   0.53004  -0.05151
  0-1A  ->  5-1A    3.941692   31791.9   314.5   0.000000005   0.00000  -0.00000  -0.00003   0.00001
  0-1A  ->  6-1A    4.195960   33842.7   295.5   0.383698879   0.08875   0.29678   0.02479  -0.00754
  0-1A  ->  7-1A    4.392625   35428.9   282.3   0.000000016   0.00000  -0.00006  -0.00001  -0.00000
  0-1A  ->  8-1A    4.487783   36196.4   276.3   0.059997388   0.01484   0.01038  -0.12081   0.01178
  0-1A  ->  9-1A    4.620321   37265.4   268.3   0.000000001   0.00000   0.00001   0.00001  -0.00001
  0-1A  -> 10-1A    4.634974   37383.6   267.5   0.000000346   0.00000   0.00015  -0.00025   0.00002
  0-1A  -> 11-1A    4.758562   38380.4   260.5   0.000000000   0.00000  -0.00000  -0.00000  -0.00001
  0-1A  -> 12-1A    4.783550   38581.9   259.2   0.000000005   0.00000   0.00001   0.00002   0.00002
  0-1A  -> 13-1A    4.813618   38824.4   257.6   0.002343806   0.00062   0.00034   0.00273   0.02479
  0-1A  -> 14-1A    4.821210   38885.7   257.2   0.000000001   0.00000   0.00001  -0.00001  -0.00001
  0-1A  -> 15-1A    4.895404   39484.1   253.3   0.000000004   0.00000  -0.00000   0.00003  -0.00001
  0-1A  -> 16-1A    4.917080   39658.9   252.2   0.153682616   0.04166   0.01744  -0.20240   0.01968
  0-1A  -> 17-1A    5.190088   41860.9   238.9   0.000000579   0.00000   0.00040   0.00003  -0.00003
  0-1A  -> 18-1A    5.215185   42063.3   237.7   0.143911565   0.04137   0.20263   0.01699  -0.00488
  0-1A  -> 19-1A    5.266496   42477.2   235.4   0.000000001   0.00000  -0.00001   0.00001   0.00000
  0-1A  -> 20-1A    5.353400   43178.1   231.6   0.000000002   0.00000  -0.00002  -0.00000  -0.00001
  0-1A  -> 21-1A    5.806328   46831.2   213.5   0.000000002   0.00000  -0.00001  -0.00001  -0.00002
  0-1A  -> 22-1A    5.970987   48159.3   207.6   0.000000001   0.00000  -0.00000   0.00001   0.00002
  0-1A  -> 23-1A    6.446406   51993.8   192.3   0.000000001   0.00000  -0.00000   0.00000   0.00002
  0-1A  -> 24-1A    6.508336   52493.3   190.5   0.000000015   0.00000   0.00007  -0.00001   0.00000
  0-1A  -> 25-1A    6.521942   52603.0   190.1   0.271676281   0.09767  -0.31134  -0.02606   0.00757
  0-1A  -> 26-1A    6.738099   54346.4   184.0   0.056328540   0.02092  -0.01229   0.14344  -0.01400
  0-1A  -> 27-1A    6.761352   54534.0   183.4   0.001218505   0.00045   0.00138   0.00174   0.02119
  0-1A  -> 28-1A    6.796364   54816.4   182.4   0.000000001   0.00000  -0.00001   0.00001   0.00001
  0-1A  -> 29-1A    6.865959   55377.7   180.6   0.040261791   0.01524   0.12297   0.01020  -0.00354
  0-1A  -> 30-1A    6.873353   55437.3   180.4   0.000003704   0.00000  -0.00106  -0.00052   0.00007

------------------------------------------------------------------------------------------
                     CD SPECTRUM VIA TRANSITION ELECTRIC DIPOLE MOMENTS    
------------------------------------------------------------------------------------------
     Transition      Energy     Energy  Wavelength    R        MX        MY        MZ   
                      (eV)      (cm-1)    (nm)   (1e40*cgs)   (au)      (au)      (au)  
------------------------------------------------------------------------------------------
  0-1A  ->  1-1A    2.197050   17720.4   564.3   -0.00013   0.00000  -0.00000   0.00002
  0-1A  ->  2-1A    2.375872   19162.7   521.8   -0.00011  -0.00000  -0.00002  -0.00017
  0-1A  ->  3-1A    3.335522   26902.8   371.7   -0.03974   0.00002  -0.00004  -0.00002
  0-1A  ->  4-1A    3.383279   27288.0   366.5    0.09426   0.00005   0.00005   0.00003
  0-1A  ->  5-1A    3.941692   31791.9   314.5    0.00612   0.01667   0.09707   0.98272
  0-1A  ->  6-1A    4.195960   33842.7   295.5   -0.04685  -0.00006   0.00002  -0.00006
  0-1A  ->  7-1A    4.392625   35428.9   282.3    0.00002  -0.00012   0.00020  -0.00003
  0-1A  ->  8-1A    4.487783   36196.4   276.3   -0.00254   0.00000   0.00000  -0.00006
  0-1A  ->  9-1A    4.620321   37265.4   268.3    0.00215  -0.00880   0.10145  -0.00972
  0-1A  -> 10-1A    4.634974   37383.6   267.5   -0.00016  -0.00013   0.00015   0.00003
  0-1A  -> 11-1A    4.758562   38380.4   260.5    0.01598   0.04024  -0.05720  -0.62528
  0-1A  -> 12-1A    4.783550   38581.9   259.2   -0.01646  -0.37278  -0.03920  -0.07341
  0-1A  -> 13-1A    4.813618   38824.4   257.6   -0.01094   0.00039   0.00004  -0.00020
  0-1A  -> 14-1A    4.821210   38885.7   257.2    0.00002   0.00040  -0.00065   0.00016
  0-1A  -> 15-1A    4.895404   39484.1   253.3   -0.00769   0.00539   0.02275   0.23159
  0-1A  -> 16-1A    4.917080   39658.9   252.2    0.01886  -0.00007  -0.00004   0.00006
  0-1A  -> 17-1A    5.190088   41860.9   238.9    0.00000   0.00008  -0.00065   0.00028
  0-1A  -> 18-1A    5.215185   42063.3   237.7   -0.00567  -0.00001  -0.00000  -0.00003
  0-1A  -> 19-1A    5.266496   42477.2   235.4   -0.00136  -0.00879  -0.05665  -0.57502
  0-1A  -> 20-1A    5.353400   43178.1   231.6   -0.00001   0.00009   0.00003   0.00019
  0-1A  -> 21-1A    5.806328   46831.2   213.5   -0.00000   0.00008  -0.00007   0.00007
  0-1A  -> 22-1A    5.970987   48159.3   207.6    0.00228   0.00211   0.00643   0.06251
  0-1A  -> 23-1A    6.446406   51993.8   192.3    0.00001  -0.00006   0.00002   0.00027
  0-1A  -> 24-1A    6.508336   52493.3   190.5   -0.00106  -0.00446  -0.02991  -0.30460
  0-1A  -> 25-1A    6.521942   52603.0   190.1   -0.02827   0.00005  -0.00006  -0.00006
  0-1A  -> 26-1A    6.738099   54346.4   184.0   -0.00008   0.00004  -0.00000  -0.00007
  0-1A  -> 27-1A    6.761352   54534.0   183.4    0.00449   0.00001   0.00003   0.00004
  0-1A  -> 28-1A    6.796364   54816.4   182.4    0.02204   0.01820   0.10233   1.03604
  0-1A  -> 29-1A    6.865959   55377.7   180.6   -0.00677  -0.00003   0.00005  -0.00001
  0-1A  -> 30-1A    6.873353   55437.3   180.4   -0.00002   0.00001   0.00003   0.00030

------------------------------------------------------------------------------------------
                     CD SPECTRUM VIA TRANSITION VELOCITY DIPOLE MOMENTS    
------------------------------------------------------------------------------------------
     Transition      Energy     Energy  Wavelength    R        MX        MY        MZ   
                      (eV)      (cm-1)    (nm)   (1e40*cgs)   (au)      (au)      (au)  
------------------------------------------------------------------------------------------
  0-1A  ->  1-1A    2.197050   17720.4   564.3   -0.00013   0.00000  -0.00000   0.00002
  0-1A  ->  2-1A    2.375872   19162.7   521.8   -0.00010  -0.00000  -0.00002  -0.00017
  0-1A  ->  3-1A    3.335522   26902.8   371.7   -0.03948   0.00002  -0.00004  -0.00002
  0-1A  ->  4-1A    3.383279   27288.0   366.5    0.09387   0.00005   0.00005   0.00003
  0-1A  ->  5-1A    3.941692   31791.9   314.5    0.00630   0.01667   0.09707   0.98272
  0-1A  ->  6-1A    4.195960   33842.7   295.5   -0.04694  -0.00006   0.00002  -0.00006
  0-1A  ->  7-1A    4.392625   35428.9   282.3    0.00002  -0.00012   0.00020  -0.00003
  0-1A  ->  8-1A    4.487783   36196.4   276.3   -0.00249   0.00000   0.00000  -0.00006
  0-1A  ->  9-1A    4.620321   37265.4   268.3    0.00215  -0.00880   0.10145  -0.00972
  0-1A  -> 10-1A    4.634974   37383.6   267.5   -0.00016  -0.00013   0.00015   0.00003
  0-1A  -> 11-1A    4.758562   38380.4   260.5    0.01603   0.04024  -0.05720  -0.62528
  0-1A  -> 12-1A    4.783550   38581.9   259.2   -0.01701  -0.37278  -0.03920  -0.07341
  0-1A  -> 13-1A    4.813618   38824.4   257.6   -0.01252   0.00039   0.00004  -0.00020
  0-1A  -> 14-1A    4.821210   38885.7   257.2    0.00002   0.00040  -0.00065   0.00016
  0-1A  -> 15-1A    4.895404   39484.1   253.3   -0.00696   0.00539   0.02275   0.23159
  0-1A  -> 16-1A    4.917080   39658.9   252.2    0.01884  -0.00007  -0.00004   0.00006
  0-1A  -> 17-1A    5.190088   41860.9   238.9    0.00000   0.00008  -0.00065   0.00028
  0-1A  -> 18-1A    5.215185   42063.3   237.7   -0.00564  -0.00001  -0.00000  -0.00003
  0-1A  -> 19-1A    5.266496   42477.2   235.4   -0.00200  -0.00879  -0.05665  -0.57502
  0-1A  -> 20-1A    5.353400   43178.1   231.6   -0.00001   0.00009   0.00003   0.00019
  0-1A  -> 21-1A    5.806328   46831.2   213.5   -0.00000   0.00008  -0.00007   0.00007
  0-1A  -> 22-1A    5.970987   48159.3   207.6    0.00245   0.00211   0.00643   0.06251
  0-1A  -> 23-1A    6.446406   51993.8   192.3    0.00001  -0.00006   0.00002   0.00027
  0-1A  -> 24-1A    6.508336   52493.3   190.5   -0.00097  -0.00446  -0.02991  -0.30460
  0-1A  -> 25-1A    6.521942   52603.0   190.1   -0.02832   0.00005  -0.00006  -0.00006
  0-1A  -> 26-1A    6.738099   54346.4   184.0   -0.00006   0.00004  -0.00000  -0.00007
  0-1A  -> 27-1A    6.761352   54534.0   183.4    0.00189   0.00001   0.00003   0.00004
  0-1A  -> 28-1A    6.796364   54816.4   182.4    0.02377   0.01820   0.10233   1.03604
  0-1A  -> 29-1A    6.865959   55377.7   180.6   -0.00675  -0.00003   0.00005  -0.00001
  0-1A  -> 30-1A    6.873353   55437.3   180.4   -0.00001   0.00001   0.00003   0.00030

Total run time:    14860.875 sec

           *** ORCA-CIS/TD-DFT FINISHED WITHOUT ERROR ***
-----------------------
CIS/TD-DFT TOTAL ENERGY
-----------------------

    E(SCF)  =   -989.377718914 Eh
    DE(CIS) =      0.080740115 Eh (Root  1)
    ----------------------------- ---------
    E(tot)  =   -989.296978799 Eh


Maximum memory used throughout the entire CIS-calculation: 2728.9 MB
=> NOW LEAVING ORCA_CIS

-------------------------   --------------------
FINAL SINGLE POINT ENERGY      -989.296978798767
-------------------------   --------------------



           ************************************************************
           *        Program running with 4 parallel MPI-processes     *
           *              working on a common directory               *
           ************************************************************

------------------------------------------------------------------------------
                              ORCA PROPERTY CALCULATIONS
------------------------------------------------------------------------------

GBWName                                 ... tddft.gbw
Number of atoms                         ...     38
Number of basis functions               ...    828
Max core memory                         ...   3000 MB

Electric properties:
Dipole moment                           ... YES
Quadrupole moment                       ...  NO
Static polarizability (Dipole/Dipole)   ...  NO
Static polarizability (Dipole/Quad.)    ...  NO
Static polarizability (Quad./Quad.)     ...  NO
Static polarizability (Velocity)        ...  NO
Static hyperpolarizability              ...  NO

Atomic electric properties:
Dipole moment                           ...  NO
Quadrupole moment                       ...  NO
Static polarizability                   ...  NO

Choice of electric origin               ... Center of mass
Position of electric origin             ...    -0.158819     5.090064     6.570961

General magnetic properties:
Magnetizability                         ...  NO

EPR properties:
g-Tensor (aka g-matrix)                 ...  NO
Zero-Field splitting spin-orbit         ...  NO
Zero-field splitting spin-spin          ...  NO
Hyperfine couplings                     ...  NO (   0 nuclei)
Quadrupole couplings                    ...  NO (   0 nuclei)
Contact density                         ...  NO (   0 nuclei)

NMR properties:
Chemical shifts                         ...  NO (   0 nuclei)
Spin-rotation constants                 ...  NO (   0 nuclei)
Spin-spin couplings                     ...  NO (   0 nuclei,    0 pairs)

Choice of magnetic origin               ... GIAO
Position of magnetic origin             ...     0.000000     0.000000     0.000000

Properties with geometric perturbations:
SCF Hessian                             ...  NO
IR spectrum                             ...  NO
VCD spectrum                            ...  NO
X-ray spectroscopy properties:
SCF XES/XAS/RIXS spectra                ...  NO

SCF SOC stabilization energy            ...  NO
Diagonal Born-Oppenheimer correction    ...  NO

-------------
DIPOLE MOMENT
-------------

Method             : SCF
Type of density    : Electron Density
Multiplicity       :   1
Irrep              :   0
Energy             :  -989.3777189141724193 Eh
Basis              : AO
                                X                 Y                 Z
Electronic contribution:     -0.000098319      -0.000000582       0.000427173
Nuclear contribution   :      0.000061902      -0.000054441      -0.000774279
                        -----------------------------------------
Total Dipole Moment    :     -0.000036417      -0.000055023      -0.000347106
                        -----------------------------------------
Magnitude (a.u.)       :      0.000353322
Magnitude (Debye)      :      0.000898073



--------------------
Rotational spectrum 
--------------------
 
Rotational constants in cm-1:             0.008943             0.008871             0.004453 
Rotational constants in MHz :           268.090698           265.941898           133.506036 

Dipole components along the rotational axes: 
x,y,z [a.u.] :    -0.000032    -0.000018    -0.000351 
x,y,z [Debye]:    -0.000082    -0.000046    -0.000893 

 

Dipole moment calculation done in   0.0 sec 

Maximum memory used throughout the entire PROP-calculation: 82.2 MB

--------------------------------
SUGGESTED CITATIONS FOR THIS RUN
--------------------------------

Below you find a list of papers that are relevant to this ORCA run
We neither can nor want to force you to cite these papers, but we appreciate if you do
You receive ORCA, which is the product of decades of hard work by many enthusiastic individuals, for free
The only thing we kindly ask in return is that you cite our papers,
We deeply appreciate it, if you show your appreciation for ORCA by not just citing the generic ORCA reference.

Please note that relegating all ORCA citations to the supporting information does *not* help us.
SI sections are not indexed - citations you put there will not count into any citation statistics
But we need these citations in order to attract the funding resources that allow us to do what we are doing

Therefore, if you are a happy ORCA user, please consider citing a few of the papers listed below in the main body of your paper

In addition to the list printed below, the program has created the file tddft.bibtex that contains the list in bibtex format
You can import this file easily into all common literature databanks and citation aid programs

It goes without saying that in many instances, there are alternative algorithms to achieve similar
results as the ones you have gotten from ORCA. It is, of course, also the case that in some instances
ORCA just re-implements algorithms worked out by others. We are fully aware of that and we are also
fully appreciative of our colleagues work. Hence this citation list should not be read as indicating
that the listed papers, which are focused on our own work, are the only ones worth citing. It simply
meant to make it easier for users to cite ORCA specific papers. It is not a substitute for doing your
own literature research and citing the relevant literature in a scientifically appropriate manner.

List of essential papers. We consider these as the minimum necessary citations

  1. Neese, F.
     Software update: the ORCA program system, version 6.0
     WIRES Comput. Molec. Sci. 2025 15(1), e70019
     doi.org/10.1002/wcms.70019

List of papers to cite with high priority. The work reported in these papers was absolutely
necessary for this run to complete.
Our perspective: the developers of density functionals and basis sets usually get cited in chemistry papers
Good! But without the algorithms to do something with them, the functionals or basis sets would not do anything.
Hence, in our opinion, the algorithm design and method developments papers are equally worthy of getting cited

  1. Neese, F.; Olbrich, G.
     Efficient use of the resolution of the identity approximation in time-dependent density functional calculations with hybrid density functionals
     Chem. Phys. Lett. 2002 362 , 170-178
     doi.org/10.1016/s0009-2614(02)01053-9
  2. Neese, F.
     An improvement of the resolution of the identity approximation for the formation of the Coulomb matrix
     J. Comp. Chem. 2003 24(14), 1740-1747
     doi.org/10.1002/jcc.10318
  3. Neese, F.; Wennmohs, F.; Hansen, A.; Becker, U.
     Efficient, approximate and parallel Hartree-Fock and hybrid DFT calculations. A 'chain-of-spheres' algorithm for the Hartree-Fock exchange
     Chem. Phys. 2009 356(1-3), 98-109
     doi.org/10.1016/j.chemphys.2008.10.036
  4. Garcia-Rates, M.; Neese, F.
     Effect of the Solute Cavity on the Solvation Energy and its Derivatives within the Framework of the Gaussian Charge Scheme
     J. Comput. Chem. 2020 41 , 922-939
     doi.org/10.1002/jcc.26139
  5. Helmich-Paris, B.; de Souza, B.; Neese, F.; Izsák, R.
     An improved chain of spheres for exchange algorithm
     J. Chem. Phys. 2021 155(10), 104109
     doi.org/10.1063/5.0058766
  6. Neese, F.
     The SHARK Integral Generation and Digestion System
     J. Comp. Chem. 2022 44(3), 381
     doi.org/10.1002/jcc.26942

List of suggested additional citations. These are papers that are important in the 'surrounding' of 
of this run, or papers that preceded the highly important papers. If you like your results we are grateful for a citation.

  1. Izsak, R.; Neese, F.
     An overlap fitted chain of spheres exchange method
     J. Chem. Phys. 2011 135 , 144105
     doi.org/10.1063/1.3646921
  2. Izsak, R.; Hansen, A.; Neese, F.
     The resolution of identity and chain of spheres approximations for the LPNO-CCSD singles Fock term
     Molec. Phys. 2012 110 , 2413-2417
     doi.org/10.1080/00268976.2012.687466
  3. Neese, F.
     The ORCA program system
     WIRES Comput. Molec. Sci. 2012 2(1), 73-78
     doi.org/10.1002/wcms.81
  4. Izsak, R.; Neese, F.; Klopper, W.
     Robust fitting techniques in the chain of spheres approximation to the Fock exchange: The role of the complementary space
     J. Chem. Phys. 2013 139 , 
     doi.org/10.1063/1.4819264
  5. Neese, F.
     Software update: the ORCA program system, version 4.0
     WIRES Comput. Molec. Sci. 2018 8(1), 1-6
     doi.org/10.1002/wcms.1327
  6. Neese, F.; Wennmohs, F.; Becker, U.; Riplinger, C.
     The ORCA quantum chemistry program package
     J. Chem. Phys. 2020 152(22), 224108
     doi.org/10.1063/5.0004608
  7. Neese, F.
     Software update: The ORCA program system—Version 5.0
     WIRES Comput. Molec. Sci. 2022 12(1), e1606
     doi.org/10.1002/wcms.1606

List of optional additional citations

  1. Neese, F.
     Approximate second-order SCF convergence for spin unrestricted wavefunctions
     Chem. Phys. Lett. 2000 325(1-3), 93-98
     doi.org/10.1016/s0009-2614(00)00662-x

Timings for individual modules:

Sum of individual times          ...    15608.781 sec (= 260.146 min)
Startup calculation              ...       19.413 sec (=   0.324 min)   0.1 %
SCF iterations                   ...      724.515 sec (=  12.075 min)   4.6 %
Property integrals               ...        2.096 sec (=   0.035 min)   0.0 %
Property calculations            ...        0.668 sec (=   0.011 min)   0.0 %
CIS module                       ...    14862.089 sec (= 247.701 min)  95.2 %
                             ****ORCA TERMINATED NORMALLY****
TOTAL RUN TIME: 0 days 4 hours 20 minutes 9 seconds 392 msec
