
                                 *****************
                                 * O   R   C   A *
                                 *****************

                                            #,                                       
                                            ###                                      
                                            ####                                     
                                            #####                                    
                                            ######                                   
                                           ########,                                 
                                     ,,################,,,,,                         
                               ,,#################################,,                 
                          ,,##########################################,,             
                       ,#########################################, ''#####,          
                    ,#############################################,,   '####,        
                  ,##################################################,,,,####,       
                ,###########''''           ''''###############################       
              ,#####''   ,,,,##########,,,,          '''####'''          '####       
            ,##' ,,,,###########################,,,                        '##       
           ' ,,###''''                  '''############,,,                           
         ,,##''                                '''############,,,,        ,,,,,,###''
      ,#''                                            '''#######################'''  
     '                                                          ''''####''''         
             ,#######,   #######,   ,#######,      ##                                
            ,#'     '#,  ##    ##  ,#'     '#,    #''#        ,####,    ,#,          
            ##       ##  ##   ,#'  ##            #'  '#       #'       ,# #          
            ##       ##  #######   ##           ,######,      #####,      #          
            '#,     ,#'  ##    ##  '#,     ,#' ,#      #,     #,   #      #          
             '#######'   ##     ##  '#######'  #'      '#     '####' #    #          



                #########################################################
                #                        -***-                          #
                #          Department of theory and spectroscopy        #
                #                                                       #
                #                      Frank Neese                      #
                #                                                       #
                #     Directorship, Architecture, Infrastructure        #
                #                    SHARK, DRIVERS                     #
                #        Core code/Algorithms in most modules           #
                #                                                       #
                #        Max Planck Institute fuer Kohlenforschung      #
                #                Kaiser Wilhelm Platz 1                 #
                #                 D-45470 Muelheim/Ruhr                 #
                #                      Germany                          #
                #                                                       #
                #                  All rights reserved                  #
                #                        -***-                          #
                #########################################################


                         Program Version 6.1.1  -  RELEASE   -
                                (GIT: $487d211c$)
                          ($2025-11-21 10:33:24 +0100$)


 With contributions from (in alphabetic order):
[Max-Planck-Institut fuer Kohlenforschung]                               
  Daniel Aravena         : Magnetic Suceptibility                        
  Michael Atanasov       : Ab Initio Ligand Field Theory (pilot matlab implementation)
  Alexander A. Auer      : GIAO ZORA, VPT2 properties, NMR spectrum      
  Ute Becker             : All parallelization in ORCA, NUMFREQ, NUMCALC 
  Giovanni Bistoni       : ED, misc. LED, open-shell LED, HFLD           
  Dmytro Bykov           : pre 5.0 version of the SCF Hessian            
  Marcos Casanova-Páez   : Triplet and SCS-CIS(D). UHF-(DLPNO)-IP/EA/STEOM-CCSD. UHF-CVS-IP/STEOM-CCSD   
  Vijay G. Chilkuri      : MRCI spin determinant printing, contributions to CSF-ICE 
  Pauline Colinet        : FMM embedding                                 
  Dipayan Datta          : RHF DLPNO-CCSD density                        
  Achintya Kumar Dutta   : EOM-CC, STEOM-CC                              
  Nicolas Foglia         : Exact transition moments, OPA infrastructure, MCD improvements    
  Dmitry Ganyushin       : Spin-Orbit,Spin-Spin,Magnetic field MRCI      
  Miquel Garcia-Rates    : C-PCM and meta-GGA Hessian, CCSD/C-PCM, Gaussian charge scheme 
  Tiago L. C. Gouveia    : GS-ROHF, GS-ROCIS                             
  Yang Guo               : DLPNO-NEVPT2, F12-NEVPT2, CIM, IAO-localization        
  Andreas Hansen         : Spin unrestricted coupled pair/coupled cluster methods 
  Ingolf Harden          : AUTO-CI MPn and infrastructure                
  Benjamin Helmich-Paris : MC-RPA, TRAH-(SCF,CASSCF), AVAS, COSX integrals, SCF dyn. polar., MC-PDFT, srDFT 
  Lee Huntington         : MR-EOM, pCC                                   
  Robert Izsak           : Overlap fitted RIJCOSX, COSX-SCS-MP3, EOM     
  Riya Kayal             : Wick's Theorem for AUTO-CI, AUTO-CI UHF-CCSDT 
  Emily Kempfer          : AUTO-CI RHF CISDT and CCSDT, approximate NEVPT4
  Christian Kollmar      : KDIIS, OOCD, Brueckner-CCSD(T), CCSD density, CASPT2, CASPT2-K, improved NEVPT2 
  Axel Koslowski         : Symmetry handling                             
  Simone Kossmann        : meta-GGA functionals, TD-DFT gradient, OOMP2, (MP2 Hessian; deprecated post 5.0) 
  Lucas Lang             : DCDCAS, Hyperfine gauge corrections, ICE-SOC+SSC
  Marvin Lechner         : AUTO-CI (C++ implementation), FIC-MRCC        
  Spencer Leger          : CASSCF response                               
  Dagmar Lenk            : GEPOL surface, SMD, ORCA-2-JSON               
  Dimitrios Liakos       : Extrapolation schemes; Compound Job, Property file
  Dimitrios Manganas     : Further ROCIS development; embedding schemes. LFT, Crystal Embedding 
  Dimitrios Pantazis     : SARC Basis sets                               
  Anastasios Papadopoulos: AUTO-CI, single reference methods and gradients 
  Taras Petrenko         : pre 6.0 DFT Hessian and TD-DFT gradient,  ECA, NRVS 
  Petra Pikulova         : Analytic Raman intensities                    
  Peter Pinski           : DLPNO-MP2, DLPNO-MP2 Gradient                 
  Shashank Vittal Rao    : ES-AILFT, MagRelax                            
  Christoph Reimann      : Effective Core Potentials                     
  Marius Retegan         : Local ZFS, SOC                                
  Christoph Riplinger    : Optimizer, TS searches, QM/MM, DLPNO-CCSD(T), (RO)-DLPNO pert. Triples 
  Michael Roemelt        : Original ROCIS implementation, recursive CI coupling coefficients
  Masaaki Saitow         : Open-shell DLPNO-CCSD energy and density      
  Barbara Sandhoefer     : DKH picture change effects                    
  Yorick L. A. Schmerwitz: GMF and freeze-and-release deltaSCF, NEB S-IDPP initial path                    
  Kantharuban Sivalingam : CASSCF convergence/infrastructure, NEVPT2, NEVPT3, NEVPT4(SD), FIC-MRCI and CEPA variants
  Bernardo de Souza      : ESD, SOC TD-DFT                               
  Georgi L. Stoychev     : AutoAux, RI-MP2 NMR, DLPNO-MP2 response, X2C  
  Van Anh Tran           : RI-MP2 g-tensors                              
  Willem Van den Heuvel  : Paramagnetic NMR                              
  Zikuan Wang            : NOTCH, Electric field optimization            
  Frank Wennmohs         : Technical directorship and infrastructure     
  Hang Xu                : AUTO-CI-Response properties                   
                                                                         
[FACCTs GmbH]                                                            
  Markus Bursch, Nicolas Foglia, Miquel Garcia-Rates, Ingolf Harden, Hagen Neugebauer, Anastasios Papadopoulos, 
  Christoph Riplinger, Bernardo de Souza, Georgi L. Stoychev                                                    
                                                                 
  APM, various basis sets, CI-OPT, improved COSX, DLPNO-Multilevel,           
  DOCKER, DRACO, updates on ESD, Fragmentator, GOAT, IRC, LR-CPCM, L-BFGS, MBIS, meta-GGA TD-DFT gradient, ML-optimized integration grids, 
  MM, NACMEs, nearIR, NEB, NEB-TS, NL-DFT gradient (VV10), 2- and 3-layer-ONIOM, interface openCOSMO-RS, QMMM,   
  Crystal-QMMM, RESP, rigid body optimization, SF, symmetry and pop. for TD-DFT, various functionals, SOLVATOR                                   
                                                                         
[Other institutions]                                                     
  V. Asgeirsson          : NEB                                           
  Christoph Bannwarth    : sTDA-DFT, sTD-DFT, PBEh-3c, B97-3c, D3        
  Giovanni Bistoni       : ETS/NOCV, ADLD/ADEX, COVALED                  
  Martin Brehm           : Molecular dynamics                            
  Ronald Cardenas        : ETS/NOCV                                      
  Martina Colucci        : COVALED                                       
  Sebastian Ehlert       : rSCAN, r2SCAN, r2SCAN-3c, D4, dhf basis sets  
  Marvin Friede          : D4 for Fr, Ra, Ac-Lr                          
  Lars Goerigk           : TD-DFT with DH, B97 family of functionals     
  Stefan Grimme          : VdW corrections, initial TS optimization, DFT functionals, gCP, sTDA/sTD-DF 
  Waldemar Hujo          : DFT-NL                                        
  H. Jonsson             : NEB                                           
  Holger Kruse           : gCP                                           
  Marcel Mueller         : wB97X-3c, vDZP basis set                      
  Hagen Neugebauer       : wr2SCAN, Native XTB                           
  Gianluca Regni         : ADLD/ADEX                                     
  Tobias Risthaus        : pre 6.0 range-separated hybrid DFT and stability analysis
  Lukas Wittmann         : regularized MP2, r2SCAN double-hybrids, wr2SCAN        
                                                                         
We gratefully acknowledge several colleagues who have allowed us to      
interface, adapt or use parts of their codes:                            
  Ed Valeev, F. Pavosevic, A. Kumar             : LibInt (2-el integral package), F12 methods 
  Garnet Chan, S. Sharma, J. Yang, R. Olivares  : DMRG                   
  Ulf Ekstrom                                   : XCFun DFT Library      
  Mihaly Kallay                                 : mrcc  (arbitrary order and MRCC methods)
  Frank Weinhold                                : gennbo (NPA and NBO analysis)           
  Simon Mueller                                 : openCOSMO-RS                            
  Christopher J. Cramer and Donald G. Truhlar   : smd solvation model                     
  S Lehtola, MJT Oliveira, MAL Marques          : LibXC Library                           
  Liviu Ungur et al                             : ANISO software                          


 Your calculation uses the libint2 library for the computation of 2-el integrals
 For citations please refer to: http://libint.valeyev.net

 Your ORCA version has been built with support for libXC version: 7.0.0
 For citations please refer to: https://libxc.gitlab.io

 This ORCA versions uses:
   CBLAS   interface :  Fast vector & matrix operations
   LAPACKE interface :  Fast linear algebra routines
   SCALAPACK package :  Parallel linear algebra routines
   Shared memory     :  Shared parallel matrices
   BLAS/LAPACK       :  OpenBLAS 0.3.29  USE64BITINT DYNAMIC_ARCH NO_AFFINITY Haswell SINGLE_THREADED
        Core in use  :  Haswell
   Copyright (c) 2011-2014, The OpenBLAS Project


  ***********************************
  * Starting time: Sat Jul  4 18:05:06 2026
  * Host name:     steezy
  * Process ID:    1141171
  * Working dir.:  /home/jannes/chlorophyll-ladder/006-core-ladder/porphin/03_tddft_ch2cl2/m062x
  ***********************************

NOTE: MaxCore=3000 MB was set to SCF,MP2,MDCI,CIPSI,MRCI,RASCI and CIS
      => If you want to overwrite this, your respective input block should be placed after the MaxCore statement


***************************************
The coordinates will be read from file: /home/jannes/chlorophyll-ladder/006-core-ladder/porphin/01_opt/porphin_opt_b3lypd4_tzvp.xyz
***************************************


XCFun DFT library Copyright 2009-2010 Ulf Ekstrom and contributors.
See http://admol.org/xcfun for more information.
This is free software; see the source code for copying conditions.
There is ABSOLUTELY NO WARRANTY; not even for MERCHANTABILITY or FITNESS FOR A PARTICULAR PURPOSE.
For details see the documentation.
Scientific users of this library should cite U. Ekstrom, L. Visscher, R. Bast, A. J. Thorvaldsen and K. Ruud;
J.Chem.Theor.Comp. 2010, DOI: 10.1021/ct100117s
XCFun Version 0.99 

================================================================================

----- Orbital basis set information -----
Your calculation utilizes the basis: def2-TZVP
   F. Weigend and R. Ahlrichs, Phys. Chem. Chem. Phys. 7, 3297 (2005).

----- AuxJ basis set information -----
Your calculation utilizes the auxiliary basis: def2/J
   H-Rn: F. Weigend, Phys. Chem. Chem. Phys. 8, 1057 (2006).
   Fr-Lr: K. Eichkorn, F. Weigend, O. Treutler, R. Ahlrichs; Theor. Chem. Acc. 97, 119 (1997).

================================================================================
                                        WARNINGS
                       Please study these warnings very carefully!
================================================================================

WARNING: Old DensityContainer found on disk!
         Will remove this file - 
         If you want to keep old densities, please start your calculation with a different basename. 

WARNING: Functional chosen is sensitive to the integration grid.
         DEFGRID3 seems to be a minimum grid for robust results!

WARNING: CIS/ROCIS methods need fully converged wavefunctions
  ===> : Setting SCFConvForced true
         You can overwrite this default with %scf ConvForced false 


================================================================================
                                       INPUT FILE
================================================================================
NAME = tddft.inp
|  1> %pal nprocs 4 end
|  2> %maxcore 3000
|  3> ! M062X def2-TZVP def2/J RIJCOSX DefGrid3 TightSCF CPCM(CH2Cl2)
|  4> %tddft
|  5>   nroots 30
|  6>   tda false
|  7>   triplets false
|  8> end
|  9> * xyzfile 0 1 /home/jannes/chlorophyll-ladder/006-core-ladder/porphin/01_opt/porphin_opt_b3lypd4_tzvp.xyz
| 10> 
| 11>                          ****END OF INPUT****
================================================================================

                       ****************************
                       * Single Point Calculation *
                       ****************************

---------------------------------
CARTESIAN COORDINATES (ANGSTROEM)
---------------------------------
  N     -2.180891    2.518466    3.532389
  H      1.690443   -2.236382    3.933896
  C     -4.367841    3.017687    3.515126
  C     -0.395315   -1.565610    3.903357
  N      0.088551    0.689208    3.671590
  C      0.950736   -1.453154    3.869075
  H     -0.990663   -2.460360    4.002368
  C      2.882772    1.818374    3.512765
  N     -0.256644    4.697916    3.282877
  C     -1.118820    6.840288    3.085562
  C      2.527769    0.484722    3.650265
  C      2.690769    4.048684    3.296192
  N      2.012819    2.868614    3.422204
  C      4.083084    3.724839    3.307617
  C     -0.919803   -0.214146    3.778525
  C      1.236865   -0.033970    3.723482
  C     -2.858871    1.338374    3.658064
  H     -1.173514    2.603115    3.511443
  H      1.005441    2.783922    3.442823
  C     -3.050836    3.568698    3.441639
  C     -4.251194    1.662224    3.646465
  C     -2.280939    0.082808    3.772232
  C     -2.695851    4.902359    3.304255
  C      4.199763    2.369381    3.439069
  C     -1.404950    5.421089    3.231097
  C      0.227221    6.952725    3.051110
  C      2.112836    5.304259    3.182028
  C      0.751725    5.601268    3.175906
  H     -5.273861    3.600151    3.470570
  H     -5.044736    0.937212    3.728720
  H     -2.966724   -0.749445    3.865261
  H      3.346095   -0.221478    3.707096
  H      5.105812    1.786953    3.483475
  H      4.876640    4.449816    3.225158
  H      2.798652    6.136469    3.088803
  H      0.822550    7.847490    2.952095
  H     -3.514168    5.608569    3.247399
  H     -1.858503    7.623554    3.020905

----------------------------
CARTESIAN COORDINATES (A.U.)
----------------------------
  NO LB      ZA    FRAG     MASS         X           Y           Z
   0 N     7.0000    0    14.007   -4.121286    4.759210    6.675248
   1 H     1.0000    0     1.008    3.194474   -4.226150    7.433986
   2 C     6.0000    0    12.011   -8.254023    5.702602    6.642626
   3 C     6.0000    0    12.011   -0.747036   -2.958575    7.376276
   4 N     7.0000    0    14.007    0.167337    1.302415    6.938300
   5 C     6.0000    0    12.011    1.796630   -2.746063    7.311492
   6 H     1.0000    0     1.008   -1.872083   -4.649406    7.563380
   7 C     6.0000    0    12.011    5.447650    3.436230    6.638163
   8 N     7.0000    0    14.007   -0.484987    8.877775    6.203739
   9 C     6.0000    0    12.011   -2.114264   12.926270    5.830868
  10 C     6.0000    0    12.011    4.776792    0.915991    6.898001
  11 C     6.0000    0    12.011    5.084817    7.650904    6.228900
  12 N     7.0000    0    14.007    3.803677    5.420894    6.467028
  13 C     6.0000    0    12.011    7.715910    7.038925    6.250490
  14 C     6.0000    0    12.011   -1.738176   -0.404677    7.140378
  15 C     6.0000    0    12.011    2.337336   -0.064195    7.036362
  16 C     6.0000    0    12.011   -5.402483    2.529161    6.912740
  17 H     1.0000    0     1.008   -2.217620    4.919174    6.635666
  18 H     1.0000    0     1.008    1.900007    5.260849    6.505992
  19 C     6.0000    0    12.011   -5.765244    6.743862    6.503755
  20 C     6.0000    0    12.011   -8.033592    3.141148    6.890820
  21 C     6.0000    0    12.011   -4.310349    0.156485    7.128485
  22 C     6.0000    0    12.011   -5.094419    9.264115    6.244138
  23 C     6.0000    0    12.011    7.936402    4.477482    6.498898
  24 C     6.0000    0    12.011   -2.654970   10.244374    6.105888
  25 C     6.0000    0    12.011    0.429385   13.138747    5.765762
  26 C     6.0000    0    12.011    3.992682   10.023597    6.013161
  27 C     6.0000    0    12.011    1.420554   10.584862    6.001593
  28 H     1.0000    0     1.008   -9.966153    6.803300    6.558426
  29 H     1.0000    0     1.008   -9.533170    1.771074    7.046259
  30 H     1.0000    0     1.008   -5.606296   -1.416247    7.304285
  31 H     1.0000    0     1.008    6.323203   -0.418534    7.005396
  32 H     1.0000    0     1.008    9.648586    3.376852    6.582814
  33 H     1.0000    0     1.008    9.215514    8.408934    6.094665
  34 H     1.0000    0     1.008    5.288685   11.596245    5.836991
  35 H     1.0000    0     1.008    1.554393   14.829606    5.578651
  36 H     1.0000    0     1.008   -6.640815   10.598659    6.136694
  37 H     1.0000    0     1.008   -3.512061   14.406429    5.708684

--------------------------------
INTERNAL COORDINATES (ANGSTROEM)
--------------------------------
 N      0   0   0     0.000000000000     0.00000000     0.00000000
 H      1   0   0     6.144673229395     0.00000000     0.00000000
 C      1   2   0     2.243272391530   141.89876199     0.00000000
 C      2   1   3     2.191175978699    33.12144035   359.78196922
 N      4   2   1     2.317768042295    95.76702730     0.05041047
 C      2   1   3     1.079266249219     4.21370891     0.07915914
 H      4   2   1     1.079268154455   105.66535074   180.05560002
 C      5   4   2     3.017932326686   124.23173975   359.97265948
 N      1   2   6     2.918045108678    99.67616098   180.35207023
 C      9   1   2     2.317765511693   116.89442777   179.97808325
 C      8   5   4     1.386925732322    52.98756772     0.03785122
 C      8   5   4     2.249010893586   107.28141435   180.03816109
 N      8   5   4     1.366756111009    72.64238625   179.95789291
 C     12   8   5     1.429526220242    72.02656814   179.86646412
 C      5   4   2     1.358035743233    35.90327310   180.00368341
 C      5   4   2     1.358052178109    69.79697305     0.00000000
 C      1   2   6     1.366772292242    68.80094450     0.21857691
 H      1   2   6     1.011143908013    55.83702380   179.99401983
 H     13   8   5     1.011142399064   124.64063398   359.69569907
 C      1   2   6     1.366758138321   179.51311626   348.83759675
 C      3   1   2     1.366797559489    72.26372871     0.13506297
 C     17   1   2     1.386897788060   125.62778630     0.05508444
 C     20   1  18     1.386917453648   125.63133011     0.18593759
 C     14  12   8     1.366806197569   107.97320808     0.00000000
 C      9   1   2     1.358037856131    80.99028717   179.97367567
 C     10   9   1     1.351168367092    73.05307946   179.99423387
 C     12   8   5     1.386906342426   160.26769765   359.97153859
 C      9   1   2     1.358047941200   173.30861488   359.93543063
 H      3   1   2     1.078017863511   160.03617534   180.21836084
 H     21   3   1     1.078015481635   127.69627650   180.02779321
 H     22  17   1     1.082405877126   116.04909900   179.92532307
 H     11   8   5     1.082407332853   116.04421957   180.06654092
 H     24  14  12     1.078015962244   127.69819998   180.03058896
 H     14  12   8     1.078017967300   124.33296377   180.03202002
 H     27  12   8     1.082407600124   116.04702151   179.99456629
 H     26  10   9     1.079269782346   128.37740192   179.99605738
 H     23  20   1     1.082408536204   116.04576671   180.03676831
 H     10   9   1     1.079266886998   158.56973537     0.00000000

---------------------------
INTERNAL COORDINATES (A.U.)
---------------------------
 N      0   0   0     0.000000000000     0.00000000     0.00000000
 H      1   0   0    11.611749585994     0.00000000     0.00000000
 C      1   2   0     4.239170463779   141.89876199     0.00000000
 C      2   1   3     4.140722510968    33.12144035   359.78196922
 N      4   2   1     4.379946841893    95.76702730     0.05041047
 C      2   1   3     2.039517636609     4.21370891     0.07915914
 H      4   2   1     2.039521236983   105.66535074   180.05560002
 C      5   4   2     5.703065588145   124.23173975   359.97265948
 N      1   2   6     5.514306101830    99.67616098   180.35207023
 C      9   1   2     4.379942059747   116.89442777   179.97808325
 C      8   5   4     2.620909802176    52.98756772     0.03785122
 C      8   5   4     4.250014661082   107.28141435   180.03816109
 N      8   5   4     2.582794741670    72.64238625   179.95789291
 C     12   8   5     2.701413057517    72.02656814   179.86646412
 C      5   4   2     2.566315634787    35.90327310   180.00368341
 C      5   4   2     2.566346692200    69.79697305     0.00000000
 C      1   2   6     2.582825319768    68.80094450     0.21857691
 H      1   2   6     1.910785068128    55.83702380   179.99401983
 H     13   8   5     1.910782216628   124.64063398   359.69569907
 C      1   2   6     2.582798572734   179.51311626   348.83759675
 C      3   1   2     2.582873067947    72.26372871     0.13506297
 C     17   1   2     2.620856995174   125.62778630     0.05508444
 C     20   1  18     2.620894157749   125.63133011     0.18593759
 C     14  12   8     2.582889391552   107.97320808     0.00000000
 C      9   1   2     2.566319627585    80.99028717   179.97367567
 C     10   9   1     2.553338174621    73.05307946   179.99423387
 C     12   8   5     2.620873160584   160.26769765   359.97153859
 C      9   1   2     2.566338685603   173.30861488   359.93543063
 H      3   1   2     2.037158529510   160.03617534   180.21836084
 H     21   3   1     2.037154028418   127.69627650   180.02779321
 H     22  17   1     2.045450673515   116.04909900   179.92532307
 H     11   8   5     2.045453424440   116.04421957   180.06654092
 H     24  14  12     2.037154936637   127.69819998   180.03058896
 H     14  12   8     2.037158725644   124.33296377   180.03202002
 H     27  12   8     2.045453929509   116.04702151   179.99456629
 H     26  10   9     2.039524313251   128.37740192   179.99605738
 H     23  20   1     2.045455698445   116.04576671   180.03676831
 H     10   9   1     2.039518841837   158.56973537     0.00000000

---------------------
BASIS SET INFORMATION
---------------------
There are 3 groups of distinct atoms

 Group   1 Type N   : 11s6p2d1f contracted to 5s3p2d1f pattern {62111/411/11/1}
 Group   2 Type H   : 5s1p contracted to 3s1p pattern {311/1}
 Group   3 Type C   : 11s6p2d1f contracted to 5s3p2d1f pattern {62111/411/11/1}

Atom   0N    basis set group =>   1
Atom   1H    basis set group =>   2
Atom   2C    basis set group =>   3
Atom   3C    basis set group =>   3
Atom   4N    basis set group =>   1
Atom   5C    basis set group =>   3
Atom   6H    basis set group =>   2
Atom   7C    basis set group =>   3
Atom   8N    basis set group =>   1
Atom   9C    basis set group =>   3
Atom  10C    basis set group =>   3
Atom  11C    basis set group =>   3
Atom  12N    basis set group =>   1
Atom  13C    basis set group =>   3
Atom  14C    basis set group =>   3
Atom  15C    basis set group =>   3
Atom  16C    basis set group =>   3
Atom  17H    basis set group =>   2
Atom  18H    basis set group =>   2
Atom  19C    basis set group =>   3
Atom  20C    basis set group =>   3
Atom  21C    basis set group =>   3
Atom  22C    basis set group =>   3
Atom  23C    basis set group =>   3
Atom  24C    basis set group =>   3
Atom  25C    basis set group =>   3
Atom  26C    basis set group =>   3
Atom  27C    basis set group =>   3
Atom  28H    basis set group =>   2
Atom  29H    basis set group =>   2
Atom  30H    basis set group =>   2
Atom  31H    basis set group =>   2
Atom  32H    basis set group =>   2
Atom  33H    basis set group =>   2
Atom  34H    basis set group =>   2
Atom  35H    basis set group =>   2
Atom  36H    basis set group =>   2
Atom  37H    basis set group =>   2
---------------------------------
AUXILIARY/J BASIS SET INFORMATION
---------------------------------
There are 3 groups of distinct atoms

 Group   1 Type N   : 12s5p4d2f1g contracted to 6s4p3d1f1g pattern {711111/2111/211/2/1}
 Group   2 Type H   : 5s2p1d contracted to 3s1p1d pattern {311/2/1}
 Group   3 Type C   : 12s5p4d2f1g contracted to 6s4p3d1f1g pattern {711111/2111/211/2/1}

Atom   0N    basis set group =>   1
Atom   1H    basis set group =>   2
Atom   2C    basis set group =>   3
Atom   3C    basis set group =>   3
Atom   4N    basis set group =>   1
Atom   5C    basis set group =>   3
Atom   6H    basis set group =>   2
Atom   7C    basis set group =>   3
Atom   8N    basis set group =>   1
Atom   9C    basis set group =>   3
Atom  10C    basis set group =>   3
Atom  11C    basis set group =>   3
Atom  12N    basis set group =>   1
Atom  13C    basis set group =>   3
Atom  14C    basis set group =>   3
Atom  15C    basis set group =>   3
Atom  16C    basis set group =>   3
Atom  17H    basis set group =>   2
Atom  18H    basis set group =>   2
Atom  19C    basis set group =>   3
Atom  20C    basis set group =>   3
Atom  21C    basis set group =>   3
Atom  22C    basis set group =>   3
Atom  23C    basis set group =>   3
Atom  24C    basis set group =>   3
Atom  25C    basis set group =>   3
Atom  26C    basis set group =>   3
Atom  27C    basis set group =>   3
Atom  28H    basis set group =>   2
Atom  29H    basis set group =>   2
Atom  30H    basis set group =>   2
Atom  31H    basis set group =>   2
Atom  32H    basis set group =>   2
Atom  33H    basis set group =>   2
Atom  34H    basis set group =>   2
Atom  35H    basis set group =>   2
Atom  36H    basis set group =>   2
Atom  37H    basis set group =>   2

Checking for AutoStart:
The File: tddft.gbw exists
Trying to determine its content:
     ... Fine, the file contains calculation information
     ... Fine, the calculation information was read
     ... Fine, the file contains a basis set
     ... Fine, the basis set was read
     ... Fine, the file contains a geometry
     ... Fine, the geometry was read
     ... Fine, the file contains a set of orbitals
     ... Fine, the orbitals can be read
     => possible old guess file was deleted
     => GBW file was renamed to GES file
     => GES file is set as startup file
     => Guess is set to MORead
     ... now leaving AutoStart



           ************************************************************
           *        Program running with 4 parallel MPI-processes     *
           *              working on a common directory               *
           ************************************************************
------------------------------------------------------------------------------
                             ORCA STARTUP CALCULATIONS
                           -- RI-GTO INTEGRALS CHOSEN --
------------------------------------------------------------------------------
------------------------------------------------------------------------------
                   ___                                                        
                  /   \      - P O W E R E D   B Y -                         
                 /     \                                                     
                 |  |  |   _    _      __       _____    __    __             
                 |  |  |  | |  | |    /  \     |  _  \  |  |  /  |          
                  \  \/   | |  | |   /    \    | | | |  |  | /  /          
                 / \  \   | |__| |  /  /\  \   | |_| |  |  |/  /          
                |  |  |   |  __  | /  /__\  \  |    /   |      \           
                |  |  |   | |  | | |   __   |  |    \   |  |\   \          
                \     /   | |  | | |  |  |  |  | |\  \  |  | \   \       
                 \___/    |_|  |_| |__|  |__|  |_| \__\ |__|  \__/        
                                                                              
                      - O R C A' S   B I G   F R I E N D -                    
                                      &                                       
                       - I N T E G R A L  F E E D E R -                       
                                                                              
 v1 FN, 2020, v2 2021, v3 2022-2024                                           
------------------------------------------------------------------------------


----------------------
SHARK INTEGRAL PACKAGE
----------------------

Number of atoms                             ...     38
Number of basis functions                   ...    828
Number of shells                            ...    320
Maximum angular momentum                    ...      3
Integral batch strategy                     ... SHARK/LIBINT Hybrid
RI-J (if used) integral strategy            ... SPLIT-RIJ (Revised 2003 algorithm where possible)
Printlevel                                  ...      1
Contraction scheme used                     ... SEGMENTED contraction
Prescreening option                         ... SCHWARTZ
   Thresh                                   ... 2.500e-11
   Tcut                                     ... 2.500e-12
   Tpresel                                  ... 2.500e-12 
Coulomb Range Separation                    ... NOT USED
Exchange Range Separation                   ... NOT USED
Multipole approximations                    ... NOT USED
Finite Nucleus Model                        ... NOT USED
CABS basis                                  ... NOT available
Auxiliary Coulomb fitting basis             ... AVAILABLE
   # of basis functions in Aux-J            ...   1330
   # of shells in Aux-J                     ...    430
   Maximum angular momentum in Aux-J        ...      4
Auxiliary J/K fitting basis                 ... NOT available
Auxiliary Correlation fitting basis         ... NOT available
Auxiliary 'external' fitting basis          ... NOT available

Checking pre-screening integrals            ... done (  0.0 sec) Dimension = 320
   => SHARK Basis and OBASIS are compatible. Storing Pre-screening
Shell pair information
Shell pair cut-off parameter TPreSel        ...   2.5e-12
Total number of shell pairs                 ...     51360
Shell pairs after pre-screening             ...     36355
Total number of primitive shell pairs       ...    159900
Primitive shell pairs kept                  ...     74234
          la=0 lb=0:   8928 shell pairs
          la=1 lb=0:  10386 shell pairs
          la=1 lb=1:   3015 shell pairs
          la=2 lb=0:   5224 shell pairs
          la=2 lb=1:   3148 shell pairs
          la=2 lb=2:    850 shell pairs
          la=3 lb=0:   2422 shell pairs
          la=3 lb=1:   1488 shell pairs
          la=3 lb=2:    724 shell pairs
          la=3 lb=3:    170 shell pairs

Checking whether 4 symmetric matrices of dimension 828 fit in memory
:Max Core in MB      =   3000.00
 MB in use           =     47.55
 MB left             =   2952.45
 MB needed           =     10.47
 Data fit in memory  = YES
Calculating RI/J V-Matrix + Cholesky decomp.... done (  0.2 sec)
Calculating Nuclear repulsion               ... done (  0.0 sec) ENN=   1861.115687571553 Eh

Diagonalization of the overlap matrix:
Smallest eigenvalue                        ... 1.003e-05
Time for diagonalization                   ...    0.212 sec
Threshold for overlap eigenvalues          ... 1.000e-07
Number of eigenvalues below threshold      ... 0
Time for construction of square roots      ...    0.147 sec
Total time needed                          ...    0.370 sec

-------------------
DFT GRID GENERATION
-------------------

General Integration Accuracy     IntAcc      ... 4.959
Radial Grid Type                 RadialGrid  ... OptM3 with GC (2021)
Angular Grid (max. ang.)         AngularGrid ... 6 (Lebedev-590)
Angular grid pruning method      GridPruning ... 4 (adaptive)
Weight generation scheme         WeightScheme... mBecke (2022)
Basis function cutoff            BFCut       ... 1.0000e-11
Integration weight cutoff        WCut        ... 1.0000e-14
Partially contracted basis set               ... off
Rotationally invariant grid construction     ... off
Angular grids for H and He will be reduced by one unit

Total number of grid points                  ...   459056
Total number of batches                      ...     7194
Average number of points per batch           ...       63
Average number of grid points per atom       ...    12080

--------------------
COSX GRID GENERATION
--------------------

GRIDX 1
-------
General Integration Accuracy     IntAcc      ... 4.020
Radial Grid Type                 RadialGrid  ... OptM3 with GC (2021)
Angular Grid (max. ang.)         AngularGrid ... 2 (Lebedev-110)
Angular grid pruning method      GridPruning ... 4 (adaptive)
Weight generation scheme         WeightScheme... mBecke (2022)
Basis function cutoff            BFCut       ... 1.0000e-11
Integration weight cutoff        WCut        ... 1.0000e-14
Partially contracted basis set               ... on
Rotationally invariant grid construction     ... off
Angular grids for H and He will be reduced by one unit

Total number of grid points                  ...    52427
Total number of batches                      ...      430
Average number of points per batch           ...      121
Average number of grid points per atom       ...     1380
UseSFitting                                  ... on

GRIDX 2
-------
General Integration Accuracy     IntAcc      ... 4.338
Radial Grid Type                 RadialGrid  ... OptM3 with GC (2021)
Angular Grid (max. ang.)         AngularGrid ... 3 (Lebedev-194)
Angular grid pruning method      GridPruning ... 4 (adaptive)
Weight generation scheme         WeightScheme... mBecke (2022)
Basis function cutoff            BFCut       ... 1.0000e-11
Integration weight cutoff        WCut        ... 1.0000e-14
Partially contracted basis set               ... on
Rotationally invariant grid construction     ... off
Angular grids for H and He will be reduced by one unit

Total number of grid points                  ...   114991
Total number of batches                      ...      922
Average number of points per batch           ...      124
Average number of grid points per atom       ...     3026
UseSFitting                                  ... on

GRIDX 3
-------
General Integration Accuracy     IntAcc      ... 4.871
Radial Grid Type                 RadialGrid  ... OptM3 with GC (2021)
Angular Grid (max. ang.)         AngularGrid ... 4 (Lebedev-302)
Angular grid pruning method      GridPruning ... 4 (adaptive)
Weight generation scheme         WeightScheme... mBecke (2022)
Basis function cutoff            BFCut       ... 1.0000e-11
Integration weight cutoff        WCut        ... 1.0000e-14
Partially contracted basis set               ... on
Rotationally invariant grid construction     ... off
Angular grids for H and He will be reduced by one unit

Total number of grid points                  ...   212358
Total number of batches                      ...     1680
Average number of points per batch           ...      126
Average number of grid points per atom       ...     5588
UseSFitting                                  ... on
Grids setup in  19.4 sec
Initializing property integral containers    ... done (  0.0 sec)

SHARK setup successfully completed in  21.0 seconds

Maximum memory used throughout the entire STARTUP-calculation: 144.4 MB


           ************************************************************
           *        Program running with 4 parallel MPI-processes     *
           *              working on a common directory               *
           ************************************************************
-------------------------------------------------------------------------------
                                 ORCA GUESS
                   Start orbitals & Density for SCF / CASSCF
-------------------------------------------------------------------------------

------------
SCF SETTINGS
------------
Hamiltonian:
 Density Functional     Method          .... DFT(GTOs)
 Exchange Functional    Exchange        .... M062X
 Correlation Functional Correlation     .... M062X
 Gradients option       PostSCFGGA      .... off
 Hybrid DFT is turned on
   Fraction HF Exchange ScalHFX         ....  0.540000
   Scaling of DF-GGA-X  ScalDFX         ....  0.460000
   Scaling of DF-GGA-C  ScalDFC         ....  1.000000
   Scaling of DF-LDA-C  ScalLDAC        ....  1.000000
   Perturbative correction              ....  0.000000
 RI-approximation to the Coulomb term is turned on
   Number of AuxJ basis functions       .... 1330
   RIJ-COSX (HFX calculated with COS-X)).... on


General Settings:
 Integral files         IntName         .... tddft
 Hartree-Fock type      HFTyp           .... RHF
 Total Charge           Charge          ....    0
 Multiplicity           Mult            ....    1
 Number of Electrons    NEL             ....  162
 Basis Dimension        Dim             ....  828
 Nuclear Repulsion      ENuc            ....   1861.1156875716 Eh

Convergence Acceleration:
 AO-DIIS                CNVDIIS         .... on
   Start iteration      DIISMaxIt       ....    12
   Startup error        DIISStart       ....  0.200000
   # of expansion vecs  DIISMaxEq       ....     5
   Bias factor          DIISBfac        ....   1.050
   Max. coefficient     DIISMaxC        ....  10.000
 MO-DIIS                CNVKDIIS        .... off
 Trust-Rad. Augm. Hess. CNVTRAH         .... auto
   Auto Start mean grad. ratio tolernc. ....  1.125000
   Auto Start start iteration           ....     1
   Auto Start num. interpolation iter.  ....    10
   Max. Number of Micro iterations      ....    24
   Max. Number of Macro iterations      .... Maxiter - #DIIS iter
   Number of Davidson start vectors     ....     2
   Converg. threshold    (grad. norm)   ....   1.000e-05
   Grad. Scal. Fac. for Micro threshold ....   0.100
   Minimum threshold for Micro iter.    ....   1.000e-02
   NR start threshold (gradient norm)   ....   1.000e-04
   Initial trust radius                 ....   0.400
   Minimum AH scaling param. (alpha)    ....   1.000
   Maximum AH scaling param. (alpha)    .... 1000.000
   Quad. conv. algorithm                .... NR
   White noise on init. David. guess    .... on
   Maximum white noise                  ....   0.010
   Pseudo random numbers                .... off
   Inactive MOs                         .... canonical
   Orbital update algorithm             .... Taylor
   Preconditioner                       .... Diag
   Full preconditioner red. dimension   ....   250
 SOSCF                 CNVSOSCF           .... on
   Start iteration     SOSCFMaxIt         ....   150
   Startup grad/error  SOSCFStart         ....  0.003300
   Hessian update      SOSCFHessUp        .... L-BFGS
   Autom. constraints  SOSCFAutoConstrain .... off
 Level Shifting         CNVShift        .... on
   Level shift para.    LevelShift      ....    0.2500
   Turn off err/grad.   ShiftErr        ....    0.0010
 Zerner damping         CNVZerner       .... off
 Static damping         CNVDamp         .... on
   Fraction old density DampFac         ....    0.7000
   Max. Damping (<1)    DampMax         ....    0.9800
   Min. Damping (>=0)   DampMin         ....    0.0000
   Turn off err/grad.   DampErr         ....    0.1000

SCF Procedure:
 Maximum # iterations   MaxIter         ....   125
 SCF integral mode      SCFMode         .... Direct
   Integral package                     .... SHARK and LIBINT hybrid scheme
 Reset frequency        DirectResetFreq ....    20
 Integral Threshold     Thresh          ....  2.500e-11 Eh
 Primitive CutOff       TCut            ....  2.500e-12 Eh

Convergence Tolerance:
 Convergence Check Mode ConvCheckMode   .... Total+1el-Energy
 Convergence forced     ConvForced      .... 1
 Energy Change          TolE            ....  1.000e-08 Eh
 1-El. energy change                    ....  1.000e-05 Eh
 Orbital Gradient       TolG            ....  1.000e-05
 Orbital Rotation angle TolX            ....  1.000e-05
 DIIS Error             TolErr          ....  5.000e-07

---------------------
INITIAL GUESS: MOREAD
---------------------
Guess MOs are being read from file: tddft.ges
Input Geometry matches current geometry (good)
Input basis set matches current basis set (good)
Occupation numbers will be reassigned to an Aufbau configuration
MOs were renormalized
MOs were reorthogonalized (Cholesky)
                      ------------------
                      INITIAL GUESS DONE (   0.9 sec)
                      ------------------
             **** ENERGY FILE WAS UPDATED (tddft.en.tmp) ****
Finished Guess after   1.6 sec
Maximum memory used throughout the entire GUESS-calculation: 90.5 MB


           ************************************************************
           *        Program running with 4 parallel MPI-processes     *
           *              working on a common directory               *
           ************************************************************

-------------------------------------------------------------------------------------------
                                      ORCA LEAN-SCF
                              memory conserving SCF solver
-------------------------------------------------------------------------------------------

--------------------
CPCM SOLVATION MODEL
--------------------
CPCM parameters:
  Epsilon                                         ...       8.9990
  Refrac                                          ...       1.4242
  Rsolv                                           ...       1.3000
  Surface type                                    ... GAUSSIAN VDW
  Discretization scheme                           ... Constant charge density
    Threshold for H atoms                         ...       5.0000 (charges/Ang^2)
    Threshold for non-H atoms                     ...       5.0000 (charges/Ang^2)
  Epsilon function type                           ...         CPCM
Solvent:                                          ... DICHLOROMETHANE
Radii:
  Scheme                                          ... Element-dependent radii
  Radius for N  used is    3.5149 Bohr (=   1.8600 Ang.)
  Radius for H  used is    2.4944 Bohr (=   1.3200 Ang.)
  Radius for C  used is    3.8550 Bohr (=   2.0400 Ang.)
Calculating surface                               ...        done! (  0.0s)
Cavity surface points                             ...         3512
Cavity Volume                                     ...    2435.1087
Cavity Surface-area                               ...    1185.7219
Calculating surface distance matrix               ...        done! (  0.5s)
Performing Cholesky decomposition & store         ...        done! (  1.3s)
Overall time for CPCM initialization              ...                 1.8s

----------------------------------------D-I-I-S--------------------------------------------
Iteration    Energy (Eh)           Delta-E    RMSDP     MaxDP     DIISErr   Damp  Time(sec)
-------------------------------------------------------------------------------------------
               ***  Starting incremental Fock matrix formation  ***
                              *** Initializing SOSCF ***
---------------------------------------S-O-S-C-F--------------------------------------
Iteration    Energy (Eh)           Delta-E    RMSDP     MaxDP     MaxGrad    Time(sec)
--------------------------------------------------------------------------------------
    1    -989.5183722329986722     0.00e+00  2.18e-06  3.76e-05  9.41e-07   130.7
               *** Restarting incremental Fock matrix formation ***
    2    -989.5183722330336877    -3.50e-11  5.19e-07  8.65e-06  1.05e-06   205.4
                  *** Gradient check signals convergence ***

               *****************************************************
               *                     SUCCESS                       *
               *           SCF CONVERGED AFTER   2 CYCLES          *
               *****************************************************

Recomputing exchange energy using gridx3       ... done (  235.991 sec)
Old exchange energy                            :    -73.019715734 Eh
New exchange energy                            :    -73.019707978 Eh
Exchange energy change after final integration :      0.000007756 Eh
Total energy after final integration           :   -989.518364511 Eh
             **** ENERGY FILE WAS UPDATED (tddft.en.tmp) ****

----------------
TOTAL SCF ENERGY
----------------

Total Energy       :       -989.51836451072620 Eh          -26926.16360 eV

Components:
Nuclear Repulsion  :       1861.11568757155305 Eh           50643.53253 eV
Electronic Energy  :      -2850.61511914218181 Eh          -77569.18093 eV
One Electron Energy:      -5037.80848147812958 Eh         -137085.73809 eV
Two Electron Energy:       2187.19336233594777 Eh           59516.55715 eV
CPCM Dielectric    :         -0.01894069586379 Eh              -0.51540 eV

Virial components:
Potential Energy   :      -1974.16671466051775 Eh          -53719.80737 eV
Kinetic Energy     :        984.64835014979144 Eh           26793.64377 eV
Virial Ratio       :          2.00494594274209

DFT components:
N(Alpha)           :       81.000009688538 electrons
N(Beta)            :       81.000009688538 electrons
N(Total)           :      162.000019377076 electrons
E(XC)              :      -68.213264572883 Eh       

CPCM Solvation Model Properties:
Surface-charge          :         -0.03532924469041
Corrected charge        :          0.00000000000000
Outlying charge corr.   :          0.00005968528577 Eh               0.00162 eV
Free-energy (cav+disp)  :  This term is not implemented in the current solvation scheme

---------------
SCF CONVERGENCE
---------------

  Last Energy change         ...    3.5016e-11  Tolerance :   1.0000e-08
  Last MAX-Density change    ...    8.6455e-06  Tolerance :   1.0000e-07
  Last RMS-Density change    ...    5.1855e-07  Tolerance :   5.0000e-09
  Last DIIS Error            ...    4.4530e-06  Tolerance :   5.0000e-07
  Last Orbital Gradient      ...    1.0537e-06  Tolerance :   1.0000e-05
  Last Orbital Rotation      ...    3.9521e-06  Tolerance :   1.0000e-05


----------------
ORBITAL ENERGIES
----------------

  NO   OCC          E(Eh)            E(eV) 
   0   2.0000     -14.794560      -402.5804 
   1   2.0000     -14.794559      -402.5804 
   2   2.0000     -14.733177      -400.9101 
   3   2.0000     -14.733175      -400.9101 
   4   2.0000     -10.596075      -288.3339 
   5   2.0000     -10.596074      -288.3338 
   6   2.0000     -10.596038      -288.3329 
   7   2.0000     -10.596037      -288.3328 
   8   2.0000     -10.577270      -287.8221 
   9   2.0000     -10.577269      -287.8221 
  10   2.0000     -10.577237      -287.8213 
  11   2.0000     -10.577237      -287.8212 
  12   2.0000     -10.557396      -287.2813 
  13   2.0000     -10.557393      -287.2813 
  14   2.0000     -10.557391      -287.2812 
  15   2.0000     -10.557388      -287.2811 
  16   2.0000     -10.554296      -287.1970 
  17   2.0000     -10.554294      -287.1969 
  18   2.0000     -10.553368      -287.1717 
  19   2.0000     -10.553365      -287.1717 
  20   2.0000     -10.541421      -286.8466 
  21   2.0000     -10.541420      -286.8466 
  22   2.0000     -10.540400      -286.8189 
  23   2.0000     -10.540400      -286.8189 
  24   2.0000      -1.111897       -30.2563 
  25   2.0000      -1.110087       -30.2070 
  26   2.0000      -1.064100       -28.9556 
  27   2.0000      -1.061135       -28.8750 
  28   2.0000      -0.929288       -25.2872 
  29   2.0000      -0.905382       -24.6367 
  30   2.0000      -0.899363       -24.4729 
  31   2.0000      -0.897605       -24.4251 
  32   2.0000      -0.893967       -24.3261 
  33   2.0000      -0.862809       -23.4782 
  34   2.0000      -0.862354       -23.4659 
  35   2.0000      -0.844240       -22.9729 
  36   2.0000      -0.820678       -22.3318 
  37   2.0000      -0.755930       -20.5699 
  38   2.0000      -0.748424       -20.3657 
  39   2.0000      -0.691224       -18.8092 
  40   2.0000      -0.686702       -18.6861 
  41   2.0000      -0.682304       -18.5664 
  42   2.0000      -0.671872       -18.2826 
  43   2.0000      -0.664814       -18.0905 
  44   2.0000      -0.658288       -17.9129 
  45   2.0000      -0.642865       -17.4933 
  46   2.0000      -0.632926       -17.2228 
  47   2.0000      -0.600169       -16.3314 
  48   2.0000      -0.589990       -16.0544 
  49   2.0000      -0.578710       -15.7475 
  50   2.0000      -0.572923       -15.5900 
  51   2.0000      -0.534222       -14.5369 
  52   2.0000      -0.524889       -14.2829 
  53   2.0000      -0.518530       -14.1099 
  54   2.0000      -0.517602       -14.0847 
  55   2.0000      -0.514847       -14.0097 
  56   2.0000      -0.510427       -13.8894 
  57   2.0000      -0.498239       -13.5578 
  58   2.0000      -0.495489       -13.4830 
  59   2.0000      -0.489665       -13.3245 
  60   2.0000      -0.487508       -13.2658 
  61   2.0000      -0.482069       -13.1178 
  62   2.0000      -0.474920       -12.9232 
  63   2.0000      -0.463587       -12.6148 
  64   2.0000      -0.449334       -12.2270 
  65   2.0000      -0.446234       -12.1426 
  66   2.0000      -0.444978       -12.1085 
  67   2.0000      -0.438755       -11.9391 
  68   2.0000      -0.430638       -11.7183 
  69   2.0000      -0.429433       -11.6855 
  70   2.0000      -0.400636       -10.9019 
  71   2.0000      -0.354282        -9.6405 
  72   2.0000      -0.348746        -9.4899 
  73   2.0000      -0.347366        -9.4523 
  74   2.0000      -0.344993        -9.3877 
  75   2.0000      -0.336812        -9.1651 
  76   2.0000      -0.334693        -9.1075 
  77   2.0000      -0.310911        -8.4603 
  78   2.0000      -0.306782        -8.3480 
  79   2.0000      -0.243498        -6.6259 
  80   2.0000      -0.242701        -6.6042 
  81   0.0000      -0.078369        -2.1325 
  82   0.0000      -0.078214        -2.1283 
  83   0.0000      -0.000787        -0.0214 
  84   0.0000       0.069524         1.8918 
  85   0.0000       0.084415         2.2970 
  86   0.0000       0.085558         2.3282 
  87   0.0000       0.086205         2.3458 
  88   0.0000       0.096389         2.6229 
  89   0.0000       0.096461         2.6248 
  90   0.0000       0.097868         2.6631 
  91   0.0000       0.101280         2.7560 
*Only the first 10 virtual orbitals were printed.

                    ********************************
                    * MULLIKEN POPULATION ANALYSIS *
                    ********************************

-----------------------
MULLIKEN ATOMIC CHARGES
-----------------------
   0 N :   -0.265184
   1 H :    0.179242
   2 C :   -0.219804
   3 C :   -0.236289
   4 N :   -0.506546
   5 C :   -0.235790
   6 H :    0.179296
   7 C :    0.222725
   8 N :   -0.506537
   9 C :   -0.235686
  10 C :   -0.330100
  11 C :    0.221820
  12 N :   -0.265166
  13 C :   -0.219232
  14 C :    0.254756
  15 C :    0.253329
  16 C :    0.221818
  17 H :    0.282341
  18 H :    0.282335
  19 C :    0.222857
  20 C :   -0.219157
  21 C :   -0.330449
  22 C :   -0.330126
  23 C :   -0.219746
  24 C :    0.253143
  25 C :   -0.236380
  26 C :   -0.330435
  27 C :    0.254856
  28 H :    0.185366
  29 H :    0.185341
  30 H :    0.189513
  31 H :    0.189545
  32 H :    0.185373
  33 H :    0.185340
  34 H :    0.189515
  35 H :    0.179286
  36 H :    0.189585
  37 H :    0.179246
Sum of atomic charges:    0.0000000

--------------------------------
MULLIKEN REDUCED ORBITAL CHARGES
--------------------------------
  0 N s       :     3.473887  s :     3.473887
      pz      :     1.508653  p :     3.733543
      px      :     1.116683
      py      :     1.108207
      dz2     :     0.004830  d :     0.053273
      dxz     :     0.004274
      dyz     :     0.015296
      dx2y2   :     0.015536
      dxy     :     0.013336
      f0      :     0.000881  f :     0.004481
      f+1     :     0.000752
      f-1     :     0.000661
      f+2     :     0.000088
      f-2     :     0.000507
      f+3     :     0.000700
      f-3     :     0.000891

  1 H s       :     0.800544  s :     0.800544
      pz      :     0.003929  p :     0.020214
      px      :     0.007686
      py      :     0.008599

  2 C s       :     3.254749  s :     3.254749
      pz      :     0.986725  p :     2.891799
      px      :     0.961294
      py      :     0.943780
      dz2     :     0.006058  d :     0.066317
      dxz     :     0.009475
      dyz     :     0.019878
      dx2y2   :     0.010451
      dxy     :     0.020455
      f0      :     0.001265  f :     0.006939
      f+1     :     0.000942
      f-1     :     0.000728
      f+2     :     0.000783
      f-2     :     0.000401
      f+3     :     0.001822
      f-3     :     0.000998

  3 C s       :     3.246932  s :     3.246932
      pz      :     0.990369  p :     2.917531
      px      :     0.962700
      py      :     0.964462
      dz2     :     0.005124  d :     0.064919
      dxz     :     0.019223
      dyz     :     0.008787
      dx2y2   :     0.010469
      dxy     :     0.021316
      f0      :     0.001251  f :     0.006907
      f+1     :     0.000606
      f-1     :     0.000893
      f+2     :     0.000853
      f-2     :     0.000338
      f+3     :     0.001035
      f-3     :     0.001932

  4 N s       :     3.655538  s :     3.655538
      pz      :     1.287372  p :     3.792231
      px      :     1.026027
      py      :     1.478832
      dz2     :     0.005236  d :     0.055318
      dxz     :     0.011955
      dyz     :     0.009256
      dx2y2   :     0.011937
      dxy     :     0.016934
      f0      :     0.000637  f :     0.003458
      f+1     :     0.000447
      f-1     :     0.000320
      f+2     :     0.000132
      f-2     :     0.000505
      f+3     :     0.000734
      f-3     :     0.000683

  5 C s       :     3.246573  s :     3.246573
      pz      :     0.989941  p :     2.917383
      px      :     0.984673
      py      :     0.942770
      dz2     :     0.005323  d :     0.064924
      dxz     :     0.017182
      dyz     :     0.010590
      dx2y2   :     0.013648
      dxy     :     0.018182
      f0      :     0.001240  f :     0.006909
      f+1     :     0.000667
      f-1     :     0.000853
      f+2     :     0.001062
      f-2     :     0.000113
      f+3     :     0.001119
      f-3     :     0.001855

  6 H s       :     0.800486  s :     0.800486
      pz      :     0.003982  p :     0.020219
      px      :     0.005924
      py      :     0.010312

  7 C s       :     3.117950  s :     3.117950
      pz      :     0.930751  p :     2.540633
      px      :     0.808374
      py      :     0.801508
      dz2     :     0.004891  d :     0.106406
      dxz     :     0.028990
      dyz     :     0.037186
      dx2y2   :     0.007543
      dxy     :     0.027796
      f0      :     0.002099  f :     0.012286
      f+1     :     0.000991
      f-1     :     0.001315
      f+2     :     0.000555
      f-2     :     0.002197
      f+3     :     0.002603
      f-3     :     0.002524

  8 N s       :     3.655534  s :     3.655534
      pz      :     1.287366  p :     3.792227
      px      :     1.026016
      py      :     1.478844
      dz2     :     0.005236  d :     0.055319
      dxz     :     0.011956
      dyz     :     0.009256
      dx2y2   :     0.011937
      dxy     :     0.016934
      f0      :     0.000637  f :     0.003458
      f+1     :     0.000447
      f-1     :     0.000320
      f+2     :     0.000132
      f-2     :     0.000505
      f+3     :     0.000734
      f-3     :     0.000683

  9 C s       :     3.246503  s :     3.246503
      pz      :     0.989949  p :     2.917345
      px      :     0.984662
      py      :     0.942735
      dz2     :     0.005323  d :     0.064929
      dxz     :     0.017181
      dyz     :     0.010589
      dx2y2   :     0.013652
      dxy     :     0.018183
      f0      :     0.001240  f :     0.006909
      f+1     :     0.000667
      f-1     :     0.000853
      f+2     :     0.001062
      f-2     :     0.000113
      f+3     :     0.001119
      f-3     :     0.001855

 10 C s       :     3.227357  s :     3.227357
      pz      :     1.003053  p :     3.035597
      px      :     1.044511
      py      :     0.988032
      dz2     :     0.004735  d :     0.060670
      dxz     :     0.013767
      dyz     :     0.016127
      dx2y2   :     0.012090
      dxy     :     0.013950
      f0      :     0.001131  f :     0.006476
      f+1     :     0.000764
      f-1     :     0.000806
      f+2     :     0.000609
      f-2     :     0.000430
      f+3     :     0.001464
      f-3     :     0.001272

 11 C s       :     3.118239  s :     3.118239
      pz      :     0.930270  p :     2.541221
      px      :     0.829164
      py      :     0.781787
      dz2     :     0.004894  d :     0.106435
      dxz     :     0.028531
      dyz     :     0.037799
      dx2y2   :     0.013983
      dxy     :     0.021228
      f0      :     0.002095  f :     0.012285
      f+1     :     0.000958
      f-1     :     0.001360
      f+2     :     0.000977
      f-2     :     0.001766
      f+3     :     0.001596
      f-3     :     0.003533

 12 N s       :     3.473879  s :     3.473879
      pz      :     1.508648  p :     3.733530
      px      :     1.116678
      py      :     1.108205
      dz2     :     0.004831  d :     0.053275
      dxz     :     0.004274
      dyz     :     0.015296
      dx2y2   :     0.015538
      dxy     :     0.013335
      f0      :     0.000881  f :     0.004481
      f+1     :     0.000752
      f-1     :     0.000661
      f+2     :     0.000088
      f-2     :     0.000507
      f+3     :     0.000700
      f-3     :     0.000891

 13 C s       :     3.254263  s :     3.254263
      pz      :     0.987396  p :     2.891683
      px      :     0.937150
      py      :     0.967137
      dz2     :     0.005864  d :     0.066345
      dxz     :     0.011581
      dyz     :     0.017996
      dx2y2   :     0.013176
      dxy     :     0.017728
      f0      :     0.001278  f :     0.006941
      f+1     :     0.000865
      f-1     :     0.000786
      f+2     :     0.001033
      f-2     :     0.000164
      f+3     :     0.001743
      f-3     :     0.001072

 14 C s       :     3.112894  s :     3.112894
      pz      :     0.912431  p :     2.501265
      px      :     0.796236
      py      :     0.792598
      dz2     :     0.003496  d :     0.118379
      dxz     :     0.035005
      dyz     :     0.027224
      dx2y2   :     0.024932
      dxy     :     0.027722
      f0      :     0.001903  f :     0.012706
      f+1     :     0.001219
      f-1     :     0.001021
      f+2     :     0.000592
      f-2     :     0.001793
      f+3     :     0.003344
      f-3     :     0.002833

 15 C s       :     3.113460  s :     3.113460
      pz      :     0.912690  p :     2.502131
      px      :     0.794185
      py      :     0.795256
      dz2     :     0.003403  d :     0.118374
      dxz     :     0.036202
      dyz     :     0.026110
      dx2y2   :     0.022256
      dxy     :     0.030404
      f0      :     0.001909  f :     0.012706
      f+1     :     0.001238
      f-1     :     0.000992
      f+2     :     0.000893
      f-2     :     0.001490
      f+3     :     0.004502
      f-3     :     0.001681

 16 C s       :     3.118243  s :     3.118243
      pz      :     0.930270  p :     2.541231
      px      :     0.829205
      py      :     0.781756
      dz2     :     0.004891  d :     0.106423
      dxz     :     0.028531
      dyz     :     0.037803
      dx2y2   :     0.013972
      dxy     :     0.021226
      f0      :     0.002095  f :     0.012285
      f+1     :     0.000958
      f-1     :     0.001360
      f+2     :     0.000977
      f-2     :     0.001766
      f+3     :     0.001596
      f-3     :     0.003533

 17 H s       :     0.677595  s :     0.677595
      pz      :     0.009445  p :     0.040064
      px      :     0.025224
      py      :     0.005395

 18 H s       :     0.677601  s :     0.677601
      pz      :     0.009445  p :     0.040064
      px      :     0.025224
      py      :     0.005395

 19 C s       :     3.117836  s :     3.117836
      pz      :     0.930744  p :     2.540609
      px      :     0.808371
      py      :     0.801493
      dz2     :     0.004891  d :     0.106412
      dxz     :     0.028993
      dyz     :     0.037187
      dx2y2   :     0.007551
      dxy     :     0.027789
      f0      :     0.002099  f :     0.012286
      f+1     :     0.000991
      f-1     :     0.001315
      f+2     :     0.000556
      f-2     :     0.002197
      f+3     :     0.002604
      f-3     :     0.002524

 20 C s       :     3.254210  s :     3.254210
      pz      :     0.987392  p :     2.891663
      px      :     0.937135
      py      :     0.967137
      dz2     :     0.005863  d :     0.066342
      dxz     :     0.011581
      dyz     :     0.017996
      dx2y2   :     0.013175
      dxy     :     0.017727
      f0      :     0.001278  f :     0.006941
      f+1     :     0.000865
      f-1     :     0.000785
      f+2     :     0.001033
      f-2     :     0.000164
      f+3     :     0.001743
      f-3     :     0.001072

 21 C s       :     3.227720  s :     3.227720
      pz      :     1.004081  p :     3.035582
      px      :     1.011354
      py      :     1.020147
      dz2     :     0.004375  d :     0.060672
      dxz     :     0.017930
      dyz     :     0.012350
      dx2y2   :     0.011381
      dxy     :     0.014636
      f0      :     0.001151  f :     0.006476
      f+1     :     0.000776
      f-1     :     0.000760
      f+2     :     0.000597
      f-2     :     0.000445
      f+3     :     0.001158
      f-3     :     0.001588

 22 C s       :     3.227314  s :     3.227314
      pz      :     1.003069  p :     3.035667
      px      :     1.044519
      py      :     0.988078
      dz2     :     0.004734  d :     0.060668
      dxz     :     0.013767
      dyz     :     0.016128
      dx2y2   :     0.012092
      dxy     :     0.013947
      f0      :     0.001131  f :     0.006477
      f+1     :     0.000764
      f-1     :     0.000806
      f+2     :     0.000609
      f-2     :     0.000430
      f+3     :     0.001464
      f-3     :     0.001272

 23 C s       :     3.254690  s :     3.254690
      pz      :     0.986725  p :     2.891803
      px      :     0.961259
      py      :     0.943818
      dz2     :     0.006059  d :     0.066314
      dxz     :     0.009475
      dyz     :     0.019876
      dx2y2   :     0.010450
      dxy     :     0.020454
      f0      :     0.001265  f :     0.006939
      f+1     :     0.000942
      f-1     :     0.000728
      f+2     :     0.000783
      f-2     :     0.000401
      f+3     :     0.001822
      f-3     :     0.000998

 24 C s       :     3.113659  s :     3.113659
      pz      :     0.912691  p :     2.502128
      px      :     0.794225
      py      :     0.795212
      dz2     :     0.003401  d :     0.118364
      dxz     :     0.036203
      dyz     :     0.026110
      dx2y2   :     0.022247
      dxy     :     0.030403
      f0      :     0.001909  f :     0.012706
      f+1     :     0.001238
      f-1     :     0.000992
      f+2     :     0.000893
      f-2     :     0.001490
      f+3     :     0.004502
      f-3     :     0.001681

 25 C s       :     3.247045  s :     3.247045
      pz      :     0.990366  p :     2.917501
      px      :     0.962680
      py      :     0.964455
      dz2     :     0.005124  d :     0.064926
      dxz     :     0.019224
      dyz     :     0.008787
      dx2y2   :     0.010471
      dxy     :     0.021320
      f0      :     0.001251  f :     0.006907
      f+1     :     0.000606
      f-1     :     0.000893
      f+2     :     0.000853
      f-2     :     0.000338
      f+3     :     0.001035
      f-3     :     0.001932

 26 C s       :     3.227712  s :     3.227712
      pz      :     1.004060  p :     3.035581
      px      :     1.011357
      py      :     1.020164
      dz2     :     0.004373  d :     0.060666
      dxz     :     0.017932
      dyz     :     0.012352
      dx2y2   :     0.011373
      dxy     :     0.014637
      f0      :     0.001151  f :     0.006476
      f+1     :     0.000776
      f-1     :     0.000760
      f+2     :     0.000597
      f-2     :     0.000446
      f+3     :     0.001158
      f-3     :     0.001588

 27 C s       :     3.112842  s :     3.112842
      pz      :     0.912451  p :     2.501213
      px      :     0.796183
      py      :     0.792579
      dz2     :     0.003495  d :     0.118385
      dxz     :     0.035004
      dyz     :     0.027223
      dx2y2   :     0.024936
      dxy     :     0.027727
      f0      :     0.001903  f :     0.012706
      f+1     :     0.001219
      f-1     :     0.001021
      f+2     :     0.000592
      f-2     :     0.001793
      f+3     :     0.003344
      f-3     :     0.002833

 28 H s       :     0.794213  s :     0.794213
      pz      :     0.003892  p :     0.020421
      px      :     0.010641
      py      :     0.005889

 29 H s       :     0.794243  s :     0.794243
      pz      :     0.003936  p :     0.020416
      px      :     0.008801
      py      :     0.007679

 30 H s       :     0.789777  s :     0.789777
      pz      :     0.004334  p :     0.020710
      px      :     0.007114
      py      :     0.009261

 31 H s       :     0.789745  s :     0.789745
      pz      :     0.004282  p :     0.020710
      px      :     0.009007
      py      :     0.007422

 32 H s       :     0.794206  s :     0.794206
      pz      :     0.003892  p :     0.020421
      px      :     0.010641
      py      :     0.005888

 33 H s       :     0.794244  s :     0.794244
      pz      :     0.003936  p :     0.020416
      px      :     0.008801
      py      :     0.007678

 34 H s       :     0.789775  s :     0.789775
      pz      :     0.004334  p :     0.020710
      px      :     0.007115
      py      :     0.009261

 35 H s       :     0.800496  s :     0.800496
      pz      :     0.003982  p :     0.020219
      px      :     0.005924
      py      :     0.010313

 36 H s       :     0.789705  s :     0.789705
      pz      :     0.004282  p :     0.020710
      px      :     0.009006
      py      :     0.007422

 37 H s       :     0.800541  s :     0.800541
      pz      :     0.003929  p :     0.020214
      px      :     0.007685
      py      :     0.008599



                     *******************************
                     * LOEWDIN POPULATION ANALYSIS *
                     *******************************

----------------------
LOEWDIN ATOMIC CHARGES
----------------------
   0 N :    0.254752
   1 H :    0.148835
   2 C :   -0.100499
   3 C :   -0.117809
   4 N :    0.077829
   5 C :   -0.117806
   6 H :    0.148829
   7 C :   -0.190933
   8 N :    0.077835
   9 C :   -0.117809
  10 C :   -0.091711
  11 C :   -0.190916
  12 N :    0.254755
  13 C :   -0.100484
  14 C :   -0.237911
  15 C :   -0.237924
  16 C :   -0.190912
  17 H :    0.193385
  18 H :    0.193384
  19 C :   -0.190931
  20 C :   -0.100478
  21 C :   -0.091706
  22 C :   -0.091718
  23 C :   -0.100503
  24 C :   -0.237926
  25 C :   -0.117811
  26 C :   -0.091700
  27 C :   -0.237911
  28 H :    0.155114
  29 H :    0.155122
  30 H :    0.171912
  31 H :    0.171917
  32 H :    0.155112
  33 H :    0.155122
  34 H :    0.171914
  35 H :    0.148830
  36 H :    0.171917
  37 H :    0.148835

-------------------------------
LOEWDIN REDUCED ORBITAL CHARGES
-------------------------------
  0 N s       :     2.888551  s :     2.888551
      pz      :     1.322029  p :     3.605126
      px      :     1.140749
      py      :     1.142348
      dz2     :     0.014815  d :     0.233668
      dxz     :     0.012411
      dyz     :     0.048732
      dx2y2   :     0.088023
      dxy     :     0.069687
      f0      :     0.001215  f :     0.017903
      f+1     :     0.001711
      f-1     :     0.001710
      f+2     :     0.000467
      f-2     :     0.003601
      f+3     :     0.002662
      f-3     :     0.006537

  1 H s       :     0.790079  s :     0.790079
      pz      :     0.013227  p :     0.061086
      px      :     0.022495
      py      :     0.025364

  2 C s       :     2.762948  s :     2.762948
      pz      :     0.897341  p :     2.924118
      px      :     0.986603
      py      :     1.040174
      dz2     :     0.027050  d :     0.367075
      dxz     :     0.031147
      dyz     :     0.060302
      dx2y2   :     0.100595
      dxy     :     0.147981
      f0      :     0.002908  f :     0.046358
      f+1     :     0.003785
      f-1     :     0.004008
      f+2     :     0.007157
      f-2     :     0.002715
      f+3     :     0.017410
      f-3     :     0.008374

  3 C s       :     2.769038  s :     2.769038
      pz      :     0.899102  p :     2.934789
      px      :     1.053268
      py      :     0.982418
      dz2     :     0.026585  d :     0.367521
      dxz     :     0.057881
      dyz     :     0.031041
      dx2y2   :     0.100748
      dxy     :     0.151266
      f0      :     0.002878  f :     0.046461
      f+1     :     0.003980
      f-1     :     0.003622
      f+2     :     0.007393
      f-2     :     0.002115
      f+3     :     0.008360
      f-3     :     0.018112

  4 N s       :     3.044011  s :     3.044011
      pz      :     1.156021  p :     3.660042
      px      :     1.106051
      py      :     1.397970
      dz2     :     0.016546  d :     0.199110
      dxz     :     0.041534
      dyz     :     0.012690
      dx2y2   :     0.056762
      dxy     :     0.071578
      f0      :     0.001112  f :     0.019007
      f+1     :     0.001802
      f-1     :     0.000821
      f+2     :     0.000338
      f-2     :     0.003524
      f+3     :     0.006954
      f-3     :     0.004457

  5 C s       :     2.769036  s :     2.769036
      pz      :     0.899157  p :     2.934795
      px      :     1.051735
      py      :     0.983903
      dz2     :     0.027348  d :     0.367515
      dxz     :     0.049586
      dyz     :     0.038505
      dx2y2   :     0.102489
      dxy     :     0.149587
      f0      :     0.002845  f :     0.046460
      f+1     :     0.003993
      f-1     :     0.003673
      f+2     :     0.008747
      f-2     :     0.000726
      f+3     :     0.009958
      f-3     :     0.016517

  6 H s       :     0.790088  s :     0.790088
      pz      :     0.013354  p :     0.061083
      px      :     0.018164
      py      :     0.029565

  7 C s       :     2.698611  s :     2.698611
      pz      :     0.853732  p :     2.788601
      px      :     0.961009
      py      :     0.973860
      dz2     :     0.042521  d :     0.623617
      dxz     :     0.096659
      dyz     :     0.113794
      dx2y2   :     0.173427
      dxy     :     0.197216
      f0      :     0.005319  f :     0.080104
      f+1     :     0.005076
      f-1     :     0.006270
      f+2     :     0.004955
      f-2     :     0.015973
      f+3     :     0.021944
      f-3     :     0.020567

  8 N s       :     3.044009  s :     3.044009
      pz      :     1.156010  p :     3.660037
      px      :     1.106053
      py      :     1.397973
      dz2     :     0.016546  d :     0.199112
      dxz     :     0.041535
      dyz     :     0.012690
      dx2y2   :     0.056763
      dxy     :     0.071578
      f0      :     0.001112  f :     0.019007
      f+1     :     0.001802
      f-1     :     0.000821
      f+2     :     0.000338
      f-2     :     0.003524
      f+3     :     0.006955
      f-3     :     0.004456

  9 C s       :     2.769037  s :     2.769037
      pz      :     0.899162  p :     2.934800
      px      :     1.051738
      py      :     0.983900
      dz2     :     0.027350  d :     0.367512
      dxz     :     0.049583
      dyz     :     0.038503
      dx2y2   :     0.102488
      dxy     :     0.149588
      f0      :     0.002845  f :     0.046460
      f+1     :     0.003993
      f-1     :     0.003673
      f+2     :     0.008747
      f-2     :     0.000726
      f+3     :     0.009958
      f-3     :     0.016517

 10 C s       :     2.756141  s :     2.756141
      pz      :     0.895302  p :     2.928576
      px      :     1.020590
      py      :     1.012684
      dz2     :     0.025164  d :     0.367369
      dxz     :     0.044479
      dyz     :     0.052309
      dx2y2   :     0.095904
      dxy     :     0.149513
      f0      :     0.003063  f :     0.039626
      f+1     :     0.003705
      f-1     :     0.004068
      f+2     :     0.005943
      f-2     :     0.002193
      f+3     :     0.011192
      f-3     :     0.009461

 11 C s       :     2.698615  s :     2.698615
      pz      :     0.853146  p :     2.788602
      px      :     0.982433
      py      :     0.953023
      dz2     :     0.042802  d :     0.623598
      dxz     :     0.091025
      dyz     :     0.119182
      dx2y2   :     0.182111
      dxy     :     0.188478
      f0      :     0.005286  f :     0.080102
      f+1     :     0.004757
      f-1     :     0.006658
      f+2     :     0.007825
      f-2     :     0.013091
      f+3     :     0.014925
      f-3     :     0.027559

 12 N s       :     2.888550  s :     2.888550
      pz      :     1.322023  p :     3.605121
      px      :     1.140747
      py      :     1.142351
      dz2     :     0.014817  d :     0.233671
      dxz     :     0.012411
      dyz     :     0.048733
      dx2y2   :     0.088023
      dxy     :     0.069687
      f0      :     0.001215  f :     0.017903
      f+1     :     0.001711
      f-1     :     0.001710
      f+2     :     0.000467
      f-2     :     0.003601
      f+3     :     0.002662
      f-3     :     0.006537

 13 C s       :     2.762947  s :     2.762947
      pz      :     0.897315  p :     2.924114
      px      :     0.987669
      py      :     1.039130
      dz2     :     0.026352  d :     0.367067
      dxz     :     0.039942
      dyz     :     0.052220
      dx2y2   :     0.099979
      dxy     :     0.148574
      f0      :     0.002937  f :     0.046356
      f+1     :     0.003713
      f-1     :     0.004024
      f+2     :     0.008869
      f-2     :     0.001027
      f+3     :     0.015869
      f-3     :     0.009916

 14 C s       :     2.710592  s :     2.710592
      pz      :     0.837986  p :     2.800029
      px      :     0.988158
      py      :     0.973885
      dz2     :     0.044906  d :     0.647905
      dxz     :     0.106078
      dyz     :     0.091555
      dx2y2   :     0.214700
      dxy     :     0.190666
      f0      :     0.004682  f :     0.079385
      f+1     :     0.006184
      f-1     :     0.004701
      f+2     :     0.005044
      f-2     :     0.013440
      f+3     :     0.023373
      f-3     :     0.021960

 15 C s       :     2.710595  s :     2.710595
      pz      :     0.838226  p :     2.800045
      px      :     0.980258
      py      :     0.981562
      dz2     :     0.044535  d :     0.647898
      dxz     :     0.112462
      dyz     :     0.085359
      dx2y2   :     0.208652
      dxy     :     0.196890
      f0      :     0.004683  f :     0.079385
      f+1     :     0.006368
      f-1     :     0.004520
      f+2     :     0.006955
      f-2     :     0.011472
      f+3     :     0.031531
      f-3     :     0.013856

 16 C s       :     2.698617  s :     2.698617
      pz      :     0.853139  p :     2.788594
      px      :     0.982428
      py      :     0.953027
      dz2     :     0.042795  d :     0.623600
      dxz     :     0.091022
      dyz     :     0.119188
      dx2y2   :     0.182112
      dxy     :     0.188482
      f0      :     0.005286  f :     0.080101
      f+1     :     0.004757
      f-1     :     0.006657
      f+2     :     0.007824
      f-2     :     0.013092
      f+3     :     0.014925
      f-3     :     0.027560

 17 H s       :     0.689613  s :     0.689613
      pz      :     0.028800  p :     0.117002
      px      :     0.069767
      py      :     0.018435

 18 H s       :     0.689614  s :     0.689614
      pz      :     0.028799  p :     0.117002
      px      :     0.069767
      py      :     0.018436

 19 C s       :     2.698610  s :     2.698610
      pz      :     0.853723  p :     2.788597
      px      :     0.961008
      py      :     0.973866
      dz2     :     0.042520  d :     0.623619
      dxz     :     0.096657
      dyz     :     0.113798
      dx2y2   :     0.173429
      dxy     :     0.197215
      f0      :     0.005318  f :     0.080104
[...]
  0-1A  ->  1-1A    2.273858   18339.9   545.3   0.002079837   0.00026   0.01606   0.00157  -0.00041
  0-1A  ->  2-1A    2.471679   19935.4   501.6   0.005317076   0.00072   0.00238  -0.02668   0.00260
  0-1A  ->  3-1A    3.354723   27057.7   369.6   1.516118296   0.28037   0.52746   0.04451  -0.01331
  0-1A  ->  4-1A    3.389869   27341.1   365.7   1.639428742   0.30635  -0.04774   0.54884  -0.05332
  0-1A  ->  5-1A    3.981536   32113.3   311.4   0.000000005   0.00000   0.00000   0.00003  -0.00001
  0-1A  ->  6-1A    4.219775   34034.8   293.8   0.355535544   0.08270  -0.28649  -0.02388   0.00730
  0-1A  ->  7-1A    4.405770   35534.9   281.4   0.000000014   0.00000  -0.00006  -0.00001  -0.00000
  0-1A  ->  8-1A    4.508024   36359.7   275.0   0.082171535   0.02042   0.01220  -0.14171   0.01380
  0-1A  ->  9-1A    4.758689   38381.4   260.5   0.000000001   0.00000  -0.00001  -0.00001   0.00001
  0-1A  -> 10-1A    4.785905   38600.9   259.1   0.000000227   0.00000   0.00012  -0.00021   0.00002
  0-1A  -> 11-1A    4.809813   38793.8   257.8   0.000000001   0.00000   0.00000   0.00001   0.00001
  0-1A  -> 12-1A    4.827268   38934.5   256.8   0.000000005   0.00000   0.00001   0.00002   0.00002
  0-1A  -> 13-1A    4.831218   38966.4   256.6   0.000000001   0.00000  -0.00001   0.00001   0.00001
  0-1A  -> 14-1A    4.859402   39193.7   255.1   0.003069142   0.00082   0.00035   0.00311   0.02850
  0-1A  -> 15-1A    4.913578   39630.7   252.3   0.000000001   0.00000  -0.00000   0.00000  -0.00001
  0-1A  -> 16-1A    4.949467   39920.1   250.5   0.134967556   0.03682   0.01610  -0.19032   0.01852
  0-1A  -> 17-1A    5.194256   41894.5   238.7   0.000000559   0.00000  -0.00040  -0.00003   0.00003
  0-1A  -> 18-1A    5.219209   42095.8   237.6   0.151070745   0.04346   0.20769   0.01736  -0.00501
  0-1A  -> 19-1A    5.281973   42602.0   234.7   0.000000001   0.00000   0.00001  -0.00001  -0.00000
  0-1A  -> 20-1A    5.385901   43440.2   230.2   0.000000001   0.00000   0.00001   0.00000   0.00001
  0-1A  -> 21-1A    5.791415   46710.9   214.1   0.000000002   0.00000  -0.00001  -0.00001  -0.00002
  0-1A  -> 22-1A    5.968008   48135.2   207.7   0.000000001   0.00000  -0.00000   0.00001   0.00002
  0-1A  -> 23-1A    6.480434   52268.2   191.3   0.000000001   0.00000  -0.00001   0.00000   0.00002
  0-1A  -> 24-1A    6.526727   52641.6   190.0   0.243768083   0.08770  -0.29504  -0.02448   0.00721
  0-1A  -> 25-1A    6.596050   53200.7   188.0   0.000000001   0.00000   0.00001   0.00002  -0.00000
  0-1A  -> 26-1A    6.698348   54025.8   185.1   0.000169938   0.00006   0.00071   0.00072   0.00786
  0-1A  -> 27-1A    6.770999   54611.8   183.1   0.000000002   0.00000   0.00000   0.00002  -0.00002
  0-1A  -> 28-1A    6.783687   54714.1   182.8   0.048072929   0.01798  -0.01098   0.13297  -0.01320
  0-1A  -> 29-1A    6.867553   55390.6   180.5   0.000000492   0.00000   0.00010   0.00042  -0.00006
  0-1A  -> 30-1A    6.887595   55552.2   180.0   0.008354373   0.00317   0.05616   0.00381  -0.00173

------------------------------------------------------------------------------------------
                     CD SPECTRUM VIA TRANSITION ELECTRIC DIPOLE MOMENTS    
------------------------------------------------------------------------------------------
     Transition      Energy     Energy  Wavelength    R        MX        MY        MZ   
                      (eV)      (cm-1)    (nm)   (1e40*cgs)   (au)      (au)      (au)  
------------------------------------------------------------------------------------------
  0-1A  ->  1-1A    2.273858   18339.9   545.3   -0.00012  -0.00000   0.00000  -0.00002
  0-1A  ->  2-1A    2.471679   19935.4   501.6   -0.00003  -0.00000  -0.00002  -0.00017
  0-1A  ->  3-1A    3.354723   27057.7   369.6   -0.04409  -0.00003   0.00004   0.00002
  0-1A  ->  4-1A    3.389869   27341.1   365.7    0.09539   0.00005   0.00005   0.00003
  0-1A  ->  5-1A    3.981536   32113.3   311.4    0.00574  -0.01698  -0.09824  -0.99425
  0-1A  ->  6-1A    4.219775   34034.8   293.8   -0.04260   0.00005  -0.00002   0.00006
  0-1A  ->  7-1A    4.405770   35534.9   281.4    0.00001  -0.00012   0.00026   0.00063
  0-1A  ->  8-1A    4.508024   36359.7   275.0   -0.00181   0.00000   0.00000  -0.00005
  0-1A  ->  9-1A    4.758689   38381.4   260.5    0.00220   0.01073  -0.12329   0.01180
  0-1A  -> 10-1A    4.785905   38600.9   259.1   -0.00018  -0.00048   0.00006   0.00010
  0-1A  -> 11-1A    4.809813   38793.8   257.8    0.01722  -0.07012   0.05295   0.60950
  0-1A  -> 12-1A    4.827268   38934.5   256.8   -0.01864  -0.41652  -0.04596  -0.10437
  0-1A  -> 13-1A    4.831218   38966.4   256.6    0.00034   0.00159   0.00320   0.00933
  0-1A  -> 14-1A    4.859402   39193.7   255.1   -0.01061   0.00042   0.00007  -0.00020
  0-1A  -> 15-1A    4.913578   39630.7   252.3   -0.00795   0.00646   0.02243   0.22951
  0-1A  -> 16-1A    4.949467   39920.1   250.5    0.01696  -0.00008  -0.00004   0.00005
  0-1A  -> 17-1A    5.194256   41894.5   238.7   -0.00011   0.00002   0.00023  -0.00114
  0-1A  -> 18-1A    5.219209   42095.8   237.6   -0.00574  -0.00001  -0.00000  -0.00003
  0-1A  -> 19-1A    5.281973   42602.0   234.7   -0.00206   0.00840   0.05590   0.56776
  0-1A  -> 20-1A    5.385901   43440.2   230.2    0.00000  -0.00032  -0.00008   0.00067
  0-1A  -> 21-1A    5.791415   46710.9   214.1   -0.00002   0.00002  -0.00020   0.00057
  0-1A  -> 22-1A    5.968008   48135.2   207.7    0.00201   0.00213   0.00607   0.05510
  0-1A  -> 23-1A    6.480434   52268.2   191.3   -0.00000  -0.00002   0.00043  -0.00010
  0-1A  -> 24-1A    6.526727   52641.6   190.0   -0.02484   0.00005  -0.00005   0.00003
  0-1A  -> 25-1A    6.596050   53200.7   188.0   -0.00095   0.00655   0.04225   0.42635
  0-1A  -> 26-1A    6.698348   54025.8   185.1    0.00061   0.00001   0.00002   0.00001
  0-1A  -> 27-1A    6.770999   54611.8   183.1    0.02288  -0.01728  -0.09511  -0.95916
  0-1A  -> 28-1A    6.783687   54714.1   182.8   -0.00144   0.00005   0.00002   0.00017
  0-1A  -> 29-1A    6.867553   55390.6   180.5   -0.00001   0.00000   0.00003   0.00023
  0-1A  -> 30-1A    6.887595   55552.2   180.0   -0.00180  -0.00002   0.00000  -0.00003

------------------------------------------------------------------------------------------
                     CD SPECTRUM VIA TRANSITION VELOCITY DIPOLE MOMENTS    
------------------------------------------------------------------------------------------
     Transition      Energy     Energy  Wavelength    R        MX        MY        MZ   
                      (eV)      (cm-1)    (nm)   (1e40*cgs)   (au)      (au)      (au)  
------------------------------------------------------------------------------------------
  0-1A  ->  1-1A    2.273858   18339.9   545.3   -0.00012  -0.00000   0.00000  -0.00002
  0-1A  ->  2-1A    2.471679   19935.4   501.6   -0.00002  -0.00000  -0.00002  -0.00017
  0-1A  ->  3-1A    3.354723   27057.7   369.6   -0.04547  -0.00003   0.00004   0.00002
  0-1A  ->  4-1A    3.389869   27341.1   365.7    0.09862   0.00005   0.00005   0.00003
  0-1A  ->  5-1A    3.981536   32113.3   311.4    0.00621  -0.01698  -0.09824  -0.99425
  0-1A  ->  6-1A    4.219775   34034.8   293.8   -0.04429   0.00005  -0.00002   0.00006
  0-1A  ->  7-1A    4.405770   35534.9   281.4    0.00001  -0.00012   0.00026   0.00063
  0-1A  ->  8-1A    4.508024   36359.7   275.0   -0.00185   0.00000   0.00000  -0.00005
  0-1A  ->  9-1A    4.758689   38381.4   260.5    0.00233   0.01073  -0.12329   0.01180
  0-1A  -> 10-1A    4.785905   38600.9   259.1   -0.00018  -0.00048   0.00006   0.00010
  0-1A  -> 11-1A    4.809813   38793.8   257.8    0.02019  -0.07012   0.05295   0.60950
  0-1A  -> 12-1A    4.827268   38934.5   256.8   -0.02112  -0.41652  -0.04596  -0.10437
  0-1A  -> 13-1A    4.831218   38966.4   256.6    0.00034   0.00159   0.00320   0.00933
  0-1A  -> 14-1A    4.859402   39193.7   255.1   -0.01401   0.00042   0.00007  -0.00020
  0-1A  -> 15-1A    4.913578   39630.7   252.3   -0.00772   0.00646   0.02243   0.22951
  0-1A  -> 16-1A    4.949467   39920.1   250.5    0.01756  -0.00008  -0.00004   0.00005
  0-1A  -> 17-1A    5.194256   41894.5   238.7   -0.00011   0.00002   0.00023  -0.00114
  0-1A  -> 18-1A    5.219209   42095.8   237.6   -0.00593  -0.00001  -0.00000  -0.00003
  0-1A  -> 19-1A    5.281973   42602.0   234.7   -0.00268   0.00840   0.05590   0.56776
  0-1A  -> 20-1A    5.385901   43440.2   230.2    0.00000  -0.00032  -0.00008   0.00067
  0-1A  -> 21-1A    5.791415   46710.9   214.1   -0.00002   0.00002  -0.00020   0.00057
  0-1A  -> 22-1A    5.968008   48135.2   207.7    0.00223   0.00213   0.00607   0.05510
  0-1A  -> 23-1A    6.480434   52268.2   191.3   -0.00000  -0.00002   0.00043  -0.00010
  0-1A  -> 24-1A    6.526727   52641.6   190.0   -0.02579   0.00005  -0.00005   0.00003
  0-1A  -> 25-1A    6.596050   53200.7   188.0   -0.00156   0.00655   0.04225   0.42635
  0-1A  -> 26-1A    6.698348   54025.8   185.1    0.00013   0.00001   0.00002   0.00001
  0-1A  -> 27-1A    6.770999   54611.8   183.1    0.02401  -0.01728  -0.09511  -0.95916
  0-1A  -> 28-1A    6.783687   54714.1   182.8   -0.00148   0.00005   0.00002   0.00017
  0-1A  -> 29-1A    6.867553   55390.6   180.5   -0.00000   0.00000   0.00003   0.00023
  0-1A  -> 30-1A    6.887595   55552.2   180.0   -0.00183  -0.00002   0.00000  -0.00003

Total run time:    15771.320 sec

           *** ORCA-CIS/TD-DFT FINISHED WITHOUT ERROR ***
-----------------------
CIS/TD-DFT TOTAL ENERGY
-----------------------

    E(SCF)  =   -989.518364511 Eh
    DE(CIS) =      0.083562761 Eh (Root  1)
    ----------------------------- ---------
    E(tot)  =   -989.434801750 Eh


Maximum memory used throughout the entire CIS-calculation: 2728.9 MB
=> NOW LEAVING ORCA_CIS

-------------------------   --------------------
FINAL SINGLE POINT ENERGY      -989.434801750062
-------------------------   --------------------



           ************************************************************
           *        Program running with 4 parallel MPI-processes     *
           *              working on a common directory               *
           ************************************************************

------------------------------------------------------------------------------
                              ORCA PROPERTY CALCULATIONS
------------------------------------------------------------------------------

GBWName                                 ... tddft.gbw
Number of atoms                         ...     38
Number of basis functions               ...    828
Max core memory                         ...   3000 MB

Electric properties:
Dipole moment                           ... YES
Quadrupole moment                       ...  NO
Static polarizability (Dipole/Dipole)   ...  NO
Static polarizability (Dipole/Quad.)    ...  NO
Static polarizability (Quad./Quad.)     ...  NO
Static polarizability (Velocity)        ...  NO
Static hyperpolarizability              ...  NO

Atomic electric properties:
Dipole moment                           ...  NO
Quadrupole moment                       ...  NO
Static polarizability                   ...  NO

Choice of electric origin               ... Center of mass
Position of electric origin             ...    -0.158819     5.090064     6.570961

General magnetic properties:
Magnetizability                         ...  NO

EPR properties:
g-Tensor (aka g-matrix)                 ...  NO
Zero-Field splitting spin-orbit         ...  NO
Zero-field splitting spin-spin          ...  NO
Hyperfine couplings                     ...  NO (   0 nuclei)
Quadrupole couplings                    ...  NO (   0 nuclei)
Contact density                         ...  NO (   0 nuclei)

NMR properties:
Chemical shifts                         ...  NO (   0 nuclei)
Spin-rotation constants                 ...  NO (   0 nuclei)
Spin-spin couplings                     ...  NO (   0 nuclei,    0 pairs)

Choice of magnetic origin               ... GIAO
Position of magnetic origin             ...     0.000000     0.000000     0.000000

Properties with geometric perturbations:
SCF Hessian                             ...  NO
IR spectrum                             ...  NO
VCD spectrum                            ...  NO
X-ray spectroscopy properties:
SCF XES/XAS/RIXS spectra                ...  NO

SCF SOC stabilization energy            ...  NO
Diagonal Born-Oppenheimer correction    ...  NO

-------------
DIPOLE MOMENT
-------------

Method             : SCF
Type of density    : Electron Density
Multiplicity       :   1
Irrep              :   0
Energy             :  -989.5183645107262009 Eh
Basis              : AO
                                X                 Y                 Z
Electronic contribution:     -0.000097243      -0.000001607       0.000420608
Nuclear contribution   :      0.000061902      -0.000054441      -0.000774279
                        -----------------------------------------
Total Dipole Moment    :     -0.000035341      -0.000056048      -0.000353672
                        -----------------------------------------
Magnitude (a.u.)       :      0.000359825
Magnitude (Debye)      :      0.000914602



--------------------
Rotational spectrum 
--------------------
 
Rotational constants in cm-1:             0.008943             0.008871             0.004453 
Rotational constants in MHz :           268.090698           265.941898           133.506036 

Dipole components along the rotational axes: 
x,y,z [a.u.] :    -0.000031    -0.000019    -0.000358 
x,y,z [Debye]:    -0.000079    -0.000047    -0.000910 

 

Dipole moment calculation done in   0.0 sec 

Maximum memory used throughout the entire PROP-calculation: 82.2 MB

--------------------------------
SUGGESTED CITATIONS FOR THIS RUN
--------------------------------

Below you find a list of papers that are relevant to this ORCA run
We neither can nor want to force you to cite these papers, but we appreciate if you do
You receive ORCA, which is the product of decades of hard work by many enthusiastic individuals, for free
The only thing we kindly ask in return is that you cite our papers,
We deeply appreciate it, if you show your appreciation for ORCA by not just citing the generic ORCA reference.

Please note that relegating all ORCA citations to the supporting information does *not* help us.
SI sections are not indexed - citations you put there will not count into any citation statistics
But we need these citations in order to attract the funding resources that allow us to do what we are doing

Therefore, if you are a happy ORCA user, please consider citing a few of the papers listed below in the main body of your paper

In addition to the list printed below, the program has created the file tddft.bibtex that contains the list in bibtex format
You can import this file easily into all common literature databanks and citation aid programs

It goes without saying that in many instances, there are alternative algorithms to achieve similar
results as the ones you have gotten from ORCA. It is, of course, also the case that in some instances
ORCA just re-implements algorithms worked out by others. We are fully aware of that and we are also
fully appreciative of our colleagues work. Hence this citation list should not be read as indicating
that the listed papers, which are focused on our own work, are the only ones worth citing. It simply
meant to make it easier for users to cite ORCA specific papers. It is not a substitute for doing your
own literature research and citing the relevant literature in a scientifically appropriate manner.

List of essential papers. We consider these as the minimum necessary citations

  1. Neese, F.
     Software update: the ORCA program system, version 6.0
     WIRES Comput. Molec. Sci. 2025 15(1), e70019
     doi.org/10.1002/wcms.70019

List of papers to cite with high priority. The work reported in these papers was absolutely
necessary for this run to complete.
Our perspective: the developers of density functionals and basis sets usually get cited in chemistry papers
Good! But without the algorithms to do something with them, the functionals or basis sets would not do anything.
Hence, in our opinion, the algorithm design and method developments papers are equally worthy of getting cited

  1. Neese, F.; Olbrich, G.
     Efficient use of the resolution of the identity approximation in time-dependent density functional calculations with hybrid density functionals
     Chem. Phys. Lett. 2002 362 , 170-178
     doi.org/10.1016/s0009-2614(02)01053-9
  2. Neese, F.
     An improvement of the resolution of the identity approximation for the formation of the Coulomb matrix
     J. Comp. Chem. 2003 24(14), 1740-1747
     doi.org/10.1002/jcc.10318
  3. Neese, F.; Wennmohs, F.; Hansen, A.; Becker, U.
     Efficient, approximate and parallel Hartree-Fock and hybrid DFT calculations. A 'chain-of-spheres' algorithm for the Hartree-Fock exchange
     Chem. Phys. 2009 356(1-3), 98-109
     doi.org/10.1016/j.chemphys.2008.10.036
  4. Garcia-Rates, M.; Neese, F.
     Effect of the Solute Cavity on the Solvation Energy and its Derivatives within the Framework of the Gaussian Charge Scheme
     J. Comput. Chem. 2020 41 , 922-939
     doi.org/10.1002/jcc.26139
  5. Helmich-Paris, B.; de Souza, B.; Neese, F.; Izsák, R.
     An improved chain of spheres for exchange algorithm
     J. Chem. Phys. 2021 155(10), 104109
     doi.org/10.1063/5.0058766
  6. Neese, F.
     The SHARK Integral Generation and Digestion System
     J. Comp. Chem. 2022 44(3), 381
     doi.org/10.1002/jcc.26942

List of suggested additional citations. These are papers that are important in the 'surrounding' of 
of this run, or papers that preceded the highly important papers. If you like your results we are grateful for a citation.

  1. Izsak, R.; Neese, F.
     An overlap fitted chain of spheres exchange method
     J. Chem. Phys. 2011 135 , 144105
     doi.org/10.1063/1.3646921
  2. Izsak, R.; Hansen, A.; Neese, F.
     The resolution of identity and chain of spheres approximations for the LPNO-CCSD singles Fock term
     Molec. Phys. 2012 110 , 2413-2417
     doi.org/10.1080/00268976.2012.687466
  3. Neese, F.
     The ORCA program system
     WIRES Comput. Molec. Sci. 2012 2(1), 73-78
     doi.org/10.1002/wcms.81
  4. Izsak, R.; Neese, F.; Klopper, W.
     Robust fitting techniques in the chain of spheres approximation to the Fock exchange: The role of the complementary space
     J. Chem. Phys. 2013 139 , 
     doi.org/10.1063/1.4819264
  5. Neese, F.
     Software update: the ORCA program system, version 4.0
     WIRES Comput. Molec. Sci. 2018 8(1), 1-6
     doi.org/10.1002/wcms.1327
  6. Neese, F.; Wennmohs, F.; Becker, U.; Riplinger, C.
     The ORCA quantum chemistry program package
     J. Chem. Phys. 2020 152(22), 224108
     doi.org/10.1063/5.0004608
  7. Neese, F.
     Software update: The ORCA program system—Version 5.0
     WIRES Comput. Molec. Sci. 2022 12(1), e1606
     doi.org/10.1002/wcms.1606

List of optional additional citations

  1. Neese, F.
     Approximate second-order SCF convergence for spin unrestricted wavefunctions
     Chem. Phys. Lett. 2000 325(1-3), 93-98
     doi.org/10.1016/s0009-2614(00)00662-x

Timings for individual modules:

Sum of individual times          ...    16430.222 sec (= 273.837 min)
Startup calculation              ...       21.303 sec (=   0.355 min)   0.1 %
SCF iterations                   ...      634.135 sec (=  10.569 min)   3.9 %
Property integrals               ...        2.288 sec (=   0.038 min)   0.0 %
Property calculations            ...        0.570 sec (=   0.009 min)   0.0 %
CIS module                       ...    15771.927 sec (= 262.865 min)  96.0 %
                             ****ORCA TERMINATED NORMALLY****
TOTAL RUN TIME: 0 days 4 hours 33 minutes 50 seconds 810 msec
