
                                 *****************
                                 * O   R   C   A *
                                 *****************

                                            #,                                       
                                            ###                                      
                                            ####                                     
                                            #####                                    
                                            ######                                   
                                           ########,                                 
                                     ,,################,,,,,                         
                               ,,#################################,,                 
                          ,,##########################################,,             
                       ,#########################################, ''#####,          
                    ,#############################################,,   '####,        
                  ,##################################################,,,,####,       
                ,###########''''           ''''###############################       
              ,#####''   ,,,,##########,,,,          '''####'''          '####       
            ,##' ,,,,###########################,,,                        '##       
           ' ,,###''''                  '''############,,,                           
         ,,##''                                '''############,,,,        ,,,,,,###''
      ,#''                                            '''#######################'''  
     '                                                          ''''####''''         
             ,#######,   #######,   ,#######,      ##                                
            ,#'     '#,  ##    ##  ,#'     '#,    #''#        ,####,    ,#,          
            ##       ##  ##   ,#'  ##            #'  '#       #'       ,# #          
            ##       ##  #######   ##           ,######,      #####,      #          
            '#,     ,#'  ##    ##  '#,     ,#' ,#      #,     #,   #      #          
             '#######'   ##     ##  '#######'  #'      '#     '####' #    #          



                #########################################################
                #                        -***-                          #
                #          Department of theory and spectroscopy        #
                #                                                       #
                #                      Frank Neese                      #
                #                                                       #
                #     Directorship, Architecture, Infrastructure        #
                #                    SHARK, DRIVERS                     #
                #        Core code/Algorithms in most modules           #
                #                                                       #
                #        Max Planck Institute fuer Kohlenforschung      #
                #                Kaiser Wilhelm Platz 1                 #
                #                 D-45470 Muelheim/Ruhr                 #
                #                      Germany                          #
                #                                                       #
                #                  All rights reserved                  #
                #                        -***-                          #
                #########################################################


                         Program Version 6.1.1  -  RELEASE   -
                                (GIT: $487d211c$)
                          ($2025-11-21 10:33:24 +0100$)


 With contributions from (in alphabetic order):
[Max-Planck-Institut fuer Kohlenforschung]                               
  Daniel Aravena         : Magnetic Suceptibility                        
  Michael Atanasov       : Ab Initio Ligand Field Theory (pilot matlab implementation)
  Alexander A. Auer      : GIAO ZORA, VPT2 properties, NMR spectrum      
  Ute Becker             : All parallelization in ORCA, NUMFREQ, NUMCALC 
  Giovanni Bistoni       : ED, misc. LED, open-shell LED, HFLD           
  Dmytro Bykov           : pre 5.0 version of the SCF Hessian            
  Marcos Casanova-Páez   : Triplet and SCS-CIS(D). UHF-(DLPNO)-IP/EA/STEOM-CCSD. UHF-CVS-IP/STEOM-CCSD   
  Vijay G. Chilkuri      : MRCI spin determinant printing, contributions to CSF-ICE 
  Pauline Colinet        : FMM embedding                                 
  Dipayan Datta          : RHF DLPNO-CCSD density                        
  Achintya Kumar Dutta   : EOM-CC, STEOM-CC                              
  Nicolas Foglia         : Exact transition moments, OPA infrastructure, MCD improvements    
  Dmitry Ganyushin       : Spin-Orbit,Spin-Spin,Magnetic field MRCI      
  Miquel Garcia-Rates    : C-PCM and meta-GGA Hessian, CCSD/C-PCM, Gaussian charge scheme 
  Tiago L. C. Gouveia    : GS-ROHF, GS-ROCIS                             
  Yang Guo               : DLPNO-NEVPT2, F12-NEVPT2, CIM, IAO-localization        
  Andreas Hansen         : Spin unrestricted coupled pair/coupled cluster methods 
  Ingolf Harden          : AUTO-CI MPn and infrastructure                
  Benjamin Helmich-Paris : MC-RPA, TRAH-(SCF,CASSCF), AVAS, COSX integrals, SCF dyn. polar., MC-PDFT, srDFT 
  Lee Huntington         : MR-EOM, pCC                                   
  Robert Izsak           : Overlap fitted RIJCOSX, COSX-SCS-MP3, EOM     
  Riya Kayal             : Wick's Theorem for AUTO-CI, AUTO-CI UHF-CCSDT 
  Emily Kempfer          : AUTO-CI RHF CISDT and CCSDT, approximate NEVPT4
  Christian Kollmar      : KDIIS, OOCD, Brueckner-CCSD(T), CCSD density, CASPT2, CASPT2-K, improved NEVPT2 
  Axel Koslowski         : Symmetry handling                             
  Simone Kossmann        : meta-GGA functionals, TD-DFT gradient, OOMP2, (MP2 Hessian; deprecated post 5.0) 
  Lucas Lang             : DCDCAS, Hyperfine gauge corrections, ICE-SOC+SSC
  Marvin Lechner         : AUTO-CI (C++ implementation), FIC-MRCC        
  Spencer Leger          : CASSCF response                               
  Dagmar Lenk            : GEPOL surface, SMD, ORCA-2-JSON               
  Dimitrios Liakos       : Extrapolation schemes; Compound Job, Property file
  Dimitrios Manganas     : Further ROCIS development; embedding schemes. LFT, Crystal Embedding 
  Dimitrios Pantazis     : SARC Basis sets                               
  Anastasios Papadopoulos: AUTO-CI, single reference methods and gradients 
  Taras Petrenko         : pre 6.0 DFT Hessian and TD-DFT gradient,  ECA, NRVS 
  Petra Pikulova         : Analytic Raman intensities                    
  Peter Pinski           : DLPNO-MP2, DLPNO-MP2 Gradient                 
  Shashank Vittal Rao    : ES-AILFT, MagRelax                            
  Christoph Reimann      : Effective Core Potentials                     
  Marius Retegan         : Local ZFS, SOC                                
  Christoph Riplinger    : Optimizer, TS searches, QM/MM, DLPNO-CCSD(T), (RO)-DLPNO pert. Triples 
  Michael Roemelt        : Original ROCIS implementation, recursive CI coupling coefficients
  Masaaki Saitow         : Open-shell DLPNO-CCSD energy and density      
  Barbara Sandhoefer     : DKH picture change effects                    
  Yorick L. A. Schmerwitz: GMF and freeze-and-release deltaSCF, NEB S-IDPP initial path                    
  Kantharuban Sivalingam : CASSCF convergence/infrastructure, NEVPT2, NEVPT3, NEVPT4(SD), FIC-MRCI and CEPA variants
  Bernardo de Souza      : ESD, SOC TD-DFT                               
  Georgi L. Stoychev     : AutoAux, RI-MP2 NMR, DLPNO-MP2 response, X2C  
  Van Anh Tran           : RI-MP2 g-tensors                              
  Willem Van den Heuvel  : Paramagnetic NMR                              
  Zikuan Wang            : NOTCH, Electric field optimization            
  Frank Wennmohs         : Technical directorship and infrastructure     
  Hang Xu                : AUTO-CI-Response properties                   
                                                                         
[FACCTs GmbH]                                                            
  Markus Bursch, Nicolas Foglia, Miquel Garcia-Rates, Ingolf Harden, Hagen Neugebauer, Anastasios Papadopoulos, 
  Christoph Riplinger, Bernardo de Souza, Georgi L. Stoychev                                                    
                                                                 
  APM, various basis sets, CI-OPT, improved COSX, DLPNO-Multilevel,           
  DOCKER, DRACO, updates on ESD, Fragmentator, GOAT, IRC, LR-CPCM, L-BFGS, MBIS, meta-GGA TD-DFT gradient, ML-optimized integration grids, 
  MM, NACMEs, nearIR, NEB, NEB-TS, NL-DFT gradient (VV10), 2- and 3-layer-ONIOM, interface openCOSMO-RS, QMMM,   
  Crystal-QMMM, RESP, rigid body optimization, SF, symmetry and pop. for TD-DFT, various functionals, SOLVATOR                                   
                                                                         
[Other institutions]                                                     
  V. Asgeirsson          : NEB                                           
  Christoph Bannwarth    : sTDA-DFT, sTD-DFT, PBEh-3c, B97-3c, D3        
  Giovanni Bistoni       : ETS/NOCV, ADLD/ADEX, COVALED                  
  Martin Brehm           : Molecular dynamics                            
  Ronald Cardenas        : ETS/NOCV                                      
  Martina Colucci        : COVALED                                       
  Sebastian Ehlert       : rSCAN, r2SCAN, r2SCAN-3c, D4, dhf basis sets  
  Marvin Friede          : D4 for Fr, Ra, Ac-Lr                          
  Lars Goerigk           : TD-DFT with DH, B97 family of functionals     
  Stefan Grimme          : VdW corrections, initial TS optimization, DFT functionals, gCP, sTDA/sTD-DF 
  Waldemar Hujo          : DFT-NL                                        
  H. Jonsson             : NEB                                           
  Holger Kruse           : gCP                                           
  Marcel Mueller         : wB97X-3c, vDZP basis set                      
  Hagen Neugebauer       : wr2SCAN, Native XTB                           
  Gianluca Regni         : ADLD/ADEX                                     
  Tobias Risthaus        : pre 6.0 range-separated hybrid DFT and stability analysis
  Lukas Wittmann         : regularized MP2, r2SCAN double-hybrids, wr2SCAN        
                                                                         
We gratefully acknowledge several colleagues who have allowed us to      
interface, adapt or use parts of their codes:                            
  Ed Valeev, F. Pavosevic, A. Kumar             : LibInt (2-el integral package), F12 methods 
  Garnet Chan, S. Sharma, J. Yang, R. Olivares  : DMRG                   
  Ulf Ekstrom                                   : XCFun DFT Library      
  Mihaly Kallay                                 : mrcc  (arbitrary order and MRCC methods)
  Frank Weinhold                                : gennbo (NPA and NBO analysis)           
  Simon Mueller                                 : openCOSMO-RS                            
  Christopher J. Cramer and Donald G. Truhlar   : smd solvation model                     
  S Lehtola, MJT Oliveira, MAL Marques          : LibXC Library                           
  Liviu Ungur et al                             : ANISO software                          


 Your calculation uses the libint2 library for the computation of 2-el integrals
 For citations please refer to: http://libint.valeyev.net

 Your ORCA version has been built with support for libXC version: 7.0.0
 For citations please refer to: https://libxc.gitlab.io

 This ORCA versions uses:
   CBLAS   interface :  Fast vector & matrix operations
   LAPACKE interface :  Fast linear algebra routines
   SCALAPACK package :  Parallel linear algebra routines
   Shared memory     :  Shared parallel matrices
   BLAS/LAPACK       :  OpenBLAS 0.3.29  USE64BITINT DYNAMIC_ARCH NO_AFFINITY Haswell SINGLE_THREADED
        Core in use  :  Haswell
   Copyright (c) 2011-2014, The OpenBLAS Project


  ***********************************
  * Starting time: Sat Jun  6 17:01:32 2026
  * Host name:     steezy
  * Process ID:    1741839
  * Working dir.:  /home/jannes/zntpp/03_tddft/tpss
  ***********************************

NOTE: MaxCore=3000 MB was set to SCF,MP2,MDCI,CIPSI,MRCI,RASCI and CIS
      => If you want to overwrite this, your respective input block should be placed after the MaxCore statement


***************************************
The coordinates will be read from file: /home/jannes/zntpp/01_opt/zntpp_opt_b3lyp_tzvp.xyz
***************************************


================================================================================

----- Orbital basis set information -----
Your calculation utilizes the basis: def2-TZVP
   F. Weigend and R. Ahlrichs, Phys. Chem. Chem. Phys. 7, 3297 (2005).

----- AuxJ basis set information -----
Your calculation utilizes the auxiliary basis: def2/J
   H-Rn: F. Weigend, Phys. Chem. Chem. Phys. 8, 1057 (2006).
   Fr-Lr: K. Eichkorn, F. Weigend, O. Treutler, R. Ahlrichs; Theor. Chem. Acc. 97, 119 (1997).

================================================================================
                                        WARNINGS
                       Please study these warnings very carefully!
================================================================================

WARNING: Old DensityContainer found on disk!
         Will remove this file - 
         If you want to keep old densities, please start your calculation with a different basename. 



WARNING: Found flag for RIJCOSX approximation but no HF exchange needed!
  ===> : RIJCOSX  will be disabled and Split-RI-J is turned on

WARNING: CIS/ROCIS methods need fully converged wavefunctions
  ===> : Setting SCFConvForced true
         You can overwrite this default with %scf ConvForced false 


================================================================================
                                       INPUT FILE
================================================================================
NAME = tddft.inp
|  1> %pal nprocs 8 end
|  2> %maxcore 3000
|  3> ! TPSS def2-TZVP def2/J RIJCOSX DefGrid3 TightSCF CPCM(Toluene)
|  4> %tddft
|  5>   nroots 30
|  6>   triplets false
|  7> end
|  8> * xyzfile 0 1 /home/jannes/zntpp/01_opt/zntpp_opt_b3lyp_tzvp.xyz
|  9> 
| 10>                          ****END OF INPUT****
================================================================================

                       ****************************
                       * Single Point Calculation *
                       ****************************

---------------------------------
CARTESIAN COORDINATES (ANGSTROEM)
---------------------------------
  N     -2.128555    2.521821    3.514445
  H      1.679246   -2.252277    3.911258
  C     -4.369984    3.012164    3.505335
  C     -0.398585   -1.573233    3.873891
  N      0.090194    0.658016    3.656874
  C      0.952938   -1.459784    3.844538
  H     -0.979263   -2.475782    3.964403
  C      2.863231    1.837944    3.504098
  N     -0.259990    4.728225    3.275318
  C     -1.122589    6.846120    3.087833
  C      2.554364    0.476189    3.636610
  C      2.674824    4.026514    3.291953
  N      1.958667    2.864378    3.417427
  C      4.084464    3.720155    3.302156
  C     -0.939698   -0.240836    3.759905
  C      1.258819   -0.056992    3.704356
  C     -2.844886    1.359138    3.633884
  C     -3.032921    3.549045    3.434948
  C     -4.254377    1.666475    3.632131
  C     -2.307798    0.068574    3.749698
  C     -2.724065    4.910402    3.298449
  C      4.200194    2.374421    3.428341
  C     -1.428614    5.442928    3.224110
  C      0.228839    6.958922    3.052384
  C      2.137843    5.317243    3.178366
  C      0.769957    5.627222    3.173980
  H     -5.276937    3.591548    3.463276
  H     -5.049608    0.945070    3.716870
  H      5.107132    1.794799    3.467075
  H      4.879663    4.442261    3.223116
  H      0.809563    7.860555    2.953271
  H     -1.848755    7.639233    3.027240
  Zn    -0.084939    2.693116    3.466029
  C      3.700933   -0.486388    3.712454
  C      4.108108   -1.201821    2.584245
  C      5.172729   -2.094184    2.653906
  C      5.846616   -2.285840    3.855097
  C      5.449547   -1.579336    4.985093
  C      4.385461   -0.686546    4.913199
  H      3.586791   -1.054134    1.646319
  H      5.476059   -2.638197    1.767767
  H      6.675289   -2.980820    3.910163
  H      5.966790   -1.723515    5.925774
  H      4.078223   -0.139324    5.796054
  C     -3.273085   -1.071472    3.872955
  C     -3.904249   -1.597407    2.743545
  C     -4.799157   -2.656094    2.857020
  C     -5.078087   -3.204960    4.103867
  C     -4.456253   -2.688836    5.235517
  C     -3.560665   -1.630988    5.119913
  H     -3.688530   -1.174051    1.770133
  H     -5.276922   -3.052614    1.969493
  H     -5.775165   -4.028894    4.193026
  H     -4.668895   -3.107985    6.211378
  H     -3.079623   -1.230870    6.004100
  C     -3.870369    5.873458    3.224899
  C     -4.316851    6.357914    1.993460
  C     -5.380713    7.251143    1.923794
  C     -6.014648    7.675094    3.086596
  C     -5.578392    7.199678    4.318409
  C     -4.515144    6.305553    4.385999
  H     -3.826760    6.029067    1.085176
  H     -5.714634    7.614108    0.959461
  H     -6.842757    8.370883    3.033211
  H     -6.064513    7.525507    5.229848
  H     -4.177530    5.938797    5.347664
  C      3.103506    6.456495    3.050290
  C      3.681960    6.765339    1.817145
  C      4.578273    7.821990    1.696512
  C      4.911261    8.586480    2.809338
  C      4.341889    8.287884    4.042364
  C      3.444819    7.231565    4.160802
  H      3.424173    6.173246    0.947507
  H      5.014892    8.048106    0.731401
  H      5.609397    9.409102    2.716387
  H      4.596585    8.876241    4.915382
  H      3.004811    7.001338    5.123468

----------------------------
CARTESIAN COORDINATES (A.U.)
----------------------------
  NO LB      ZA    FRAG     MASS         X           Y           Z
   0 N     7.0000    0    14.007   -4.022387    4.765551    6.641339
   1 H     1.0000    0     1.008    3.173315   -4.256187    7.391206
   2 C     6.0000    0    12.011   -8.258072    5.692164    6.624123
   3 C     6.0000    0    12.011   -0.753217   -2.972979    7.320593
   4 N     7.0000    0    14.007    0.170443    1.243470    6.910491
   5 C     6.0000    0    12.011    1.800792   -2.758593    7.265124
   6 H     1.0000    0     1.008   -1.850539   -4.678550    7.491636
   7 C     6.0000    0    12.011    5.410722    3.473212    6.621786
   8 N     7.0000    0    14.007   -0.491309    8.935051    6.189453
   9 C     6.0000    0    12.011   -2.121387   12.937293    5.835159
  10 C     6.0000    0    12.011    4.827048    0.899866    6.872197
  11 C     6.0000    0    12.011    5.054685    7.609008    6.220890
  12 N     7.0000    0    14.007    3.701344    5.412889    6.458002
  13 C     6.0000    0    12.011    7.718518    7.030075    6.240171
  14 C     6.0000    0    12.011   -1.775772   -0.455114    7.105191
  15 C     6.0000    0    12.011    2.378823   -0.107699    7.000218
  16 C     6.0000    0    12.011   -5.376055    2.568398    6.867046
  17 C     6.0000    0    12.011   -5.731390    6.706722    6.491111
  18 C     6.0000    0    12.011   -8.039608    3.149181    6.863732
  19 C     6.0000    0    12.011   -4.361106    0.129586    7.085902
  20 C     6.0000    0    12.011   -5.147736    9.279315    6.233166
  21 C     6.0000    0    12.011    7.937216    4.487005    6.478625
  22 C     6.0000    0    12.011   -2.699689   10.285644    6.092686
  23 C     6.0000    0    12.011    0.432443   13.150456    5.768170
  24 C     6.0000    0    12.011    4.039938   10.048134    6.006241
  25 C     6.0000    0    12.011    1.455009   10.633908    5.997954
  26 H     1.0000    0     1.008   -9.971966    6.787043    6.544643
  27 H     1.0000    0     1.008   -9.542376    1.785924    7.023866
  28 H     1.0000    0     1.008    9.651080    3.391678    6.551822
  29 H     1.0000    0     1.008    9.221226    8.394656    6.090807
  30 H     1.0000    0     1.008    1.529852   14.854296    5.580874
  31 H     1.0000    0     1.008   -3.493641   14.436059    5.720654
  32 Zn   30.0000    0    65.380   -0.160511    5.089252    6.549846
  33 C     6.0000    0    12.011    6.993749   -0.919139    7.015521
  34 C     6.0000    0    12.011    7.763199   -2.271113    4.883516
  35 C     6.0000    0    12.011    9.775042   -3.957434    5.015155
  36 C     6.0000    0    12.011   11.048503   -4.319612    7.285078
  37 C     6.0000    0    12.011   10.298150   -2.984512    9.420461
  38 C     6.0000    0    12.011    8.287321   -1.297384    9.284601
  39 H     1.0000    0     1.008    6.778052   -1.992024    3.111092
  40 H     1.0000    0     1.008   10.348252   -4.985469    3.340596
  41 H     1.0000    0     1.008   12.614468   -5.632934    7.389137
  42 H     1.0000    0     1.008   11.275599   -3.256971   11.198090
  43 H     1.0000    0     1.008    7.706724   -0.263284   10.952955
  44 C     6.0000    0    12.011   -6.185235   -2.024788    7.318825
  45 C     6.0000    0    12.011   -7.377961   -3.018662    5.184549
  46 C     6.0000    0    12.011   -9.069092   -5.019291    5.398985
  47 C     6.0000    0    12.011   -9.596194   -6.056498    7.755184
  48 C     6.0000    0    12.011   -8.421097   -5.081163    9.893693
  49 C     6.0000    0    12.011   -6.728682   -3.082121    9.675233
  50 H     1.0000    0     1.008   -6.970311   -2.218636    3.345067
  51 H     1.0000    0     1.008   -9.971937   -5.768605    3.721803
  52 H     1.0000    0     1.008  -10.913481   -7.613507    7.923671
  53 H     1.0000    0     1.008   -8.822933   -5.873241   11.737804
  54 H     1.0000    0     1.008   -5.819644   -2.326007   11.346104
  55 C     6.0000    0    12.011   -7.313938   11.099227    6.094176
  56 C     6.0000    0    12.011   -8.157666   12.014716    3.767093
  57 C     6.0000    0    12.011  -10.168074   13.702674    3.635443
  58 C     6.0000    0    12.011  -11.366038   14.503826    5.832822
  59 C     6.0000    0    12.011  -10.541634   13.605420    8.160611
  60 C     6.0000    0    12.011   -8.532386   11.915768    8.288337
  61 H     1.0000    0     1.008   -7.231528   11.393285    2.050685
  62 H     1.0000    0     1.008  -10.799093   14.388579    1.813119
  63 H     1.0000    0     1.008  -12.930936   15.818676    5.731938
  64 H     1.0000    0     1.008  -11.460269   14.221147    9.882980
  65 H     1.0000    0     1.008   -7.894387   11.222699   10.105620
  66 C     6.0000    0    12.011    5.864777   12.201007    5.764212
  67 C     6.0000    0    12.011    6.957897   12.784638    3.433906
  68 C     6.0000    0    12.011    8.651682   14.781419    3.205944
  69 C     6.0000    0    12.011    9.280939   16.226096    5.308880
  70 C     6.0000    0    12.011    8.204982   15.661831    7.638960
  71 C     6.0000    0    12.011    6.509765   13.665678    7.862776
  72 H     1.0000    0     1.008    6.470749   11.665745    1.790528
  73 H     1.0000    0     1.008    9.476772   15.208716    1.382147
  74 H     1.0000    0     1.008   10.600223   17.780626    5.133228
  75 H     1.0000    0     1.008    8.686286   16.773664    9.288725
  76 H     1.0000    0     1.008    5.678270   13.230612    9.681952

--------------------------------
INTERNAL COORDINATES (ANGSTROEM)
--------------------------------
 N      0   0   0     0.000000000000     0.00000000     0.00000000
 H      1   0   0     6.119544609553     0.00000000     0.00000000
 C      1   2   0     2.294454011207   140.79010051     0.00000000
 C      2   1   3     2.186293848341    33.40707509     0.34106114
 N      4   2   1     2.294443978057    95.80796136     0.08486163
 C      2   1   3     1.077042165850     3.92469267     1.90384846
 H      4   2   1     1.077021274757   104.51838878   179.96426994
 C      5   4   2     3.017499182404   125.50798452     0.13061668
 N      1   2   6     2.901196304498   101.41364134   181.77715198
 C      9   1   2     2.294495465089   117.81272053   180.03507050
 C      8   5   4     1.402617980696    54.07062945     0.00000000
 C      8   5   4     2.206884295453   108.31219866   179.74476543
 N     12   8   5     1.370833715702    36.39735210     0.13465003
 C     12   8   5     1.442582406246    72.85996634   180.04197634
 C      5   4   2     1.370849417385    36.41075581   180.34190992
 C      5   4   2     1.370829614730    70.79837857     0.21995082
 C      1   2   6     1.370849005387    69.99043058     1.66869440
 C      1   2   6     1.370906814200   177.19264341     5.66720204
 C      3   1   2     1.356583829775    72.80577004   359.93688133
 C     17   1   2     1.402651632840   125.97826882     0.08625359
 C     18   1  17     1.402611239747   125.98998775   180.28256348
 C     14  12   8     1.356582980699   107.13889860     0.18750469
 C      9   1   2     1.370804714242    81.40314079   179.95801682
 C     10   9   1     1.356590912637    72.80488243   180.14705619
 C     12   8   5     1.402580997285   162.38014338     0.78404173
 C      9   1   2     1.370859177061   171.38959537   359.93854590
 H      3   1   2     1.077042372642   159.67446324   180.23012340
 H     19   3   1     1.077031692090   127.50718792   179.84585378
 H     22  14  12     1.077032466449   127.52044500   179.72372799
 H     14  12   8     1.077044478741   125.34893106   180.19721276
 H     24  10   9     1.077036063129   127.52799022   179.86496916
 H     10   9   1     1.077040772020   159.68056758     0.49314505
 Zn    13  12   8     2.051345186941   126.39861605   180.01176353
 C     11   8   5     1.498975002703   117.37364575   180.12231805
 C     34  11   8     1.396599935545   120.73632797   260.81551720
 C     35  34  11     1.390892457345   120.75428931   179.94132756
 C     36  35  34     1.390581203293   120.17332090     0.05878968
 C     37  36  35     1.390576738799   119.57323724   359.97035164
 C     38  37  36     1.390870129530   120.17050613   359.97317460
 H     35  34  11     1.083185036027   119.29663277     0.09915726
 H     36  35  34     1.083143891364   119.71019389   180.16833060
 H     37  36  35     1.082925347053   120.21223093   179.97018105
 H     38  37  36     1.083147890456   120.11518343   179.85977205
 H     39  38  37     1.083181015268   119.94417075   179.90157384
 C     20  17   1     1.498891322754   117.38766669   179.87846531
 C     45  20  17     1.396618301307   120.72790326    80.31698157
 C     46  45  20     1.390883017252   120.75931779   179.94064434
 C     47  46  45     1.390569495532   120.17530433     0.06871198
 C     48  47  46     1.390573492617   119.57043939   359.97534587
 C     49  48  47     1.390856522021   120.17190858   359.96242902
 H     46  45  20     1.083187714850   119.31007218     0.11809285
 H     47  46  45     1.083139294676   119.70943531   180.17217182
 H     48  47  46     1.082928842322   120.21506749   179.96593587
 H     49  48  47     1.083147786706   120.11748509   179.84687948
 H     50  49  48     1.083181818228   119.93804654   179.90374115
 C     21  18   1     1.498966613937   117.38477927   179.77788255
 C     56  21  18     1.396597916529   120.70436538   261.16713757
 C     57  56  21     1.390867761343   120.76155285   179.97461334
 C     58  57  56     1.390582407448   120.17252421     0.05374361
 C     59  58  57     1.390576502422   119.56944005   359.96659070
 C     60  59  58     1.390872249240   120.17565657   359.97513983
 H     57  56  21     1.083194334658   119.30159898     0.11782789
 H     58  57  56     1.083136238093   119.71008709   180.15439003
 H     59  58  57     1.082929025331   120.21640663   179.97293344
 H     60  59  58     1.083142601943   120.11639336   179.88210610
 H     61  60  59     1.083186648078   119.93877736   179.91030740
 C     25  12   8     1.498934038660   117.36800041   179.52270751
 C     67  25  12     1.396653150260   120.68608494    81.09904729
 C     68  67  25     1.390841400961   120.76286134   180.00642566
 C     69  68  67     1.390578103786   120.17054410     0.05654456
 C     70  69  68     1.390573869412   119.57064401   359.96777865
 C     71  70  69     1.390888841300   120.17630173   359.97413960
 H     68  67  25     1.083189189182   119.30217305     0.15139686
 H     69  68  67     1.083145817904   119.71294294   180.15434617
 H     70  69  68     1.082931006480   120.21854136   179.97246096
 H     71  70  69     1.083140727035   120.11703831   179.87054230
 H     72  71  70     1.083207787092   119.93930250   179.90074954

---------------------------
INTERNAL COORDINATES (A.U.)
---------------------------
 N      0   0   0     0.000000000000     0.00000000     0.00000000
 H      1   0   0    11.564263376369     0.00000000     0.00000000
 C      1   2   0     4.335889708059   140.79010051     0.00000000
 C      2   1   3     4.131496621641    33.40707509     0.34106114
 N      4   2   1     4.335870748152    95.80796136     0.08486163
 C      2   1   3     2.035314728142     3.92469267     1.90384846
 H      4   2   1     2.035275249697   104.51838878   179.96426994
 C      5   4   2     5.702247064074   125.50798452     0.13061668
 N      1   2   6     5.482466476246   101.41364134   181.77715198
 C      9   1   2     4.335968044542   117.81272053   180.03507050
 C      8   5   4     2.650563854029    54.07062945     0.00000000
 C      8   5   4     4.170406927659   108.31219866   179.74476543
 N     12   8   5     2.590500297822    36.39735210     0.13465003
 C     12   8   5     2.726085673418    72.85996634   180.04197634
 C      5   4   2     2.590529969703    36.41075581   180.34190992
 C      5   4   2     2.590492548109    70.79837857     0.21995082
 C      1   2   6     2.590529191139    69.99043058     1.66869440
 C      1   2   6     2.590638433964   177.19264341     5.66720204
 C      3   1   2     2.563571915982    72.80577004   359.93688133
 C     17   1   2     2.650627447364   125.97826882     0.08625359
 C     18   1  17     2.650551115482   125.98998775   180.28256348
 C     14  12   8     2.563570311459   107.13889860     0.18750469
 C      9   1   2     2.590445493005    81.40314079   179.95801682
 C     10   9   1     2.563585300650    72.80488243   180.14705619
 C     12   8   5     2.650493965511   162.38014338     0.78404173
 C      9   1   2     2.590548412818   171.38959537   359.93854590
 H      3   1   2     2.035315118921   159.67446324   180.23012340
 H     19   3   1     2.035294935605   127.50718792   179.84585378
 H     22  14  12     2.035296398930   127.52044500   179.72372799
 H     14  12   8     2.035319098873   125.34893106   180.19721276
 H     24  10   9     2.035303195671   127.52799022   179.86496916
 H     10   9   1     2.035312094185   159.68056758     0.49314505
 Zn    13  12   8     3.876480609456   126.39861605   180.01176353
 C     11   8   5     2.832652236702   117.37364575   180.12231805
 C     34  11   8     2.639191396832   120.73632797   260.81551720
 C     35  34  11     2.628405826120   120.75428931   179.94132756
 C     36  35  34     2.627817641202   120.17332090     0.05878968
 C     37  36  35     2.627809204532   119.57323724   359.97035164
 C     38  37  36     2.628363632663   120.17050613   359.97317460
 H     35  34  11     2.046923070452   119.29663277     0.09915726
 H     36  35  34     2.046845318308   119.71019389   180.16833060
 H     37  36  35     2.046432329411   120.21223093   179.97018105
 H     38  37  36     2.046852875496   120.11518343   179.85977205
 H     39  38  37     2.046915472320   119.94417075   179.90157384
 C     20  17   1     2.832494104516   117.38766669   179.87846531
 C     45  20  17     2.639226103092   120.72790326    80.31698157
 C     46  45  20     2.628387986927   120.75931779   179.94064434
 C     47  46  45     2.627795516741   120.17530433     0.06871198
 C     48  47  46     2.627803070137   119.57043939   359.97534587
 C     49  48  47     2.628337918197   120.17190858   359.96242902
 H     46  45  20     2.046928132695   119.31007218     0.11809285
 H     47  46  45     2.046836631826   119.70943531   180.17217182
 H     48  47  46     2.046438934513   120.21506749   179.96593587
 H     49  48  47     2.046852679437   120.11748509   179.84687948
 H     50  49  48     2.046916989694   119.93804654   179.90374115
 C     21  18   1     2.832636384232   117.38477927   179.77788255
 C     56  21  18     2.639187581444   120.70436538   261.16713757
 C     57  56  21     2.628359157438   120.76155285   179.97461334
 C     58  57  56     2.627819916726   120.17252421     0.05374361
 C     59  58  57     2.627808757843   119.56944005   359.96659070
 C     60  59  58     2.628367638335   120.17565657   359.97513983
 H     57  56  21     2.046940642318   119.30159898     0.11782789
 H     58  57  56     2.046830855722   119.71008709   180.15439003
 H     59  58  57     2.046439280351   120.21640663   179.97293344
 H     60  59  58     2.046842881654   120.11639336   179.88210610
 H     61  60  59     2.046926116788   119.93877736   179.91030740
 C     25  12   8     2.832574825879   117.36800041   179.52270751
 C     67  25  12     2.639291958070   120.68608494    81.09904729
 C     68  67  25     2.628309343536   120.76286134   180.00642566
 C     69  68  67     2.627811783983   120.17054410     0.05654456
 C     70  69  68     2.627803782176   119.57064401   359.96777865
 C     71  70  69     2.628398992784   120.17630173   359.97413960
 H     68  67  25     2.046930918777   119.30217305     0.15139686
 H     69  68  67     2.046848958941   119.71294294   180.15434617
 H     70  69  68     2.046443024179   120.21854136   179.97246096
 H     71  70  69     2.046839338592   120.11703831   179.87054230
 H     72  71  70     2.046966063735   119.93930250   179.90074954

---------------------
BASIS SET INFORMATION
---------------------
There are 4 groups of distinct atoms

 Group   1 Type N   : 11s6p2d1f contracted to 5s3p2d1f pattern {62111/411/11/1}
 Group   2 Type H   : 5s1p contracted to 3s1p pattern {311/1}
 Group   3 Type C   : 11s6p2d1f contracted to 5s3p2d1f pattern {62111/411/11/1}
 Group   4 Type Zn  : 17s12p7d1f contracted to 6s5p4d1f pattern {842111/63111/4111/1}

Atom   0N    basis set group =>   1
Atom   1H    basis set group =>   2
Atom   2C    basis set group =>   3
Atom   3C    basis set group =>   3
Atom   4N    basis set group =>   1
Atom   5C    basis set group =>   3
Atom   6H    basis set group =>   2
Atom   7C    basis set group =>   3
Atom   8N    basis set group =>   1
Atom   9C    basis set group =>   3
Atom  10C    basis set group =>   3
Atom  11C    basis set group =>   3
Atom  12N    basis set group =>   1
Atom  13C    basis set group =>   3
Atom  14C    basis set group =>   3
Atom  15C    basis set group =>   3
Atom  16C    basis set group =>   3
Atom  17C    basis set group =>   3
Atom  18C    basis set group =>   3
Atom  19C    basis set group =>   3
Atom  20C    basis set group =>   3
Atom  21C    basis set group =>   3
Atom  22C    basis set group =>   3
Atom  23C    basis set group =>   3
Atom  24C    basis set group =>   3
Atom  25C    basis set group =>   3
Atom  26H    basis set group =>   2
Atom  27H    basis set group =>   2
Atom  28H    basis set group =>   2
Atom  29H    basis set group =>   2
Atom  30H    basis set group =>   2
Atom  31H    basis set group =>   2
Atom  32Zn   basis set group =>   4
Atom  33C    basis set group =>   3
Atom  34C    basis set group =>   3
Atom  35C    basis set group =>   3
Atom  36C    basis set group =>   3
Atom  37C    basis set group =>   3
Atom  38C    basis set group =>   3
Atom  39H    basis set group =>   2
Atom  40H    basis set group =>   2
Atom  41H    basis set group =>   2
Atom  42H    basis set group =>   2
Atom  43H    basis set group =>   2
Atom  44C    basis set group =>   3
Atom  45C    basis set group =>   3
Atom  46C    basis set group =>   3
Atom  47C    basis set group =>   3
Atom  48C    basis set group =>   3
Atom  49C    basis set group =>   3
Atom  50H    basis set group =>   2
Atom  51H    basis set group =>   2
Atom  52H    basis set group =>   2
Atom  53H    basis set group =>   2
Atom  54H    basis set group =>   2
Atom  55C    basis set group =>   3
Atom  56C    basis set group =>   3
Atom  57C    basis set group =>   3
Atom  58C    basis set group =>   3
Atom  59C    basis set group =>   3
Atom  60C    basis set group =>   3
Atom  61H    basis set group =>   2
Atom  62H    basis set group =>   2
Atom  63H    basis set group =>   2
Atom  64H    basis set group =>   2
Atom  65H    basis set group =>   2
Atom  66C    basis set group =>   3
Atom  67C    basis set group =>   3
Atom  68C    basis set group =>   3
Atom  69C    basis set group =>   3
Atom  70C    basis set group =>   3
Atom  71C    basis set group =>   3
Atom  72H    basis set group =>   2
Atom  73H    basis set group =>   2
Atom  74H    basis set group =>   2
Atom  75H    basis set group =>   2
Atom  76H    basis set group =>   2
---------------------------------
AUXILIARY/J BASIS SET INFORMATION
---------------------------------
There are 4 groups of distinct atoms

 Group   1 Type N   : 12s5p4d2f1g contracted to 6s4p3d1f1g pattern {711111/2111/211/2/1}
 Group   2 Type H   : 5s2p1d contracted to 3s1p1d pattern {311/2/1}
 Group   3 Type C   : 12s5p4d2f1g contracted to 6s4p3d1f1g pattern {711111/2111/211/2/1}
 Group   4 Type Zn  : 19s5p5d3f3g contracted to 8s5p5d2f3g pattern {121111111/11111/11111/21/111}

Atom   0N    basis set group =>   1
Atom   1H    basis set group =>   2
Atom   2C    basis set group =>   3
Atom   3C    basis set group =>   3
Atom   4N    basis set group =>   1
Atom   5C    basis set group =>   3
Atom   6H    basis set group =>   2
Atom   7C    basis set group =>   3
Atom   8N    basis set group =>   1
Atom   9C    basis set group =>   3
Atom  10C    basis set group =>   3
Atom  11C    basis set group =>   3
Atom  12N    basis set group =>   1
Atom  13C    basis set group =>   3
Atom  14C    basis set group =>   3
Atom  15C    basis set group =>   3
Atom  16C    basis set group =>   3
Atom  17C    basis set group =>   3
Atom  18C    basis set group =>   3
Atom  19C    basis set group =>   3
Atom  20C    basis set group =>   3
Atom  21C    basis set group =>   3
Atom  22C    basis set group =>   3
Atom  23C    basis set group =>   3
Atom  24C    basis set group =>   3
Atom  25C    basis set group =>   3
Atom  26H    basis set group =>   2
Atom  27H    basis set group =>   2
Atom  28H    basis set group =>   2
Atom  29H    basis set group =>   2
Atom  30H    basis set group =>   2
Atom  31H    basis set group =>   2
Atom  32Zn   basis set group =>   4
Atom  33C    basis set group =>   3
Atom  34C    basis set group =>   3
Atom  35C    basis set group =>   3
Atom  36C    basis set group =>   3
Atom  37C    basis set group =>   3
Atom  38C    basis set group =>   3
Atom  39H    basis set group =>   2
Atom  40H    basis set group =>   2
Atom  41H    basis set group =>   2
Atom  42H    basis set group =>   2
Atom  43H    basis set group =>   2
Atom  44C    basis set group =>   3
Atom  45C    basis set group =>   3
Atom  46C    basis set group =>   3
Atom  47C    basis set group =>   3
Atom  48C    basis set group =>   3
Atom  49C    basis set group =>   3
Atom  50H    basis set group =>   2
Atom  51H    basis set group =>   2
Atom  52H    basis set group =>   2
Atom  53H    basis set group =>   2
Atom  54H    basis set group =>   2
Atom  55C    basis set group =>   3
Atom  56C    basis set group =>   3
Atom  57C    basis set group =>   3
Atom  58C    basis set group =>   3
Atom  59C    basis set group =>   3
Atom  60C    basis set group =>   3
Atom  61H    basis set group =>   2
Atom  62H    basis set group =>   2
Atom  63H    basis set group =>   2
Atom  64H    basis set group =>   2
Atom  65H    basis set group =>   2
Atom  66C    basis set group =>   3
Atom  67C    basis set group =>   3
Atom  68C    basis set group =>   3
Atom  69C    basis set group =>   3
Atom  70C    basis set group =>   3
Atom  71C    basis set group =>   3
Atom  72H    basis set group =>   2
Atom  73H    basis set group =>   2
Atom  74H    basis set group =>   2
Atom  75H    basis set group =>   2
Atom  76H    basis set group =>   2

Checking for AutoStart:
The File: tddft.gbw exists
Trying to determine its content:
     ... Fine, the file contains calculation information
     ... Fine, the calculation information was read
     ... Fine, the file contains a basis set
     ... Fine, the basis set was read
     ... Fine, the file contains a geometry
     ... Fine, the geometry was read
     ... Fine, the file contains a set of orbitals
     ... Fine, the orbitals can be read
     => possible old guess file was deleted
     => GBW file was renamed to GES file
     => GES file is set as startup file
     => Guess is set to MORead
     ... now leaving AutoStart



           ************************************************************
           *        Program running with 8 parallel MPI-processes     *
           *              working on a common directory               *
           ************************************************************
------------------------------------------------------------------------------
                             ORCA STARTUP CALCULATIONS
                           -- RI-GTO INTEGRALS CHOSEN --
------------------------------------------------------------------------------
------------------------------------------------------------------------------
                   ___                                                        
                  /   \      - P O W E R E D   B Y -                         
                 /     \                                                     
                 |  |  |   _    _      __       _____    __    __             
                 |  |  |  | |  | |    /  \     |  _  \  |  |  /  |          
                  \  \/   | |  | |   /    \    | | | |  |  | /  /          
                 / \  \   | |__| |  /  /\  \   | |_| |  |  |/  /          
                |  |  |   |  __  | /  /__\  \  |    /   |      \           
                |  |  |   | |  | | |   __   |  |    \   |  |\   \          
                \     /   | |  | | |  |  |  |  | |\  \  |  | \   \       
                 \___/    |_|  |_| |__|  |__|  |_| \__\ |__|  \__/        
                                                                              
                      - O R C A' S   B I G   F R I E N D -                    
                                      &                                       
                       - I N T E G R A L  F E E D E R -                       
                                                                              
 v1 FN, 2020, v2 2021, v3 2022-2024                                           
------------------------------------------------------------------------------


----------------------
SHARK INTEGRAL PACKAGE
----------------------

Number of atoms                             ...     77
Number of basis functions                   ...   1704
Number of shells                            ...    656
Maximum angular momentum                    ...      3
Integral batch strategy                     ... SHARK/LIBINT Hybrid
RI-J (if used) integral strategy            ... SPLIT-RIJ (Revised 2003 algorithm where possible)
Printlevel                                  ...      1
Contraction scheme used                     ... SEGMENTED contraction
Prescreening option                         ... SCHWARTZ
   Thresh                                   ... 2.500e-11
   Tcut                                     ... 2.500e-12
   Tpresel                                  ... 2.500e-12 
Coulomb Range Separation                    ... NOT USED
Exchange Range Separation                   ... NOT USED
Multipole approximations                    ... NOT USED
Finite Nucleus Model                        ... NOT USED
CABS basis                                  ... NOT available
Auxiliary Coulomb fitting basis             ... AVAILABLE
   # of basis functions in Aux-J            ...   2749
   # of shells in Aux-J                     ...    883
   Maximum angular momentum in Aux-J        ...      4
Auxiliary J/K fitting basis                 ... NOT available
Auxiliary Correlation fitting basis         ... NOT available
Auxiliary 'external' fitting basis          ... NOT available

Checking pre-screening integrals            ... done (  0.0 sec) Dimension = 656
   => SHARK Basis and OBASIS are compatible. Storing Pre-screening
Shell pair information
Shell pair cut-off parameter TPreSel        ...   2.5e-12
Total number of shell pairs                 ...    215496
Shell pairs after pre-screening             ...    104313
Total number of primitive shell pairs       ...    680394
Primitive shell pairs kept                  ...    202009
          la=0 lb=0:  24656 shell pairs
          la=1 lb=0:  30604 shell pairs
          la=1 lb=1:   9373 shell pairs
          la=2 lb=0:  14863 shell pairs
          la=2 lb=1:   9372 shell pairs
          la=2 lb=2:   2256 shell pairs
          la=3 lb=0:   6615 shell pairs
          la=3 lb=1:   4225 shell pairs
          la=3 lb=2:   1902 shell pairs
          la=3 lb=3:    447 shell pairs

Checking whether 4 symmetric matrices of dimension 1704 fit in memory
:Max Core in MB      =   3000.00
 MB in use           =    127.60
 MB left             =   2872.40
 MB needed           =     44.33
 Data fit in memory  = YES
Calculating RI/J V-Matrix + Cholesky decomp.... done (  0.5 sec)
Calculating Nuclear repulsion               ... done (  0.0 sec) ENN=   6465.853143938957 Eh

Diagonalization of the overlap matrix:
Smallest eigenvalue                        ... 2.950e-06
Time for diagonalization                   ...    0.770 sec
Threshold for overlap eigenvalues          ... 1.000e-07
Number of eigenvalues below threshold      ... 0
Time for construction of square roots      ...    0.823 sec
Total time needed                          ...    1.636 sec

-------------------
DFT GRID GENERATION
-------------------

General Integration Accuracy     IntAcc      ... 4.959
Radial Grid Type                 RadialGrid  ... OptM3 with GC (2021)
Angular Grid (max. ang.)         AngularGrid ... 6 (Lebedev-590)
Angular grid pruning method      GridPruning ... 4 (adaptive)
Weight generation scheme         WeightScheme... mBecke (2022)
Basis function cutoff            BFCut       ... 1.0000e-11
Integration weight cutoff        WCut        ... 1.0000e-14
Partially contracted basis set               ... off
Rotationally invariant grid construction     ... off
Angular grids for H and He will be reduced by one unit
Core-polarized basis detected: some atoms will have their core
                               angular grid increased.

Total number of grid points                  ...   939385
Total number of batches                      ...    14718
Average number of points per batch           ...       63
Average number of grid points per atom       ...    12200
Grids setup in  17.4 sec
Initializing property integral containers    ... done (  0.0 sec)

SHARK setup successfully completed in  23.2 seconds

Maximum memory used throughout the entire STARTUP-calculation: 343.3 MB


           ************************************************************
           *        Program running with 8 parallel MPI-processes     *
           *              working on a common directory               *
           ************************************************************
-------------------------------------------------------------------------------
                                 ORCA GUESS
                   Start orbitals & Density for SCF / CASSCF
-------------------------------------------------------------------------------

------------
SCF SETTINGS
------------
Hamiltonian:
 Density Functional     Method          .... DFT(GTOs)
 Exchange Functional    Exchange        .... TPSS
 Correlation Functional Correlation     .... TPSS
 LDA part of GGA corr.  LDAOpt          .... PW91-LDA
 Gradients option       PostSCFGGA      .... off
   NL short-range parameter             ....  5.000000
 RI-approximation to the Coulomb term is turned on
   Number of AuxJ basis functions       .... 2749


General Settings:
 Integral files         IntName         .... tddft
 Hartree-Fock type      HFTyp           .... RHF
 Total Charge           Charge          ....    0
 Multiplicity           Mult            ....    1
 Number of Electrons    NEL             ....  350
 Basis Dimension        Dim             .... 1704
 Nuclear Repulsion      ENuc            ....   6465.8531439390 Eh

Convergence Acceleration:
 AO-DIIS                CNVDIIS         .... on
   Start iteration      DIISMaxIt       ....    12
   Startup error        DIISStart       ....  0.200000
   # of expansion vecs  DIISMaxEq       ....     5
   Bias factor          DIISBfac        ....   1.050
   Max. coefficient     DIISMaxC        ....  10.000
 MO-DIIS                CNVKDIIS        .... off
 Trust-Rad. Augm. Hess. CNVTRAH         .... auto
   Auto Start mean grad. ratio tolernc. ....  1.125000
   Auto Start start iteration           ....     1
   Auto Start num. interpolation iter.  ....    10
   Max. Number of Micro iterations      ....    24
   Max. Number of Macro iterations      .... Maxiter - #DIIS iter
   Number of Davidson start vectors     ....     2
   Converg. threshold    (grad. norm)   ....   1.000e-05
   Grad. Scal. Fac. for Micro threshold ....   0.100
   Minimum threshold for Micro iter.    ....   1.000e-02
   NR start threshold (gradient norm)   ....   1.000e-04
   Initial trust radius                 ....   0.400
   Minimum AH scaling param. (alpha)    ....   1.000
   Maximum AH scaling param. (alpha)    .... 1000.000
   Quad. conv. algorithm                .... NR
   White noise on init. David. guess    .... on
   Maximum white noise                  ....   0.010
   Pseudo random numbers                .... off
   Inactive MOs                         .... canonical
   Orbital update algorithm             .... Taylor
   Preconditioner                       .... Diag
   Full preconditioner red. dimension   ....   250
 SOSCF                 CNVSOSCF           .... on
   Start iteration     SOSCFMaxIt         ....   150
   Startup grad/error  SOSCFStart         ....  0.003300
   Hessian update      SOSCFHessUp        .... L-BFGS
   Autom. constraints  SOSCFAutoConstrain .... off
 Level Shifting         CNVShift        .... on
   Level shift para.    LevelShift      ....    0.2500
   Turn off err/grad.   ShiftErr        ....    0.0010
 Zerner damping         CNVZerner       .... off
 Static damping         CNVDamp         .... on
   Fraction old density DampFac         ....    0.7000
   Max. Damping (<1)    DampMax         ....    0.9800
   Min. Damping (>=0)   DampMin         ....    0.0000
   Turn off err/grad.   DampErr         ....    0.1000

SCF Procedure:
 Maximum # iterations   MaxIter         ....   125
 SCF integral mode      SCFMode         .... Direct
   Integral package                     .... SHARK and LIBINT hybrid scheme
 Reset frequency        DirectResetFreq ....    20
 Integral Threshold     Thresh          ....  2.500e-11 Eh
 Primitive CutOff       TCut            ....  2.500e-12 Eh

Convergence Tolerance:
 Convergence Check Mode ConvCheckMode   .... Total+1el-Energy
 Convergence forced     ConvForced      .... 1
 Energy Change          TolE            ....  1.000e-08 Eh
 1-El. energy change                    ....  1.000e-05 Eh
 Orbital Gradient       TolG            ....  1.000e-05
 Orbital Rotation angle TolX            ....  1.000e-05
 DIIS Error             TolErr          ....  5.000e-07

---------------------
INITIAL GUESS: MOREAD
---------------------
Guess MOs are being read from file: tddft.ges
Input Geometry matches current geometry (good)
Input basis set matches current basis set (good)
Occupation numbers will be reassigned to an Aufbau configuration
MOs were renormalized
MOs were reorthogonalized (Cholesky)
                      ------------------
                      INITIAL GUESS DONE (   4.9 sec)
                      ------------------
             **** ENERGY FILE WAS UPDATED (tddft.en.tmp) ****
Finished Guess after   7.2 sec
Maximum memory used throughout the entire GUESS-calculation: 269.0 MB


           ************************************************************
           *        Program running with 8 parallel MPI-processes     *
           *              working on a common directory               *
           ************************************************************

-------------------------------------------------------------------------------------------
                                      ORCA LEAN-SCF
                              memory conserving SCF solver
-------------------------------------------------------------------------------------------

--------------------
CPCM SOLVATION MODEL
--------------------
CPCM parameters:
  Epsilon                                         ...       2.3870
  Refrac                                          ...       1.4961
  Rsolv                                           ...       1.3000
  Surface type                                    ... GAUSSIAN VDW
  Discretization scheme                           ... Constant charge density
    Threshold for H atoms                         ...       5.0000 (charges/Ang^2)
    Threshold for non-H atoms                     ...       5.0000 (charges/Ang^2)
  Epsilon function type                           ...         CPCM
Solvent:                                          ... TOLUENE
Radii:
  Scheme                                          ... Element-dependent radii
  Radius for N  used is    3.5149 Bohr (=   1.8600 Ang.)
  Radius for H  used is    2.4944 Bohr (=   1.3200 Ang.)
  Radius for C  used is    3.8550 Bohr (=   2.0400 Ang.)
  Radius for Zn used is    3.1521 Bohr (=   1.6680 Ang.)
Calculating surface                               ...        done! (  0.1s)
Cavity surface points                             ...         6832
Cavity Volume                                     ...    4920.2253
Cavity Surface-area                               ...    2294.3185
Calculating surface distance matrix               ...        done! (  2.2s)
Performing Cholesky decomposition & store         ...        done! (  4.2s)
Overall time for CPCM initialization              ...                 6.4s

----------------------------------------D-I-I-S--------------------------------------------
Iteration    Energy (Eh)           Delta-E    RMSDP     MaxDP     DIISErr   Damp  Time(sec)
-------------------------------------------------------------------------------------------
               ***  Starting incremental Fock matrix formation  ***
                              *** Initializing SOSCF ***
---------------------------------------S-O-S-C-F--------------------------------------
Iteration    Energy (Eh)           Delta-E    RMSDP     MaxDP     MaxGrad    Time(sec)
--------------------------------------------------------------------------------------
    1    -3693.0893045661032374     0.00e+00  4.07e-05  1.93e-03  2.74e-06    80.3
               *** Restarting incremental Fock matrix formation ***
    2    -3693.0893045674038149    -1.30e-09  7.32e-06  3.39e-04  5.44e-06    88.3
    3    -3693.0893046971468721    -1.30e-07  5.00e-06  2.91e-04  1.43e-05    58.4
    4    -3693.0893047258032311    -2.87e-08  1.50e-05  1.05e-03  1.22e-06    66.3
                  *** Gradient check signals convergence ***

               *****************************************************
               *                     SUCCESS                       *
               *           SCF CONVERGED AFTER   4 CYCLES          *
               *****************************************************

             **** ENERGY FILE WAS UPDATED (tddft.en.tmp) ****

----------------
TOTAL SCF ENERGY
----------------

Total Energy       :      -3693.08930466887068 Eh         -100494.06900 eV

Components:
Nuclear Repulsion  :       6465.85314393895715 Eh          175944.80891 eV
Electronic Energy  :     -10158.92998418554635 Eh         -276438.53873 eV
One Electron Energy:     -17955.72139450346731 Eh         -488600.01909 eV
Two Electron Energy:       7796.79141031792005 Eh          212161.48036 eV
CPCM Dielectric    :         -0.01246442228172 Eh              -0.33917 eV

Virial components:
Potential Energy   :      -7375.31433754887439 Eh         -200692.50613 eV
Kinetic Energy     :       3682.22503288000371 Eh          100198.43713 eV
Virial Ratio       :          2.00295046383419

DFT components:
N(Alpha)           :      174.999976240118 electrons
N(Beta)            :      174.999976240118 electrons
N(Total)           :      349.999952480236 electrons
E(X)               :     -336.969328557119 Eh       
E(C)               :      -12.251075376777 Eh       
E(XC)              :     -349.220403933896 Eh       

CPCM Solvation Model Properties:
Surface-charge          :         -0.04906719083273
Corrected charge        :         -0.00000000000000
Outlying charge corr.   :          0.00005488965515 Eh               0.00149 eV
Free-energy (cav+disp)  :  This term is not implemented in the current solvation scheme

---------------
SCF CONVERGENCE
---------------

  Last Energy change         ...    2.8656e-08  Tolerance :   1.0000e-08
  Last MAX-Density change    ...    1.0481e-03  Tolerance :   1.0000e-07
  Last RMS-Density change    ...    1.5046e-05  Tolerance :   5.0000e-09
  Last DIIS Error            ...    1.2908e-05  Tolerance :   5.0000e-07
  Last Orbital Gradient      ...    1.2152e-06  Tolerance :   1.0000e-05
  Last Orbital Rotation      ...    5.6131e-06  Tolerance :   1.0000e-05


----------------
ORBITAL ENERGIES
----------------

  NO   OCC          E(Eh)            E(eV) 
   0   2.0000    -346.278876     -9422.7273 
   1   2.0000     -41.730690     -1135.5498 
   2   2.0000     -36.730882      -999.4981 
   3   2.0000     -36.721789      -999.2507 
   4   2.0000     -36.721788      -999.2506 
   5   2.0000     -14.099000      -383.6533 
   6   2.0000     -14.098986      -383.6529 
   7   2.0000     -14.098976      -383.6526 
   8   2.0000     -14.098958      -383.6522 
   9   2.0000     -10.019669      -272.6491 
  10   2.0000     -10.019652      -272.6486 
  11   2.0000     -10.019644      -272.6484 
  12   2.0000     -10.019643      -272.6483 
  13   2.0000     -10.019634      -272.6481 
  14   2.0000     -10.019629      -272.6480 
  15   2.0000     -10.019627      -272.6479 
  16   2.0000     -10.019621      -272.6477 
  17   2.0000     -10.006674      -272.2955 
  18   2.0000     -10.006642      -272.2946 
  19   2.0000     -10.006635      -272.2944 
  20   2.0000     -10.006621      -272.2940 
  21   2.0000     -10.000619      -272.1307 
  22   2.0000     -10.000602      -272.1302 
  23   2.0000     -10.000599      -272.1301 
  24   2.0000     -10.000589      -272.1299 
  25   2.0000      -9.989458      -271.8270 
  26   2.0000      -9.989454      -271.8269 
  27   2.0000      -9.989452      -271.8268 
  28   2.0000      -9.989448      -271.8267 
  29   2.0000      -9.989418      -271.8259 
  30   2.0000      -9.989415      -271.8258 
  31   2.0000      -9.989415      -271.8258 
  32   2.0000      -9.989408      -271.8256 
  33   2.0000      -9.989099      -271.8172 
  34   2.0000      -9.989095      -271.8171 
  35   2.0000      -9.989095      -271.8171 
  36   2.0000      -9.989089      -271.8169 
  37   2.0000      -9.989005      -271.8146 
  38   2.0000      -9.989002      -271.8146 
  39   2.0000      -9.989000      -271.8145 
  40   2.0000      -9.988996      -271.8144 
  41   2.0000      -9.988564      -271.8026 
  42   2.0000      -9.988560      -271.8025 
  43   2.0000      -9.988555      -271.8024 
  44   2.0000      -9.988555      -271.8024 
  45   2.0000      -9.982794      -271.6456 
  46   2.0000      -9.982790      -271.6455 
  47   2.0000      -9.982785      -271.6454 
  48   2.0000      -9.982783      -271.6453 
  49   2.0000      -9.982246      -271.6307 
  50   2.0000      -9.982242      -271.6306 
  51   2.0000      -9.982237      -271.6305 
  52   2.0000      -9.982236      -271.6304 
  53   2.0000      -4.630905      -126.0133 
  54   2.0000      -3.047164       -82.9175 
  55   2.0000      -3.034723       -82.5790 
  56   2.0000      -3.034717       -82.5788 
  57   2.0000      -0.899034       -24.4640 
  58   2.0000      -0.890320       -24.2268 
  59   2.0000      -0.890317       -24.2268 
  60   2.0000      -0.880860       -23.9694 
  61   2.0000      -0.807679       -21.9781 
  62   2.0000      -0.804343       -21.8873 
  63   2.0000      -0.804335       -21.8871 
  64   2.0000      -0.802807       -21.8455 
  65   2.0000      -0.764052       -20.7909 
  66   2.0000      -0.747374       -20.3371 
  67   2.0000      -0.747367       -20.3369 
  68   2.0000      -0.730649       -19.8820 
  69   2.0000      -0.710227       -19.3263 
  70   2.0000      -0.709960       -19.3190 
  71   2.0000      -0.709953       -19.3188 
  72   2.0000      -0.704420       -19.1683 
  73   2.0000      -0.693068       -18.8593 
  74   2.0000      -0.692976       -18.8568 
  75   2.0000      -0.692971       -18.8567 
  76   2.0000      -0.692923       -18.8554 
  77   2.0000      -0.686034       -18.6679 
  78   2.0000      -0.679104       -18.4794 
  79   2.0000      -0.679102       -18.4793 
  80   2.0000      -0.662047       -18.0152 
  81   2.0000      -0.655070       -17.8254 
  82   2.0000      -0.606885       -16.5142 
  83   2.0000      -0.606884       -16.5142 
  84   2.0000      -0.569601       -15.4996 
  85   2.0000      -0.559299       -15.2193 
  86   2.0000      -0.559063       -15.2129 
  87   2.0000      -0.559059       -15.2128 
  88   2.0000      -0.558902       -15.2085 
  89   2.0000      -0.552406       -15.0317 
  90   2.0000      -0.552388       -15.0312 
  91   2.0000      -0.546274       -14.8649 
  92   2.0000      -0.545394       -14.8409 
  93   2.0000      -0.532905       -14.5011 
  94   2.0000      -0.515286       -14.0216 
  95   2.0000      -0.515281       -14.0215 
  96   2.0000      -0.505829       -13.7643 
  97   2.0000      -0.500327       -13.6146 
  98   2.0000      -0.498163       -13.5557 
  99   2.0000      -0.482494       -13.1293 
 100   2.0000      -0.482488       -13.1292 
 101   2.0000      -0.477223       -12.9859 
 102   2.0000      -0.472499       -12.8574 
 103   2.0000      -0.470730       -12.8092 
 104   2.0000      -0.470721       -12.8090 
 105   2.0000      -0.457888       -12.4598 
 106   2.0000      -0.445308       -12.1174 
 107   2.0000      -0.445297       -12.1171 
 108   2.0000      -0.421380       -11.4663 
 109   2.0000      -0.415573       -11.3083 
 110   2.0000      -0.413423       -11.2498 
 111   2.0000      -0.413417       -11.2496 
 112   2.0000      -0.411371       -11.1940 
 113   2.0000      -0.409697       -11.1484 
 114   2.0000      -0.409686       -11.1481 
 115   2.0000      -0.408716       -11.1217 
 116   2.0000      -0.401274       -10.9192 
 117   2.0000      -0.390704       -10.6316 
 118   2.0000      -0.390091       -10.6149 
 119   2.0000      -0.387589       -10.5468 
 120   2.0000      -0.387570       -10.5463 
 121   2.0000      -0.384160       -10.4535 
 122   2.0000      -0.382493       -10.4082 
 123   2.0000      -0.380601       -10.3567 
 124   2.0000      -0.380495       -10.3538 
 125   2.0000      -0.380493       -10.3537 
 126   2.0000      -0.378974       -10.3124 
 127   2.0000      -0.378966       -10.3122 
 128   2.0000      -0.378930       -10.3112 
 129   2.0000      -0.375909       -10.2290 
 130   2.0000      -0.372039       -10.1237 
 131   2.0000      -0.369249       -10.0478 
 132   2.0000      -0.361746        -9.8436 
 133   2.0000      -0.361742        -9.8435 
 134   2.0000      -0.360511        -9.8100 
 135   2.0000      -0.360507        -9.8099 
 136   2.0000      -0.356545        -9.7021 
 137   2.0000      -0.344951        -9.3866 
 138   2.0000      -0.343878        -9.3574 
 139   2.0000      -0.338932        -9.2228 
 140   2.0000      -0.338170        -9.2021 
 141   2.0000      -0.338164        -9.2019 
 142   2.0000      -0.332852        -9.0574 
 143   2.0000      -0.330247        -8.9865 
 144   2.0000      -0.328582        -8.9412 
 145   2.0000      -0.328577        -8.9410 
 146   2.0000      -0.317493        -8.6394 
 147   2.0000      -0.312051        -8.4913 
 148   2.0000      -0.311594        -8.4789 
 149   2.0000      -0.308424        -8.3926 
 150   2.0000      -0.308422        -8.3926 
 151   2.0000      -0.307615        -8.3706 
 152   2.0000      -0.307337        -8.3631 
 153   2.0000      -0.307330        -8.3629 
 154   2.0000      -0.297693        -8.1006 
 155   2.0000      -0.284206        -7.7336 
 156   2.0000      -0.283679        -7.7193 
 157   2.0000      -0.283652        -7.7186 
 158   2.0000      -0.254637        -6.9290 
 159   2.0000      -0.254596        -6.9279 
 160   2.0000      -0.234909        -6.3922 
 161   2.0000      -0.234883        -6.3915 
 162   2.0000      -0.234653        -6.3852 
 163   2.0000      -0.233663        -6.3583 
 164   2.0000      -0.233652        -6.3580 
 165   2.0000      -0.232000        -6.3130 
 166   2.0000      -0.230012        -6.2589 
 167   2.0000      -0.229985        -6.2582 
 168   2.0000      -0.229307        -6.2398 
 169   2.0000      -0.220063        -5.9882 
 170   2.0000      -0.220054        -5.9880 
 171   2.0000      -0.219246        -5.9660 
 172   2.0000      -0.199768        -5.4360 
 173   2.0000      -0.185968        -5.0604 
 174   2.0000      -0.178363        -4.8535 
 175   0.0000      -0.104829        -2.8525 
 176   0.0000      -0.104822        -2.8524 
 177   0.0000      -0.055029        -1.4974 
 178   0.0000      -0.040650        -1.1061 
 179   0.0000      -0.039505        -1.0750 
 180   0.0000      -0.039495        -1.0747 
 181   0.0000      -0.038599        -1.0503 
 182   0.0000      -0.037780        -1.0281 
 183   0.0000      -0.037538        -1.0215 
 184   0.0000      -0.036582        -0.9955 
 185   0.0000      -0.036570        -0.9951 
*Only the first 10 virtual orbitals were printed.

                    ********************************
                    * MULLIKEN POPULATION ANALYSIS *
                    ********************************

-----------------------
MULLIKEN ATOMIC CHARGES
-----------------------
   0 N :   -0.210694
   1 H :    0.136810
   2 C :   -0.210786
   3 C :   -0.210697
   4 N :   -0.211802
   5 C :   -0.210970
   6 H :    0.136889
   7 C :    0.219471
   8 N :   -0.211813
   9 C :   -0.210632
  10 C :   -0.015706
  11 C :    0.220219
  12 N :   -0.210739
  13 C :   -0.210668
  14 C :    0.219329
  15 C :    0.219908
  16 C :    0.219763
  17 C :    0.219478
  18 C :   -0.210621
  19 C :   -0.015286
  20 C :   -0.016395
  21 C :   -0.210583
  22 C :    0.220342
  23 C :   -0.210697
  24 C :   -0.016953
  25 C :    0.220202
  26 H :    0.136768
  27 H :    0.136885
  28 H :    0.136761
  29 H :    0.136755
  30 H :    0.136741
  31 H :    0.136808
  32 Zn:    0.174135
  33 C :   -0.013971
  34 C :   -0.146639
  35 C :   -0.143068
  36 C :   -0.083910
  37 C :   -0.143000
  38 C :   -0.146793
  39 H :    0.110644
  40 H :    0.114885
  41 H :    0.118304
  42 H :    0.114869
  43 H :    0.110655
  44 C :   -0.012095
  45 C :   -0.148404
  46 C :   -0.142220
  47 C :   -0.084434
  48 C :   -0.142051
  49 C :   -0.148525
  50 H :    0.110664
  51 H :    0.114930
  52 H :    0.118311
  53 H :    0.114936
  54 H :    0.110631
  55 C :   -0.015142
  56 C :   -0.145918
  57 C :   -0.143339
  58 C :   -0.083627
  59 C :   -0.143624
  60 C :   -0.145572
  61 H :    0.110666
  62 H :    0.114849
  63 H :    0.118289
  64 H :    0.114862
  65 H :    0.110616
  66 C :   -0.015453
  67 C :   -0.145616
  68 C :   -0.143568
  69 C :   -0.083590
  70 C :   -0.143525
  71 C :   -0.145528
  72 H :    0.110646
  73 H :    0.114856
  74 H :    0.118304
  75 H :    0.114844
  76 H :    0.110631
Sum of atomic charges:    0.0000000

--------------------------------
MULLIKEN REDUCED ORBITAL CHARGES
--------------------------------
  0 N s       :     3.683149  s :     3.683149
      pz      :     1.339247  p :     3.461901
      px      :     1.099691
      py      :     1.022964
      dz2     :     0.004617  d :     0.061869
      dxz     :     0.006901
      dyz     :     0.014362
      dx2y2   :     0.017885
      dxy     :     0.018105
      f0      :     0.000652  f :     0.003774
      f+1     :     0.000307
      f-1     :     0.000427
      f+2     :     0.000120
      f-2     :     0.000626
      f+3     :     0.000679
      f-3     :     0.000965

  1 H s       :     0.842765  s :     0.842765
      pz      :     0.004793  p :     0.020426
      px      :     0.007663
      py      :     0.007969

  2 C s       :     3.302943  s :     3.302943
      pz      :     0.990063  p :     2.809853
      px      :     0.902774
      py      :     0.917016
      dz2     :     0.005814  d :     0.089950
      dxz     :     0.009771
      dyz     :     0.018803
      dx2y2   :     0.019943
      dxy     :     0.035620
      f0      :     0.001324  f :     0.008040
      f+1     :     0.000840
      f-1     :     0.000585
      f+2     :     0.001021
      f-2     :     0.000447
      f+3     :     0.002370
      f-3     :     0.001454

  3 C s       :     3.302773  s :     3.302773
      pz      :     0.989949  p :     2.809954
      px      :     0.917824
      py      :     0.902181
      dz2     :     0.005383  d :     0.089930
      dxz     :     0.019380
      dyz     :     0.009647
      dx2y2   :     0.019879
      dxy     :     0.035641
      f0      :     0.001372  f :     0.008040
      f+1     :     0.000498
      f-1     :     0.000848
      f+2     :     0.001065
      f-2     :     0.000436
      f+3     :     0.001432
      f-3     :     0.002389

  4 N s       :     3.683898  s :     3.683898
      pz      :     1.339544  p :     3.462254
      px      :     1.020245
      py      :     1.102465
      dz2     :     0.004490  d :     0.061876
      dxz     :     0.014557
      dyz     :     0.006789
      dx2y2   :     0.017867
      dxy     :     0.018172
      f0      :     0.000655  f :     0.003774
      f+1     :     0.000417
      f-1     :     0.000314
      f+2     :     0.000116
      f-2     :     0.000622
      f+3     :     0.000973
      f-3     :     0.000679

  5 C s       :     3.303118  s :     3.303118
      pz      :     0.986426  p :     2.809877
      px      :     0.918807
      py      :     0.904644
      dz2     :     0.005660  d :     0.089936
      dxz     :     0.017323
      dyz     :     0.011411
      dx2y2   :     0.019302
      dxy     :     0.036240
      f0      :     0.001357  f :     0.008039
      f+1     :     0.000561
      f-1     :     0.000806
      f+2     :     0.001337
      f-2     :     0.000156
      f+3     :     0.001545
      f-3     :     0.002276

  6 H s       :     0.842681  s :     0.842681
      pz      :     0.004817  p :     0.020431
      px      :     0.006341
      py      :     0.009273

  7 C s       :     3.190187  s :     3.190187
      pz      :     0.941203  p :     2.404232
      px      :     0.775198
      py      :     0.687830
      dz2     :     0.005993  d :     0.171377
      dxz     :     0.029611
      dyz     :     0.036179
      dx2y2   :     0.056472
      dxy     :     0.043123
      f0      :     0.002008  f :     0.014734
      f+1     :     0.000911
      f-1     :     0.001096
      f+2     :     0.000744
      f-2     :     0.002327
      f+3     :     0.003732
      f-3     :     0.003915

  8 N s       :     3.683893  s :     3.683893
      pz      :     1.339633  p :     3.462271
      px      :     1.020231
      py      :     1.102408
      dz2     :     0.004489  d :     0.061874
      dxz     :     0.014560
      dyz     :     0.006788
      dx2y2   :     0.017865
      dxy     :     0.018172
      f0      :     0.000655  f :     0.003774
      f+1     :     0.000417
      f-1     :     0.000314
      f+2     :     0.000116
      f-2     :     0.000622
      f+3     :     0.000973
      f-3     :     0.000679

  9 C s       :     3.303000  s :     3.303000
      pz      :     0.990390  p :     2.809627
      px      :     0.918321
      py      :     0.900916
      dz2     :     0.005589  d :     0.089965
      dxz     :     0.017335
      dyz     :     0.011458
      dx2y2   :     0.019366
      dxy     :     0.036217
      f0      :     0.001357  f :     0.008039
      f+1     :     0.000564
      f-1     :     0.000805
      f+2     :     0.001335
      f-2     :     0.000155
      f+3     :     0.001545
      f-3     :     0.002277

 10 C s       :     3.345396  s :     3.345396
      pz      :     0.967308  p :     2.533389
      px      :     0.770395
      py      :     0.795686
      dz2     :     0.003175  d :     0.127102
      dxz     :     0.022960
      dyz     :     0.024313
      dx2y2   :     0.032286
      dxy     :     0.044367
      f0      :     0.001486  f :     0.009819
      f+1     :     0.000745
      f-1     :     0.000765
      f+2     :     0.000900
      f-2     :     0.001157
      f+3     :     0.002779
      f-3     :     0.001988

 11 C s       :     3.190931  s :     3.190931
      pz      :     0.940632  p :     2.402695
      px      :     0.775659
      py      :     0.686405
      dz2     :     0.006063  d :     0.171419
      dxz     :     0.028356
      dyz     :     0.037379
      dx2y2   :     0.052162
      dxy     :     0.047458
      f0      :     0.002010  f :     0.014735
      f+1     :     0.000839
      f-1     :     0.001167
      f+2     :     0.001188
      f-2     :     0.001893
      f+3     :     0.002608
      f-3     :     0.005031

 12 N s       :     3.683201  s :     3.683201
      pz      :     1.338889  p :     3.461893
      px      :     1.099657
      py      :     1.023347
      dz2     :     0.004647  d :     0.061871
      dxz     :     0.006911
      dyz     :     0.014332
      dx2y2   :     0.017887
      dxy     :     0.018095
      f0      :     0.000650  f :     0.003774
      f+1     :     0.000307
      f-1     :     0.000429
      f+2     :     0.000121
      f-2     :     0.000626
      f+3     :     0.000678
      f-3     :     0.000963

 13 C s       :     3.303206  s :     3.303206
      pz      :     0.987932  p :     2.809459
      px      :     0.901634
      py      :     0.919894
      dz2     :     0.005615  d :     0.089964
      dxz     :     0.011809
      dyz     :     0.016986
      dx2y2   :     0.019431
      dxy     :     0.036123
      f0      :     0.001337  f :     0.008040
      f+1     :     0.000752
      f-1     :     0.000653
      f+2     :     0.001303
      f-2     :     0.000174
      f+3     :     0.002254
      f-3     :     0.001566

 14 C s       :     3.190309  s :     3.190309
      pz      :     0.940102  p :     2.404230
      px      :     0.686896
      py      :     0.777232
      dz2     :     0.005601  d :     0.171397
      dxz     :     0.036987
      dyz     :     0.029313
      dx2y2   :     0.056336
      dxy     :     0.043160
      f0      :     0.002040  f :     0.014734
      f+1     :     0.001051
      f-1     :     0.000912
      f+2     :     0.000764
      f-2     :     0.002300
      f+3     :     0.003935
      f-3     :     0.003731

 15 C s       :     3.191126  s :     3.191126
      pz      :     0.941482  p :     2.402799
      px      :     0.684997
      py      :     0.776320
      dz2     :     0.005726  d :     0.171432
      dxz     :     0.038469
      dyz     :     0.027890
      dx2y2   :     0.051923
      dxy     :     0.047424
      f0      :     0.002038  f :     0.014735
      f+1     :     0.001089
      f-1     :     0.000873
      f+2     :     0.001154
      f-2     :     0.001902
      f+3     :     0.005064
      f-3     :     0.002614

 16 C s       :     3.190997  s :     3.190997
      pz      :     0.938607  p :     2.403068
      px      :     0.775626
      py      :     0.688834
      dz2     :     0.006035  d :     0.171436
      dxz     :     0.028546
      dyz     :     0.037543
      dx2y2   :     0.052075
      dxy     :     0.047236
      f0      :     0.002012  f :     0.014735
      f+1     :     0.000836
      f-1     :     0.001160
      f+2     :     0.001190
      f-2     :     0.001892
      f+3     :     0.002614
      f-3     :     0.005031

 17 C s       :     3.190225  s :     3.190225
      pz      :     0.938437  p :     2.404189
      px      :     0.775370
      py      :     0.690382
      dz2     :     0.005880  d :     0.171375
      dxz     :     0.029792
      dyz     :     0.036343
      dx2y2   :     0.056395
      dxy     :     0.042965
      f0      :     0.002011  f :     0.014733
      f+1     :     0.000905
      f-1     :     0.001095
      f+2     :     0.000742
      f-2     :     0.002331
      f+3     :     0.003733
      f-3     :     0.003916

 18 C s       :     3.302867  s :     3.302867
      pz      :     0.989122  p :     2.809776
      px      :     0.902337
      py      :     0.918316
      dz2     :     0.005640  d :     0.089939
      dxz     :     0.011826
      dyz     :     0.016972
      dx2y2   :     0.019404
      dxy     :     0.036097
      f0      :     0.001338  f :     0.008039
      f+1     :     0.000749
      f-1     :     0.000652
      f+2     :     0.001305
      f-2     :     0.000178
      f+3     :     0.002254
      f-3     :     0.001564

 19 C s       :     3.345936  s :     3.345936
      pz      :     0.972308  p :     2.532442
      px      :     0.791076
      py      :     0.769059
      dz2     :     0.003209  d :     0.127089
      dxz     :     0.024970
      dyz     :     0.022155
      dx2y2   :     0.032529
      dxy     :     0.044226
      f0      :     0.001506  f :     0.009819
      f+1     :     0.000715
      f-1     :     0.000775
      f+2     :     0.000911
      f-2     :     0.001148
      f+3     :     0.001987
      f-3     :     0.002776

 20 C s       :     3.345395  s :     3.345395
      pz      :     0.974164  p :     2.534048
      px      :     0.769751
      py      :     0.790133
      dz2     :     0.003433  d :     0.127132
      dxz     :     0.022930
      dyz     :     0.023912
      dx2y2   :     0.032578
      dxy     :     0.044279
      f0      :     0.001491  f :     0.009820
      f+1     :     0.000750
      f-1     :     0.000766
      f+2     :     0.000894
      f-2     :     0.001163
      f+3     :     0.002768
      f-3     :     0.001988

 21 C s       :     3.302940  s :     3.302940
      pz      :     0.986947  p :     2.809655
      px      :     0.903344
      py      :     0.919364
      dz2     :     0.005833  d :     0.089948
      dxz     :     0.009760
      dyz     :     0.018790
      dx2y2   :     0.019945
      dxy     :     0.035619
      f0      :     0.001322  f :     0.008040
      f+1     :     0.000842
      f-1     :     0.000585
      f+2     :     0.001021
      f-2     :     0.000445
      f+3     :     0.002370
      f-3     :     0.001455

 22 C s       :     3.190762  s :     3.190762
[...]
  0-1A  -> 26-1A    3.561543   28725.8   348.1   0.020558461   0.23561   0.10959   0.47055  -0.04670
  0-1A  -> 27-1A    3.578072   28859.1   346.5   0.086766893   0.98980  -0.39373   0.91021  -0.07931
  0-1A  -> 28-1A    3.578227   28860.3   346.5   0.086128117   0.98247   0.91164   0.38559  -0.05193
  0-1A  -> 29-1A    3.586178   28924.5   345.7   0.000042892   0.00049   0.01646   0.01437  -0.00328
  0-1A  -> 30-1A    3.720758   30009.9   333.2   0.465216648   5.10347  -1.52618  -1.65556   0.18268

----------------------------------------------------------------------------------------------------
                     ABSORPTION SPECTRUM VIA TRANSITION VELOCITY DIPOLE MOMENTS    
----------------------------------------------------------------------------------------------------
     Transition      Energy     Energy  Wavelength fosc(P2)      P2        PX        PY        PZ   
                      (eV)      (cm-1)    (nm)                 (au**2)    (au)      (au)      (au)  
----------------------------------------------------------------------------------------------------
  0-1A  ->  1-1A    2.278950   18381.0   544.0   0.011513424   0.00145   0.03764   0.00529  -0.00114
  0-1A  ->  2-1A    2.279049   18381.8   544.0   0.011502117   0.00145  -0.00525   0.03748  -0.00351
  0-1A  ->  3-1A    2.610657   21056.4   474.9   0.000002456   0.00000   0.00026   0.00053  -0.00005
  0-1A  ->  4-1A    2.610838   21057.8   474.9   0.000002192   0.00000  -0.00047   0.00030  -0.00002
  0-1A  ->  5-1A    3.209447   25885.9   386.3   0.131704225   0.02330   0.12596   0.08560  -0.01037
  0-1A  ->  6-1A    3.209716   25888.1   386.3   0.130495515   0.02309   0.08536  -0.12526   0.01057
  0-1A  ->  7-1A    3.248462   26200.6   381.7   0.000003769   0.00000  -0.00070   0.00012  -0.00041
  0-1A  ->  8-1A    3.284736   26493.2   377.5   0.000082270   0.00001   0.00301   0.00241  -0.00025
  0-1A  ->  9-1A    3.293903   26567.1   376.4   0.091854433   0.01668  -0.05593   0.11596  -0.01020
  0-1A  -> 10-1A    3.294082   26568.6   376.4   0.092096902   0.01672   0.11659   0.05549  -0.00722
  0-1A  -> 11-1A    3.313998   26729.2   374.1   0.000040422   0.00001   0.00135  -0.00235   0.00022
  0-1A  -> 12-1A    3.384387   27296.9   366.3   0.000000521   0.00000   0.00030   0.00007  -0.00001
  0-1A  -> 13-1A    3.415176   27545.3   363.0   0.000477124   0.00009   0.00746   0.00583  -0.00041
  0-1A  -> 14-1A    3.415890   27551.0   363.0   0.000633018   0.00012  -0.00749   0.00192  -0.00771
  0-1A  -> 15-1A    3.418795   27574.4   362.7   0.001978581   0.00037   0.00746   0.01771  -0.00192
  0-1A  -> 16-1A    3.419128   27577.1   362.6   0.001638733   0.00031  -0.01110   0.01362  -0.00041
  0-1A  -> 17-1A    3.422372   27603.3   362.3   0.034890646   0.00658   0.07998   0.01318  -0.00344
  0-1A  -> 18-1A    3.422555   27604.8   362.3   0.033360151   0.00629  -0.01369   0.07784  -0.00688
  0-1A  -> 19-1A    3.467836   27970.0   357.5   0.004439134   0.00085   0.00879   0.02763  -0.00280
  0-1A  -> 20-1A    3.467978   27971.1   357.5   0.004928879   0.00094  -0.02864   0.01102  -0.00061
  0-1A  -> 21-1A    3.494595   28185.8   354.8   0.000000496   0.00000   0.00012   0.00028  -0.00004
  0-1A  -> 22-1A    3.511664   28323.5   353.1   0.000116634   0.00002  -0.00118  -0.00024  -0.00460
  0-1A  -> 23-1A    3.521422   28402.2   352.1   0.000003741   0.00000  -0.00046   0.00072  -0.00000
  0-1A  -> 24-1A    3.540885   28559.2   350.2   0.000000224   0.00000   0.00017  -0.00012   0.00001
  0-1A  -> 25-1A    3.561418   28724.8   348.1   0.002222468   0.00044  -0.02037   0.00460  -0.00032
  0-1A  -> 26-1A    3.561543   28725.8   348.1   0.002278970   0.00045  -0.00480  -0.02050   0.00206
  0-1A  -> 27-1A    3.578072   28859.1   346.5   0.012126581   0.00239   0.01936  -0.04473   0.00401
  0-1A  -> 28-1A    3.578227   28860.3   346.5   0.012055197   0.00238  -0.04486  -0.01896   0.00253
  0-1A  -> 29-1A    3.586178   28924.5   345.7   0.000003906   0.00000  -0.00064  -0.00057   0.00019
  0-1A  -> 30-1A    3.720758   30009.9   333.2   0.035894294   0.00736   0.05791   0.06291  -0.00705

------------------------------------------------------------------------------------------
                     CD SPECTRUM VIA TRANSITION ELECTRIC DIPOLE MOMENTS    
------------------------------------------------------------------------------------------
     Transition      Energy     Energy  Wavelength    R        MX        MY        MZ   
                      (eV)      (cm-1)    (nm)   (1e40*cgs)   (au)      (au)      (au)  
------------------------------------------------------------------------------------------
  0-1A  ->  1-1A    2.278950   18381.0   544.0   -0.91385  -0.00599  -0.00062  -0.00039
  0-1A  ->  2-1A    2.279049   18381.8   544.0   -0.87815   0.00095  -0.00567   0.00054
  0-1A  ->  3-1A    2.610657   21056.4   474.9   -0.44653  -0.09305  -0.17624   0.01788
  0-1A  ->  4-1A    2.610838   21057.8   474.9   -0.80341   0.17713  -0.09285   0.00656
  0-1A  ->  5-1A    3.209447   25885.9   386.3  -17.81940  -0.00795  -0.00549  -0.00393
  0-1A  ->  6-1A    3.209716   25888.1   386.3  -17.14864  -0.00504   0.00694  -0.00708
  0-1A  ->  7-1A    3.248462   26200.6   381.7  -11.47442  -0.01449  -0.08457  -0.88908
  0-1A  ->  8-1A    3.284736   26493.2   377.5   -0.02018  -0.00053  -0.00009   0.00270
  0-1A  ->  9-1A    3.293903   26567.1   376.4  -22.68411   0.00870  -0.01889  -0.00430
  0-1A  -> 10-1A    3.294082   26568.6   376.4  -23.86335  -0.01935  -0.00854   0.00627
  0-1A  -> 11-1A    3.313998   26729.2   374.1   -0.00754  -0.00013   0.00032   0.00037
  0-1A  -> 12-1A    3.384387   27296.9   366.3   -0.00104  -0.00002  -0.00040   0.00019
  0-1A  -> 13-1A    3.415176   27545.3   363.0    0.63769   0.00608   0.00505   0.00334
  0-1A  -> 14-1A    3.415890   27551.0   363.0    7.78513  -0.00902  -0.01114  -0.13980
  0-1A  -> 15-1A    3.418795   27574.4   362.7    2.45008   0.00543   0.01301  -0.00351
  0-1A  -> 16-1A    3.419128   27577.1   362.6    2.33534  -0.00852   0.01215   0.01029
  0-1A  -> 17-1A    3.422372   27603.3   362.3   42.17000   0.05677   0.00868  -0.01776
  0-1A  -> 18-1A    3.422555   27604.8   362.3   40.45584  -0.00942   0.05646   0.00126
  0-1A  -> 19-1A    3.467836   27970.0   357.5    5.05235   0.01329   0.03917  -0.00348
  0-1A  -> 20-1A    3.467978   27971.1   357.5    5.67773  -0.03969   0.01466   0.00198
  0-1A  -> 21-1A    3.494595   28185.8   354.8   -0.00021  -0.00006  -0.00001  -0.00122
  0-1A  -> 22-1A    3.511664   28323.5   353.1   -6.37545  -0.00285  -0.01297  -0.13632
  0-1A  -> 23-1A    3.521422   28402.2   352.1    0.00446  -0.00043   0.00089  -0.00233
  0-1A  -> 24-1A    3.540885   28559.2   350.2   -0.00007   0.00007   0.00009  -0.00003
  0-1A  -> 25-1A    3.561418   28724.8   348.1   -1.79753   0.00774  -0.00180   0.00075
  0-1A  -> 26-1A    3.561543   28725.8   348.1   -1.72766   0.00150   0.00736  -0.00081
  0-1A  -> 27-1A    3.578072   28859.1   346.5   -0.02312   0.00017   0.00009  -0.00040
  0-1A  -> 28-1A    3.578227   28860.3   346.5   -0.18534   0.00036   0.00020   0.00013
  0-1A  -> 29-1A    3.586178   28924.5   345.7    0.00356  -0.00022  -0.00027   0.00002
  0-1A  -> 30-1A    3.720758   30009.9   333.2    1.35070   0.00034   0.00139  -0.00028

------------------------------------------------------------------------------------------
                     CD SPECTRUM VIA TRANSITION VELOCITY DIPOLE MOMENTS    
------------------------------------------------------------------------------------------
     Transition      Energy     Energy  Wavelength    R        MX        MY        MZ   
                      (eV)      (cm-1)    (nm)   (1e40*cgs)   (au)      (au)      (au)  
------------------------------------------------------------------------------------------
  0-1A  ->  1-1A    2.278950   18381.0   544.0   -1.28528  -0.00599  -0.00062  -0.00039
  0-1A  ->  2-1A    2.279049   18381.8   544.0   -1.23612   0.00095  -0.00567   0.00054
  0-1A  ->  3-1A    2.610657   21056.4   474.9   -0.58426  -0.09305  -0.17624   0.01788
  0-1A  ->  4-1A    2.610838   21057.8   474.9   -0.55017   0.17713  -0.09285   0.00656
  0-1A  ->  5-1A    3.209447   25885.9   386.3   -5.71927  -0.00795  -0.00549  -0.00393
  0-1A  ->  6-1A    3.209716   25888.1   386.3   -5.49225  -0.00504   0.00694  -0.00708
  0-1A  ->  7-1A    3.248462   26200.6   381.7    1.43444  -0.01449  -0.08457  -0.88908
  0-1A  ->  8-1A    3.284736   26493.2   377.5   -0.00974  -0.00053  -0.00009   0.00270
  0-1A  ->  9-1A    3.293903   26567.1   376.4  -10.25422   0.00870  -0.01889  -0.00430
  0-1A  -> 10-1A    3.294082   26568.6   376.4  -10.80641  -0.01935  -0.00854   0.00627
  0-1A  -> 11-1A    3.313998   26729.2   374.1   -0.00330  -0.00013   0.00032   0.00037
  0-1A  -> 12-1A    3.384387   27296.9   366.3   -0.00014  -0.00002  -0.00040   0.00019
  0-1A  -> 13-1A    3.415176   27545.3   363.0    0.27582   0.00608   0.00505   0.00334
  0-1A  -> 14-1A    3.415890   27551.0   363.0    4.22102  -0.00902  -0.01114  -0.13980
  0-1A  -> 15-1A    3.418795   27574.4   362.7    1.04142   0.00543   0.01301  -0.00351
  0-1A  -> 16-1A    3.419128   27577.1   362.6    0.95995  -0.00852   0.01215   0.01029
  0-1A  -> 17-1A    3.422372   27603.3   362.3   17.67847   0.05677   0.00868  -0.01776
  0-1A  -> 18-1A    3.422555   27604.8   362.3   16.92377  -0.00942   0.05646   0.00126
  0-1A  -> 19-1A    3.467836   27970.0   357.5    4.47221   0.01329   0.03917  -0.00348
  0-1A  -> 20-1A    3.467978   27971.1   357.5    4.79908  -0.03969   0.01466   0.00198
  0-1A  -> 21-1A    3.494595   28185.8   354.8    0.00015  -0.00006  -0.00001  -0.00122
  0-1A  -> 22-1A    3.511664   28323.5   353.1    2.31213  -0.00285  -0.01297  -0.13632
  0-1A  -> 23-1A    3.521422   28402.2   352.1    0.00310  -0.00043   0.00089  -0.00233
  0-1A  -> 24-1A    3.540885   28559.2   350.2    0.00000   0.00007   0.00009  -0.00003
  0-1A  -> 25-1A    3.561418   28724.8   348.1   -0.59852   0.00774  -0.00180   0.00075
  0-1A  -> 26-1A    3.561543   28725.8   348.1   -0.57521   0.00150   0.00736  -0.00081
  0-1A  -> 27-1A    3.578072   28859.1   346.5   -0.00879   0.00017   0.00009  -0.00040
  0-1A  -> 28-1A    3.578227   28860.3   346.5   -0.06935   0.00036   0.00020   0.00013
  0-1A  -> 29-1A    3.586178   28924.5   345.7    0.00107  -0.00022  -0.00027   0.00002
  0-1A  -> 30-1A    3.720758   30009.9   333.2    0.37540   0.00034   0.00139  -0.00028

Total run time:     7512.648 sec

           *** ORCA-CIS/TD-DFT FINISHED WITHOUT ERROR ***
-----------------------
CIS/TD-DFT TOTAL ENERGY
-----------------------

    E(SCF)  =  -3693.089304669 Eh
    DE(CIS) =      0.083749881 Eh (Root  1)
    ----------------------------- ---------
    E(tot)  =  -3693.005554788 Eh


Maximum memory used throughout the entire CIS-calculation: 3012.3 MB
=> NOW LEAVING ORCA_CIS

-------------------------   --------------------
FINAL SINGLE POINT ENERGY     -3693.005554787702
-------------------------   --------------------



           ************************************************************
           *        Program running with 8 parallel MPI-processes     *
           *              working on a common directory               *
           ************************************************************

------------------------------------------------------------------------------
                              ORCA PROPERTY CALCULATIONS
------------------------------------------------------------------------------

GBWName                                 ... tddft.gbw
Number of atoms                         ...     77
Number of basis functions               ...   1704
Max core memory                         ...   3000 MB

Electric properties:
Dipole moment                           ... YES
Quadrupole moment                       ...  NO
Static polarizability (Dipole/Dipole)   ...  NO
Static polarizability (Dipole/Quad.)    ...  NO
Static polarizability (Quad./Quad.)     ...  NO
Static polarizability (Velocity)        ...  NO
Static hyperpolarizability              ...  NO

Atomic electric properties:
Dipole moment                           ...  NO
Quadrupole moment                       ...  NO
Static polarizability                   ...  NO

Choice of electric origin               ... Center of mass
Position of electric origin             ...    -0.159900     5.089041     6.548333

General magnetic properties:
Magnetizability                         ...  NO

EPR properties:
g-Tensor (aka g-matrix)                 ...  NO
Zero-Field splitting spin-orbit         ...  NO
Zero-field splitting spin-spin          ...  NO
Hyperfine couplings                     ...  NO (   0 nuclei)
Quadrupole couplings                    ...  NO (   0 nuclei)
Contact density                         ...  NO (   0 nuclei)

NMR properties:
Chemical shifts                         ...  NO (   0 nuclei)
Spin-rotation constants                 ...  NO (   0 nuclei)
Spin-spin couplings                     ...  NO (   0 nuclei,    0 pairs)

Choice of magnetic origin               ... GIAO
Position of magnetic origin             ...     0.000000     0.000000     0.000000

Properties with geometric perturbations:
SCF Hessian                             ...  NO
IR spectrum                             ...  NO
VCD spectrum                            ...  NO
X-ray spectroscopy properties:
SCF XES/XAS/RIXS spectra                ...  NO

SCF SOC stabilization energy            ...  NO
Diagonal Born-Oppenheimer correction    ...  NO

-------------
DIPOLE MOMENT
-------------

Method             : SCF
Type of density    : Electron Density
Multiplicity       :   1
Irrep              :   0
Energy             : -3693.0893046688706818 Eh
Basis              : AO
                                X                 Y                 Z
Electronic contribution:     -0.008679648       0.002342276       0.018593641
Nuclear contribution   :      0.009078313      -0.003119452      -0.019187423
                        -----------------------------------------
Total Dipole Moment    :      0.000398665      -0.000777176      -0.000593782
                        -----------------------------------------
Magnitude (a.u.)       :      0.001056178
Magnitude (Debye)      :      0.002684592



--------------------
Rotational spectrum 
--------------------
 
Rotational constants in cm-1:             0.001946             0.001946             0.001013 
Rotational constants in MHz :            58.342005            58.333325            30.369733 

Dipole components along the rotational axes: 
x,y,z [a.u.] :     0.000428    -0.000706    -0.000659 
x,y,z [Debye]:     0.001087    -0.001795    -0.001675 

 

Dipole moment calculation done in   1.5 sec 

Maximum memory used throughout the entire PROP-calculation: 234.8 MB

--------------------------------
SUGGESTED CITATIONS FOR THIS RUN
--------------------------------

Below you find a list of papers that are relevant to this ORCA run
We neither can nor want to force you to cite these papers, but we appreciate if you do
You receive ORCA, which is the product of decades of hard work by many enthusiastic individuals, for free
The only thing we kindly ask in return is that you cite our papers,
We deeply appreciate it, if you show your appreciation for ORCA by not just citing the generic ORCA reference.

Please note that relegating all ORCA citations to the supporting information does *not* help us.
SI sections are not indexed - citations you put there will not count into any citation statistics
But we need these citations in order to attract the funding resources that allow us to do what we are doing

Therefore, if you are a happy ORCA user, please consider citing a few of the papers listed below in the main body of your paper

In addition to the list printed below, the program has created the file tddft.bibtex that contains the list in bibtex format
You can import this file easily into all common literature databanks and citation aid programs

It goes without saying that in many instances, there are alternative algorithms to achieve similar
results as the ones you have gotten from ORCA. It is, of course, also the case that in some instances
ORCA just re-implements algorithms worked out by others. We are fully aware of that and we are also
fully appreciative of our colleagues work. Hence this citation list should not be read as indicating
that the listed papers, which are focused on our own work, are the only ones worth citing. It simply
meant to make it easier for users to cite ORCA specific papers. It is not a substitute for doing your
own literature research and citing the relevant literature in a scientifically appropriate manner.

List of essential papers. We consider these as the minimum necessary citations

  1. Neese, F.
     Software update: the ORCA program system, version 6.0
     WIRES Comput. Molec. Sci. 2025 15(1), e70019
     doi.org/10.1002/wcms.70019

List of papers to cite with high priority. The work reported in these papers was absolutely
necessary for this run to complete.
Our perspective: the developers of density functionals and basis sets usually get cited in chemistry papers
Good! But without the algorithms to do something with them, the functionals or basis sets would not do anything.
Hence, in our opinion, the algorithm design and method developments papers are equally worthy of getting cited

  1. Neese, F.; Olbrich, G.
     Efficient use of the resolution of the identity approximation in time-dependent density functional calculations with hybrid density functionals
     Chem. Phys. Lett. 2002 362 , 170-178
     doi.org/10.1016/s0009-2614(02)01053-9
  2. Neese, F.
     An improvement of the resolution of the identity approximation for the formation of the Coulomb matrix
     J. Comp. Chem. 2003 24(14), 1740-1747
     doi.org/10.1002/jcc.10318
  3. Garcia-Rates, M.; Neese, F.
     Effect of the Solute Cavity on the Solvation Energy and its Derivatives within the Framework of the Gaussian Charge Scheme
     J. Comput. Chem. 2020 41 , 922-939
     doi.org/10.1002/jcc.26139
  4. Neese, F.
     The SHARK Integral Generation and Digestion System
     J. Comp. Chem. 2022 44(3), 381
     doi.org/10.1002/jcc.26942

List of suggested additional citations. These are papers that are important in the 'surrounding' of 
of this run, or papers that preceded the highly important papers. If you like your results we are grateful for a citation.

  1. Neese, F.
     The ORCA program system
     WIRES Comput. Molec. Sci. 2012 2(1), 73-78
     doi.org/10.1002/wcms.81
  2. Neese, F.
     Software update: the ORCA program system, version 4.0
     WIRES Comput. Molec. Sci. 2018 8(1), 1-6
     doi.org/10.1002/wcms.1327
  3. Neese, F.; Wennmohs, F.; Becker, U.; Riplinger, C.
     The ORCA quantum chemistry program package
     J. Chem. Phys. 2020 152(22), 224108
     doi.org/10.1063/5.0004608
  4. Neese, F.
     Software update: The ORCA program system—Version 5.0
     WIRES Comput. Molec. Sci. 2022 12(1), e1606
     doi.org/10.1002/wcms.1606

List of optional additional citations

  1. Neese, F.
     Approximate second-order SCF convergence for spin unrestricted wavefunctions
     Chem. Phys. Lett. 2000 325(1-3), 93-98
     doi.org/10.1016/s0009-2614(00)00662-x

Timings for individual modules:

Sum of individual times          ...     7950.668 sec (= 132.511 min)
Startup calculation              ...       23.891 sec (=   0.398 min)   0.3 %
SCF iterations                   ...      394.171 sec (=   6.570 min)   5.0 %
Property integrals               ...       11.688 sec (=   0.195 min)   0.1 %
Property calculations            ...        7.373 sec (=   0.123 min)   0.1 %
CIS module                       ...     7513.545 sec (= 125.226 min)  94.5 %
                             ****ORCA TERMINATED NORMALLY****
TOTAL RUN TIME: 0 days 2 hours 12 minutes 31 seconds 350 msec
