
                                 *****************
                                 * O   R   C   A *
                                 *****************

                                            #,                                       
                                            ###                                      
                                            ####                                     
                                            #####                                    
                                            ######                                   
                                           ########,                                 
                                     ,,################,,,,,                         
                               ,,#################################,,                 
                          ,,##########################################,,             
                       ,#########################################, ''#####,          
                    ,#############################################,,   '####,        
                  ,##################################################,,,,####,       
                ,###########''''           ''''###############################       
              ,#####''   ,,,,##########,,,,          '''####'''          '####       
            ,##' ,,,,###########################,,,                        '##       
           ' ,,###''''                  '''############,,,                           
         ,,##''                                '''############,,,,        ,,,,,,###''
      ,#''                                            '''#######################'''  
     '                                                          ''''####''''         
             ,#######,   #######,   ,#######,      ##                                
            ,#'     '#,  ##    ##  ,#'     '#,    #''#        ,####,    ,#,          
            ##       ##  ##   ,#'  ##            #'  '#       #'       ,# #          
            ##       ##  #######   ##           ,######,      #####,      #          
            '#,     ,#'  ##    ##  '#,     ,#' ,#      #,     #,   #      #          
             '#######'   ##     ##  '#######'  #'      '#     '####' #    #          



                #########################################################
                #                        -***-                          #
                #          Department of theory and spectroscopy        #
                #                                                       #
                #                      Frank Neese                      #
                #                                                       #
                #     Directorship, Architecture, Infrastructure        #
                #                    SHARK, DRIVERS                     #
                #        Core code/Algorithms in most modules           #
                #                                                       #
                #        Max Planck Institute fuer Kohlenforschung      #
                #                Kaiser Wilhelm Platz 1                 #
                #                 D-45470 Muelheim/Ruhr                 #
                #                      Germany                          #
                #                                                       #
                #                  All rights reserved                  #
                #                        -***-                          #
                #########################################################


                         Program Version 6.1.1  -  RELEASE   -
                                (GIT: $487d211c$)
                          ($2025-11-21 10:33:24 +0100$)


 With contributions from (in alphabetic order):
[Max-Planck-Institut fuer Kohlenforschung]                               
  Daniel Aravena         : Magnetic Suceptibility                        
  Michael Atanasov       : Ab Initio Ligand Field Theory (pilot matlab implementation)
  Alexander A. Auer      : GIAO ZORA, VPT2 properties, NMR spectrum      
  Ute Becker             : All parallelization in ORCA, NUMFREQ, NUMCALC 
  Giovanni Bistoni       : ED, misc. LED, open-shell LED, HFLD           
  Dmytro Bykov           : pre 5.0 version of the SCF Hessian            
  Marcos Casanova-Páez   : Triplet and SCS-CIS(D). UHF-(DLPNO)-IP/EA/STEOM-CCSD. UHF-CVS-IP/STEOM-CCSD   
  Vijay G. Chilkuri      : MRCI spin determinant printing, contributions to CSF-ICE 
  Pauline Colinet        : FMM embedding                                 
  Dipayan Datta          : RHF DLPNO-CCSD density                        
  Achintya Kumar Dutta   : EOM-CC, STEOM-CC                              
  Nicolas Foglia         : Exact transition moments, OPA infrastructure, MCD improvements    
  Dmitry Ganyushin       : Spin-Orbit,Spin-Spin,Magnetic field MRCI      
  Miquel Garcia-Rates    : C-PCM and meta-GGA Hessian, CCSD/C-PCM, Gaussian charge scheme 
  Tiago L. C. Gouveia    : GS-ROHF, GS-ROCIS                             
  Yang Guo               : DLPNO-NEVPT2, F12-NEVPT2, CIM, IAO-localization        
  Andreas Hansen         : Spin unrestricted coupled pair/coupled cluster methods 
  Ingolf Harden          : AUTO-CI MPn and infrastructure                
  Benjamin Helmich-Paris : MC-RPA, TRAH-(SCF,CASSCF), AVAS, COSX integrals, SCF dyn. polar., MC-PDFT, srDFT 
  Lee Huntington         : MR-EOM, pCC                                   
  Robert Izsak           : Overlap fitted RIJCOSX, COSX-SCS-MP3, EOM     
  Riya Kayal             : Wick's Theorem for AUTO-CI, AUTO-CI UHF-CCSDT 
  Emily Kempfer          : AUTO-CI RHF CISDT and CCSDT, approximate NEVPT4
  Christian Kollmar      : KDIIS, OOCD, Brueckner-CCSD(T), CCSD density, CASPT2, CASPT2-K, improved NEVPT2 
  Axel Koslowski         : Symmetry handling                             
  Simone Kossmann        : meta-GGA functionals, TD-DFT gradient, OOMP2, (MP2 Hessian; deprecated post 5.0) 
  Lucas Lang             : DCDCAS, Hyperfine gauge corrections, ICE-SOC+SSC
  Marvin Lechner         : AUTO-CI (C++ implementation), FIC-MRCC        
  Spencer Leger          : CASSCF response                               
  Dagmar Lenk            : GEPOL surface, SMD, ORCA-2-JSON               
  Dimitrios Liakos       : Extrapolation schemes; Compound Job, Property file
  Dimitrios Manganas     : Further ROCIS development; embedding schemes. LFT, Crystal Embedding 
  Dimitrios Pantazis     : SARC Basis sets                               
  Anastasios Papadopoulos: AUTO-CI, single reference methods and gradients 
  Taras Petrenko         : pre 6.0 DFT Hessian and TD-DFT gradient,  ECA, NRVS 
  Petra Pikulova         : Analytic Raman intensities                    
  Peter Pinski           : DLPNO-MP2, DLPNO-MP2 Gradient                 
  Shashank Vittal Rao    : ES-AILFT, MagRelax                            
  Christoph Reimann      : Effective Core Potentials                     
  Marius Retegan         : Local ZFS, SOC                                
  Christoph Riplinger    : Optimizer, TS searches, QM/MM, DLPNO-CCSD(T), (RO)-DLPNO pert. Triples 
  Michael Roemelt        : Original ROCIS implementation, recursive CI coupling coefficients
  Masaaki Saitow         : Open-shell DLPNO-CCSD energy and density      
  Barbara Sandhoefer     : DKH picture change effects                    
  Yorick L. A. Schmerwitz: GMF and freeze-and-release deltaSCF, NEB S-IDPP initial path                    
  Kantharuban Sivalingam : CASSCF convergence/infrastructure, NEVPT2, NEVPT3, NEVPT4(SD), FIC-MRCI and CEPA variants
  Bernardo de Souza      : ESD, SOC TD-DFT                               
  Georgi L. Stoychev     : AutoAux, RI-MP2 NMR, DLPNO-MP2 response, X2C  
  Van Anh Tran           : RI-MP2 g-tensors                              
  Willem Van den Heuvel  : Paramagnetic NMR                              
  Zikuan Wang            : NOTCH, Electric field optimization            
  Frank Wennmohs         : Technical directorship and infrastructure     
  Hang Xu                : AUTO-CI-Response properties                   
                                                                         
[FACCTs GmbH]                                                            
  Markus Bursch, Nicolas Foglia, Miquel Garcia-Rates, Ingolf Harden, Hagen Neugebauer, Anastasios Papadopoulos, 
  Christoph Riplinger, Bernardo de Souza, Georgi L. Stoychev                                                    
                                                                 
  APM, various basis sets, CI-OPT, improved COSX, DLPNO-Multilevel,           
  DOCKER, DRACO, updates on ESD, Fragmentator, GOAT, IRC, LR-CPCM, L-BFGS, MBIS, meta-GGA TD-DFT gradient, ML-optimized integration grids, 
  MM, NACMEs, nearIR, NEB, NEB-TS, NL-DFT gradient (VV10), 2- and 3-layer-ONIOM, interface openCOSMO-RS, QMMM,   
  Crystal-QMMM, RESP, rigid body optimization, SF, symmetry and pop. for TD-DFT, various functionals, SOLVATOR                                   
                                                                         
[Other institutions]                                                     
  V. Asgeirsson          : NEB                                           
  Christoph Bannwarth    : sTDA-DFT, sTD-DFT, PBEh-3c, B97-3c, D3        
  Giovanni Bistoni       : ETS/NOCV, ADLD/ADEX, COVALED                  
  Martin Brehm           : Molecular dynamics                            
  Ronald Cardenas        : ETS/NOCV                                      
  Martina Colucci        : COVALED                                       
  Sebastian Ehlert       : rSCAN, r2SCAN, r2SCAN-3c, D4, dhf basis sets  
  Marvin Friede          : D4 for Fr, Ra, Ac-Lr                          
  Lars Goerigk           : TD-DFT with DH, B97 family of functionals     
  Stefan Grimme          : VdW corrections, initial TS optimization, DFT functionals, gCP, sTDA/sTD-DF 
  Waldemar Hujo          : DFT-NL                                        
  H. Jonsson             : NEB                                           
  Holger Kruse           : gCP                                           
  Marcel Mueller         : wB97X-3c, vDZP basis set                      
  Hagen Neugebauer       : wr2SCAN, Native XTB                           
  Gianluca Regni         : ADLD/ADEX                                     
  Tobias Risthaus        : pre 6.0 range-separated hybrid DFT and stability analysis
  Lukas Wittmann         : regularized MP2, r2SCAN double-hybrids, wr2SCAN        
                                                                         
We gratefully acknowledge several colleagues who have allowed us to      
interface, adapt or use parts of their codes:                            
  Ed Valeev, F. Pavosevic, A. Kumar             : LibInt (2-el integral package), F12 methods 
  Garnet Chan, S. Sharma, J. Yang, R. Olivares  : DMRG                   
  Ulf Ekstrom                                   : XCFun DFT Library      
  Mihaly Kallay                                 : mrcc  (arbitrary order and MRCC methods)
  Frank Weinhold                                : gennbo (NPA and NBO analysis)           
  Simon Mueller                                 : openCOSMO-RS                            
  Christopher J. Cramer and Donald G. Truhlar   : smd solvation model                     
  S Lehtola, MJT Oliveira, MAL Marques          : LibXC Library                           
  Liviu Ungur et al                             : ANISO software                          


 Your calculation uses the libint2 library for the computation of 2-el integrals
 For citations please refer to: http://libint.valeyev.net

 Your ORCA version has been built with support for libXC version: 7.0.0
 For citations please refer to: https://libxc.gitlab.io

 This ORCA versions uses:
   CBLAS   interface :  Fast vector & matrix operations
   LAPACKE interface :  Fast linear algebra routines
   SCALAPACK package :  Parallel linear algebra routines
   Shared memory     :  Shared parallel matrices
   BLAS/LAPACK       :  OpenBLAS 0.3.29  USE64BITINT DYNAMIC_ARCH NO_AFFINITY Haswell SINGLE_THREADED
        Core in use  :  Haswell
   Copyright (c) 2011-2014, The OpenBLAS Project


  ***********************************
  * Starting time: Sat Jun  6 12:37:27 2026
  * Host name:     steezy
  * Process ID:    1722306
  * Working dir.:  /home/jannes/zntpp/03_tddft/m062x
  ***********************************

NOTE: MaxCore=3000 MB was set to SCF,MP2,MDCI,CIPSI,MRCI,RASCI and CIS
      => If you want to overwrite this, your respective input block should be placed after the MaxCore statement


***************************************
The coordinates will be read from file: /home/jannes/zntpp/01_opt/zntpp_opt_b3lyp_tzvp.xyz
***************************************


XCFun DFT library Copyright 2009-2010 Ulf Ekstrom and contributors.
See http://admol.org/xcfun for more information.
This is free software; see the source code for copying conditions.
There is ABSOLUTELY NO WARRANTY; not even for MERCHANTABILITY or FITNESS FOR A PARTICULAR PURPOSE.
For details see the documentation.
Scientific users of this library should cite U. Ekstrom, L. Visscher, R. Bast, A. J. Thorvaldsen and K. Ruud;
J.Chem.Theor.Comp. 2010, DOI: 10.1021/ct100117s
XCFun Version 0.99 

================================================================================

----- Orbital basis set information -----
Your calculation utilizes the basis: def2-TZVP
   F. Weigend and R. Ahlrichs, Phys. Chem. Chem. Phys. 7, 3297 (2005).

----- AuxJ basis set information -----
Your calculation utilizes the auxiliary basis: def2/J
   H-Rn: F. Weigend, Phys. Chem. Chem. Phys. 8, 1057 (2006).
   Fr-Lr: K. Eichkorn, F. Weigend, O. Treutler, R. Ahlrichs; Theor. Chem. Acc. 97, 119 (1997).

================================================================================
                                        WARNINGS
                       Please study these warnings very carefully!
================================================================================

WARNING: Old DensityContainer found on disk!
         Will remove this file - 
         If you want to keep old densities, please start your calculation with a different basename. 

WARNING: Functional chosen is sensitive to the integration grid.
         DEFGRID3 seems to be a minimum grid for robust results!

WARNING: CIS/ROCIS methods need fully converged wavefunctions
  ===> : Setting SCFConvForced true
         You can overwrite this default with %scf ConvForced false 


================================================================================
                                       INPUT FILE
================================================================================
NAME = tddft.inp
|  1> %pal nprocs 8 end
|  2> %maxcore 3000
|  3> ! M062X def2-TZVP def2/J RIJCOSX DefGrid3 TightSCF CPCM(Toluene)
|  4> %tddft
|  5>   nroots 30
|  6>   triplets false
|  7> end
|  8> * xyzfile 0 1 /home/jannes/zntpp/01_opt/zntpp_opt_b3lyp_tzvp.xyz
|  9> 
| 10>                          ****END OF INPUT****
================================================================================

                       ****************************
                       * Single Point Calculation *
                       ****************************

---------------------------------
CARTESIAN COORDINATES (ANGSTROEM)
---------------------------------
  N     -2.128555    2.521821    3.514445
  H      1.679246   -2.252277    3.911258
  C     -4.369984    3.012164    3.505335
  C     -0.398585   -1.573233    3.873891
  N      0.090194    0.658016    3.656874
  C      0.952938   -1.459784    3.844538
  H     -0.979263   -2.475782    3.964403
  C      2.863231    1.837944    3.504098
  N     -0.259990    4.728225    3.275318
  C     -1.122589    6.846120    3.087833
  C      2.554364    0.476189    3.636610
  C      2.674824    4.026514    3.291953
  N      1.958667    2.864378    3.417427
  C      4.084464    3.720155    3.302156
  C     -0.939698   -0.240836    3.759905
  C      1.258819   -0.056992    3.704356
  C     -2.844886    1.359138    3.633884
  C     -3.032921    3.549045    3.434948
  C     -4.254377    1.666475    3.632131
  C     -2.307798    0.068574    3.749698
  C     -2.724065    4.910402    3.298449
  C      4.200194    2.374421    3.428341
  C     -1.428614    5.442928    3.224110
  C      0.228839    6.958922    3.052384
  C      2.137843    5.317243    3.178366
  C      0.769957    5.627222    3.173980
  H     -5.276937    3.591548    3.463276
  H     -5.049608    0.945070    3.716870
  H      5.107132    1.794799    3.467075
  H      4.879663    4.442261    3.223116
  H      0.809563    7.860555    2.953271
  H     -1.848755    7.639233    3.027240
  Zn    -0.084939    2.693116    3.466029
  C      3.700933   -0.486388    3.712454
  C      4.108108   -1.201821    2.584245
  C      5.172729   -2.094184    2.653906
  C      5.846616   -2.285840    3.855097
  C      5.449547   -1.579336    4.985093
  C      4.385461   -0.686546    4.913199
  H      3.586791   -1.054134    1.646319
  H      5.476059   -2.638197    1.767767
  H      6.675289   -2.980820    3.910163
  H      5.966790   -1.723515    5.925774
  H      4.078223   -0.139324    5.796054
  C     -3.273085   -1.071472    3.872955
  C     -3.904249   -1.597407    2.743545
  C     -4.799157   -2.656094    2.857020
  C     -5.078087   -3.204960    4.103867
  C     -4.456253   -2.688836    5.235517
  C     -3.560665   -1.630988    5.119913
  H     -3.688530   -1.174051    1.770133
  H     -5.276922   -3.052614    1.969493
  H     -5.775165   -4.028894    4.193026
  H     -4.668895   -3.107985    6.211378
  H     -3.079623   -1.230870    6.004100
  C     -3.870369    5.873458    3.224899
  C     -4.316851    6.357914    1.993460
  C     -5.380713    7.251143    1.923794
  C     -6.014648    7.675094    3.086596
  C     -5.578392    7.199678    4.318409
  C     -4.515144    6.305553    4.385999
  H     -3.826760    6.029067    1.085176
  H     -5.714634    7.614108    0.959461
  H     -6.842757    8.370883    3.033211
  H     -6.064513    7.525507    5.229848
  H     -4.177530    5.938797    5.347664
  C      3.103506    6.456495    3.050290
  C      3.681960    6.765339    1.817145
  C      4.578273    7.821990    1.696512
  C      4.911261    8.586480    2.809338
  C      4.341889    8.287884    4.042364
  C      3.444819    7.231565    4.160802
  H      3.424173    6.173246    0.947507
  H      5.014892    8.048106    0.731401
  H      5.609397    9.409102    2.716387
  H      4.596585    8.876241    4.915382
  H      3.004811    7.001338    5.123468

----------------------------
CARTESIAN COORDINATES (A.U.)
----------------------------
  NO LB      ZA    FRAG     MASS         X           Y           Z
   0 N     7.0000    0    14.007   -4.022387    4.765551    6.641339
   1 H     1.0000    0     1.008    3.173315   -4.256187    7.391206
   2 C     6.0000    0    12.011   -8.258072    5.692164    6.624123
   3 C     6.0000    0    12.011   -0.753217   -2.972979    7.320593
   4 N     7.0000    0    14.007    0.170443    1.243470    6.910491
   5 C     6.0000    0    12.011    1.800792   -2.758593    7.265124
   6 H     1.0000    0     1.008   -1.850539   -4.678550    7.491636
   7 C     6.0000    0    12.011    5.410722    3.473212    6.621786
   8 N     7.0000    0    14.007   -0.491309    8.935051    6.189453
   9 C     6.0000    0    12.011   -2.121387   12.937293    5.835159
  10 C     6.0000    0    12.011    4.827048    0.899866    6.872197
  11 C     6.0000    0    12.011    5.054685    7.609008    6.220890
  12 N     7.0000    0    14.007    3.701344    5.412889    6.458002
  13 C     6.0000    0    12.011    7.718518    7.030075    6.240171
  14 C     6.0000    0    12.011   -1.775772   -0.455114    7.105191
  15 C     6.0000    0    12.011    2.378823   -0.107699    7.000218
  16 C     6.0000    0    12.011   -5.376055    2.568398    6.867046
  17 C     6.0000    0    12.011   -5.731390    6.706722    6.491111
  18 C     6.0000    0    12.011   -8.039608    3.149181    6.863732
  19 C     6.0000    0    12.011   -4.361106    0.129586    7.085902
  20 C     6.0000    0    12.011   -5.147736    9.279315    6.233166
  21 C     6.0000    0    12.011    7.937216    4.487005    6.478625
  22 C     6.0000    0    12.011   -2.699689   10.285644    6.092686
  23 C     6.0000    0    12.011    0.432443   13.150456    5.768170
  24 C     6.0000    0    12.011    4.039938   10.048134    6.006241
  25 C     6.0000    0    12.011    1.455009   10.633908    5.997954
  26 H     1.0000    0     1.008   -9.971966    6.787043    6.544643
  27 H     1.0000    0     1.008   -9.542376    1.785924    7.023866
  28 H     1.0000    0     1.008    9.651080    3.391678    6.551822
  29 H     1.0000    0     1.008    9.221226    8.394656    6.090807
  30 H     1.0000    0     1.008    1.529852   14.854296    5.580874
  31 H     1.0000    0     1.008   -3.493641   14.436059    5.720654
  32 Zn   30.0000    0    65.380   -0.160511    5.089252    6.549846
  33 C     6.0000    0    12.011    6.993749   -0.919139    7.015521
  34 C     6.0000    0    12.011    7.763199   -2.271113    4.883516
  35 C     6.0000    0    12.011    9.775042   -3.957434    5.015155
  36 C     6.0000    0    12.011   11.048503   -4.319612    7.285078
  37 C     6.0000    0    12.011   10.298150   -2.984512    9.420461
  38 C     6.0000    0    12.011    8.287321   -1.297384    9.284601
  39 H     1.0000    0     1.008    6.778052   -1.992024    3.111092
  40 H     1.0000    0     1.008   10.348252   -4.985469    3.340596
  41 H     1.0000    0     1.008   12.614468   -5.632934    7.389137
  42 H     1.0000    0     1.008   11.275599   -3.256971   11.198090
  43 H     1.0000    0     1.008    7.706724   -0.263284   10.952955
  44 C     6.0000    0    12.011   -6.185235   -2.024788    7.318825
  45 C     6.0000    0    12.011   -7.377961   -3.018662    5.184549
  46 C     6.0000    0    12.011   -9.069092   -5.019291    5.398985
  47 C     6.0000    0    12.011   -9.596194   -6.056498    7.755184
  48 C     6.0000    0    12.011   -8.421097   -5.081163    9.893693
  49 C     6.0000    0    12.011   -6.728682   -3.082121    9.675233
  50 H     1.0000    0     1.008   -6.970311   -2.218636    3.345067
  51 H     1.0000    0     1.008   -9.971937   -5.768605    3.721803
  52 H     1.0000    0     1.008  -10.913481   -7.613507    7.923671
  53 H     1.0000    0     1.008   -8.822933   -5.873241   11.737804
  54 H     1.0000    0     1.008   -5.819644   -2.326007   11.346104
  55 C     6.0000    0    12.011   -7.313938   11.099227    6.094176
  56 C     6.0000    0    12.011   -8.157666   12.014716    3.767093
  57 C     6.0000    0    12.011  -10.168074   13.702674    3.635443
  58 C     6.0000    0    12.011  -11.366038   14.503826    5.832822
  59 C     6.0000    0    12.011  -10.541634   13.605420    8.160611
  60 C     6.0000    0    12.011   -8.532386   11.915768    8.288337
  61 H     1.0000    0     1.008   -7.231528   11.393285    2.050685
  62 H     1.0000    0     1.008  -10.799093   14.388579    1.813119
  63 H     1.0000    0     1.008  -12.930936   15.818676    5.731938
  64 H     1.0000    0     1.008  -11.460269   14.221147    9.882980
  65 H     1.0000    0     1.008   -7.894387   11.222699   10.105620
  66 C     6.0000    0    12.011    5.864777   12.201007    5.764212
  67 C     6.0000    0    12.011    6.957897   12.784638    3.433906
  68 C     6.0000    0    12.011    8.651682   14.781419    3.205944
  69 C     6.0000    0    12.011    9.280939   16.226096    5.308880
  70 C     6.0000    0    12.011    8.204982   15.661831    7.638960
  71 C     6.0000    0    12.011    6.509765   13.665678    7.862776
  72 H     1.0000    0     1.008    6.470749   11.665745    1.790528
  73 H     1.0000    0     1.008    9.476772   15.208716    1.382147
  74 H     1.0000    0     1.008   10.600223   17.780626    5.133228
  75 H     1.0000    0     1.008    8.686286   16.773664    9.288725
  76 H     1.0000    0     1.008    5.678270   13.230612    9.681952

--------------------------------
INTERNAL COORDINATES (ANGSTROEM)
--------------------------------
 N      0   0   0     0.000000000000     0.00000000     0.00000000
 H      1   0   0     6.119544609553     0.00000000     0.00000000
 C      1   2   0     2.294454011207   140.79010051     0.00000000
 C      2   1   3     2.186293848341    33.40707509     0.34106114
 N      4   2   1     2.294443978057    95.80796136     0.08486163
 C      2   1   3     1.077042165850     3.92469267     1.90384846
 H      4   2   1     1.077021274757   104.51838878   179.96426994
 C      5   4   2     3.017499182404   125.50798452     0.13061668
 N      1   2   6     2.901196304498   101.41364134   181.77715198
 C      9   1   2     2.294495465089   117.81272053   180.03507050
 C      8   5   4     1.402617980696    54.07062945     0.00000000
 C      8   5   4     2.206884295453   108.31219866   179.74476543
 N     12   8   5     1.370833715702    36.39735210     0.13465003
 C     12   8   5     1.442582406246    72.85996634   180.04197634
 C      5   4   2     1.370849417385    36.41075581   180.34190992
 C      5   4   2     1.370829614730    70.79837857     0.21995082
 C      1   2   6     1.370849005387    69.99043058     1.66869440
 C      1   2   6     1.370906814200   177.19264341     5.66720204
 C      3   1   2     1.356583829775    72.80577004   359.93688133
 C     17   1   2     1.402651632840   125.97826882     0.08625359
 C     18   1  17     1.402611239747   125.98998775   180.28256348
 C     14  12   8     1.356582980699   107.13889860     0.18750469
 C      9   1   2     1.370804714242    81.40314079   179.95801682
 C     10   9   1     1.356590912637    72.80488243   180.14705619
 C     12   8   5     1.402580997285   162.38014338     0.78404173
 C      9   1   2     1.370859177061   171.38959537   359.93854590
 H      3   1   2     1.077042372642   159.67446324   180.23012340
 H     19   3   1     1.077031692090   127.50718792   179.84585378
 H     22  14  12     1.077032466449   127.52044500   179.72372799
 H     14  12   8     1.077044478741   125.34893106   180.19721276
 H     24  10   9     1.077036063129   127.52799022   179.86496916
 H     10   9   1     1.077040772020   159.68056758     0.49314505
 Zn    13  12   8     2.051345186941   126.39861605   180.01176353
 C     11   8   5     1.498975002703   117.37364575   180.12231805
 C     34  11   8     1.396599935545   120.73632797   260.81551720
 C     35  34  11     1.390892457345   120.75428931   179.94132756
 C     36  35  34     1.390581203293   120.17332090     0.05878968
 C     37  36  35     1.390576738799   119.57323724   359.97035164
 C     38  37  36     1.390870129530   120.17050613   359.97317460
 H     35  34  11     1.083185036027   119.29663277     0.09915726
 H     36  35  34     1.083143891364   119.71019389   180.16833060
 H     37  36  35     1.082925347053   120.21223093   179.97018105
 H     38  37  36     1.083147890456   120.11518343   179.85977205
 H     39  38  37     1.083181015268   119.94417075   179.90157384
 C     20  17   1     1.498891322754   117.38766669   179.87846531
 C     45  20  17     1.396618301307   120.72790326    80.31698157
 C     46  45  20     1.390883017252   120.75931779   179.94064434
 C     47  46  45     1.390569495532   120.17530433     0.06871198
 C     48  47  46     1.390573492617   119.57043939   359.97534587
 C     49  48  47     1.390856522021   120.17190858   359.96242902
 H     46  45  20     1.083187714850   119.31007218     0.11809285
 H     47  46  45     1.083139294676   119.70943531   180.17217182
 H     48  47  46     1.082928842322   120.21506749   179.96593587
 H     49  48  47     1.083147786706   120.11748509   179.84687948
 H     50  49  48     1.083181818228   119.93804654   179.90374115
 C     21  18   1     1.498966613937   117.38477927   179.77788255
 C     56  21  18     1.396597916529   120.70436538   261.16713757
 C     57  56  21     1.390867761343   120.76155285   179.97461334
 C     58  57  56     1.390582407448   120.17252421     0.05374361
 C     59  58  57     1.390576502422   119.56944005   359.96659070
 C     60  59  58     1.390872249240   120.17565657   359.97513983
 H     57  56  21     1.083194334658   119.30159898     0.11782789
 H     58  57  56     1.083136238093   119.71008709   180.15439003
 H     59  58  57     1.082929025331   120.21640663   179.97293344
 H     60  59  58     1.083142601943   120.11639336   179.88210610
 H     61  60  59     1.083186648078   119.93877736   179.91030740
 C     25  12   8     1.498934038660   117.36800041   179.52270751
 C     67  25  12     1.396653150260   120.68608494    81.09904729
 C     68  67  25     1.390841400961   120.76286134   180.00642566
 C     69  68  67     1.390578103786   120.17054410     0.05654456
 C     70  69  68     1.390573869412   119.57064401   359.96777865
 C     71  70  69     1.390888841300   120.17630173   359.97413960
 H     68  67  25     1.083189189182   119.30217305     0.15139686
 H     69  68  67     1.083145817904   119.71294294   180.15434617
 H     70  69  68     1.082931006480   120.21854136   179.97246096
 H     71  70  69     1.083140727035   120.11703831   179.87054230
 H     72  71  70     1.083207787092   119.93930250   179.90074954

---------------------------
INTERNAL COORDINATES (A.U.)
---------------------------
 N      0   0   0     0.000000000000     0.00000000     0.00000000
 H      1   0   0    11.564263376369     0.00000000     0.00000000
 C      1   2   0     4.335889708059   140.79010051     0.00000000
 C      2   1   3     4.131496621641    33.40707509     0.34106114
 N      4   2   1     4.335870748152    95.80796136     0.08486163
 C      2   1   3     2.035314728142     3.92469267     1.90384846
 H      4   2   1     2.035275249697   104.51838878   179.96426994
 C      5   4   2     5.702247064074   125.50798452     0.13061668
 N      1   2   6     5.482466476246   101.41364134   181.77715198
 C      9   1   2     4.335968044542   117.81272053   180.03507050
 C      8   5   4     2.650563854029    54.07062945     0.00000000
 C      8   5   4     4.170406927659   108.31219866   179.74476543
 N     12   8   5     2.590500297822    36.39735210     0.13465003
 C     12   8   5     2.726085673418    72.85996634   180.04197634
 C      5   4   2     2.590529969703    36.41075581   180.34190992
 C      5   4   2     2.590492548109    70.79837857     0.21995082
 C      1   2   6     2.590529191139    69.99043058     1.66869440
 C      1   2   6     2.590638433964   177.19264341     5.66720204
 C      3   1   2     2.563571915982    72.80577004   359.93688133
 C     17   1   2     2.650627447364   125.97826882     0.08625359
 C     18   1  17     2.650551115482   125.98998775   180.28256348
 C     14  12   8     2.563570311459   107.13889860     0.18750469
 C      9   1   2     2.590445493005    81.40314079   179.95801682
 C     10   9   1     2.563585300650    72.80488243   180.14705619
 C     12   8   5     2.650493965511   162.38014338     0.78404173
 C      9   1   2     2.590548412818   171.38959537   359.93854590
 H      3   1   2     2.035315118921   159.67446324   180.23012340
 H     19   3   1     2.035294935605   127.50718792   179.84585378
 H     22  14  12     2.035296398930   127.52044500   179.72372799
 H     14  12   8     2.035319098873   125.34893106   180.19721276
 H     24  10   9     2.035303195671   127.52799022   179.86496916
 H     10   9   1     2.035312094185   159.68056758     0.49314505
 Zn    13  12   8     3.876480609456   126.39861605   180.01176353
 C     11   8   5     2.832652236702   117.37364575   180.12231805
 C     34  11   8     2.639191396832   120.73632797   260.81551720
 C     35  34  11     2.628405826120   120.75428931   179.94132756
 C     36  35  34     2.627817641202   120.17332090     0.05878968
 C     37  36  35     2.627809204532   119.57323724   359.97035164
 C     38  37  36     2.628363632663   120.17050613   359.97317460
 H     35  34  11     2.046923070452   119.29663277     0.09915726
 H     36  35  34     2.046845318308   119.71019389   180.16833060
 H     37  36  35     2.046432329411   120.21223093   179.97018105
 H     38  37  36     2.046852875496   120.11518343   179.85977205
 H     39  38  37     2.046915472320   119.94417075   179.90157384
 C     20  17   1     2.832494104516   117.38766669   179.87846531
 C     45  20  17     2.639226103092   120.72790326    80.31698157
 C     46  45  20     2.628387986927   120.75931779   179.94064434
 C     47  46  45     2.627795516741   120.17530433     0.06871198
 C     48  47  46     2.627803070137   119.57043939   359.97534587
 C     49  48  47     2.628337918197   120.17190858   359.96242902
 H     46  45  20     2.046928132695   119.31007218     0.11809285
 H     47  46  45     2.046836631826   119.70943531   180.17217182
 H     48  47  46     2.046438934513   120.21506749   179.96593587
 H     49  48  47     2.046852679437   120.11748509   179.84687948
 H     50  49  48     2.046916989694   119.93804654   179.90374115
 C     21  18   1     2.832636384232   117.38477927   179.77788255
 C     56  21  18     2.639187581444   120.70436538   261.16713757
 C     57  56  21     2.628359157438   120.76155285   179.97461334
 C     58  57  56     2.627819916726   120.17252421     0.05374361
 C     59  58  57     2.627808757843   119.56944005   359.96659070
 C     60  59  58     2.628367638335   120.17565657   359.97513983
 H     57  56  21     2.046940642318   119.30159898     0.11782789
 H     58  57  56     2.046830855722   119.71008709   180.15439003
 H     59  58  57     2.046439280351   120.21640663   179.97293344
 H     60  59  58     2.046842881654   120.11639336   179.88210610
 H     61  60  59     2.046926116788   119.93877736   179.91030740
 C     25  12   8     2.832574825879   117.36800041   179.52270751
 C     67  25  12     2.639291958070   120.68608494    81.09904729
 C     68  67  25     2.628309343536   120.76286134   180.00642566
 C     69  68  67     2.627811783983   120.17054410     0.05654456
 C     70  69  68     2.627803782176   119.57064401   359.96777865
 C     71  70  69     2.628398992784   120.17630173   359.97413960
 H     68  67  25     2.046930918777   119.30217305     0.15139686
 H     69  68  67     2.046848958941   119.71294294   180.15434617
 H     70  69  68     2.046443024179   120.21854136   179.97246096
 H     71  70  69     2.046839338592   120.11703831   179.87054230
 H     72  71  70     2.046966063735   119.93930250   179.90074954

---------------------
BASIS SET INFORMATION
---------------------
There are 4 groups of distinct atoms

 Group   1 Type N   : 11s6p2d1f contracted to 5s3p2d1f pattern {62111/411/11/1}
 Group   2 Type H   : 5s1p contracted to 3s1p pattern {311/1}
 Group   3 Type C   : 11s6p2d1f contracted to 5s3p2d1f pattern {62111/411/11/1}
 Group   4 Type Zn  : 17s12p7d1f contracted to 6s5p4d1f pattern {842111/63111/4111/1}

Atom   0N    basis set group =>   1
Atom   1H    basis set group =>   2
Atom   2C    basis set group =>   3
Atom   3C    basis set group =>   3
Atom   4N    basis set group =>   1
Atom   5C    basis set group =>   3
Atom   6H    basis set group =>   2
Atom   7C    basis set group =>   3
Atom   8N    basis set group =>   1
Atom   9C    basis set group =>   3
Atom  10C    basis set group =>   3
Atom  11C    basis set group =>   3
Atom  12N    basis set group =>   1
Atom  13C    basis set group =>   3
Atom  14C    basis set group =>   3
Atom  15C    basis set group =>   3
Atom  16C    basis set group =>   3
Atom  17C    basis set group =>   3
Atom  18C    basis set group =>   3
Atom  19C    basis set group =>   3
Atom  20C    basis set group =>   3
Atom  21C    basis set group =>   3
Atom  22C    basis set group =>   3
Atom  23C    basis set group =>   3
Atom  24C    basis set group =>   3
Atom  25C    basis set group =>   3
Atom  26H    basis set group =>   2
Atom  27H    basis set group =>   2
Atom  28H    basis set group =>   2
Atom  29H    basis set group =>   2
Atom  30H    basis set group =>   2
Atom  31H    basis set group =>   2
Atom  32Zn   basis set group =>   4
Atom  33C    basis set group =>   3
Atom  34C    basis set group =>   3
Atom  35C    basis set group =>   3
Atom  36C    basis set group =>   3
Atom  37C    basis set group =>   3
Atom  38C    basis set group =>   3
Atom  39H    basis set group =>   2
Atom  40H    basis set group =>   2
Atom  41H    basis set group =>   2
Atom  42H    basis set group =>   2
Atom  43H    basis set group =>   2
Atom  44C    basis set group =>   3
Atom  45C    basis set group =>   3
Atom  46C    basis set group =>   3
Atom  47C    basis set group =>   3
Atom  48C    basis set group =>   3
Atom  49C    basis set group =>   3
Atom  50H    basis set group =>   2
Atom  51H    basis set group =>   2
Atom  52H    basis set group =>   2
Atom  53H    basis set group =>   2
Atom  54H    basis set group =>   2
Atom  55C    basis set group =>   3
Atom  56C    basis set group =>   3
Atom  57C    basis set group =>   3
Atom  58C    basis set group =>   3
Atom  59C    basis set group =>   3
Atom  60C    basis set group =>   3
Atom  61H    basis set group =>   2
Atom  62H    basis set group =>   2
Atom  63H    basis set group =>   2
Atom  64H    basis set group =>   2
Atom  65H    basis set group =>   2
Atom  66C    basis set group =>   3
Atom  67C    basis set group =>   3
Atom  68C    basis set group =>   3
Atom  69C    basis set group =>   3
Atom  70C    basis set group =>   3
Atom  71C    basis set group =>   3
Atom  72H    basis set group =>   2
Atom  73H    basis set group =>   2
Atom  74H    basis set group =>   2
Atom  75H    basis set group =>   2
Atom  76H    basis set group =>   2
---------------------------------
AUXILIARY/J BASIS SET INFORMATION
---------------------------------
There are 4 groups of distinct atoms

 Group   1 Type N   : 12s5p4d2f1g contracted to 6s4p3d1f1g pattern {711111/2111/211/2/1}
 Group   2 Type H   : 5s2p1d contracted to 3s1p1d pattern {311/2/1}
 Group   3 Type C   : 12s5p4d2f1g contracted to 6s4p3d1f1g pattern {711111/2111/211/2/1}
 Group   4 Type Zn  : 19s5p5d3f3g contracted to 8s5p5d2f3g pattern {121111111/11111/11111/21/111}

Atom   0N    basis set group =>   1
Atom   1H    basis set group =>   2
Atom   2C    basis set group =>   3
Atom   3C    basis set group =>   3
Atom   4N    basis set group =>   1
Atom   5C    basis set group =>   3
Atom   6H    basis set group =>   2
Atom   7C    basis set group =>   3
Atom   8N    basis set group =>   1
Atom   9C    basis set group =>   3
Atom  10C    basis set group =>   3
Atom  11C    basis set group =>   3
Atom  12N    basis set group =>   1
Atom  13C    basis set group =>   3
Atom  14C    basis set group =>   3
Atom  15C    basis set group =>   3
Atom  16C    basis set group =>   3
Atom  17C    basis set group =>   3
Atom  18C    basis set group =>   3
Atom  19C    basis set group =>   3
Atom  20C    basis set group =>   3
Atom  21C    basis set group =>   3
Atom  22C    basis set group =>   3
Atom  23C    basis set group =>   3
Atom  24C    basis set group =>   3
Atom  25C    basis set group =>   3
Atom  26H    basis set group =>   2
Atom  27H    basis set group =>   2
Atom  28H    basis set group =>   2
Atom  29H    basis set group =>   2
Atom  30H    basis set group =>   2
Atom  31H    basis set group =>   2
Atom  32Zn   basis set group =>   4
Atom  33C    basis set group =>   3
Atom  34C    basis set group =>   3
Atom  35C    basis set group =>   3
Atom  36C    basis set group =>   3
Atom  37C    basis set group =>   3
Atom  38C    basis set group =>   3
Atom  39H    basis set group =>   2
Atom  40H    basis set group =>   2
Atom  41H    basis set group =>   2
Atom  42H    basis set group =>   2
Atom  43H    basis set group =>   2
Atom  44C    basis set group =>   3
Atom  45C    basis set group =>   3
Atom  46C    basis set group =>   3
Atom  47C    basis set group =>   3
Atom  48C    basis set group =>   3
Atom  49C    basis set group =>   3
Atom  50H    basis set group =>   2
Atom  51H    basis set group =>   2
Atom  52H    basis set group =>   2
Atom  53H    basis set group =>   2
Atom  54H    basis set group =>   2
Atom  55C    basis set group =>   3
Atom  56C    basis set group =>   3
Atom  57C    basis set group =>   3
Atom  58C    basis set group =>   3
Atom  59C    basis set group =>   3
Atom  60C    basis set group =>   3
Atom  61H    basis set group =>   2
Atom  62H    basis set group =>   2
Atom  63H    basis set group =>   2
Atom  64H    basis set group =>   2
Atom  65H    basis set group =>   2
Atom  66C    basis set group =>   3
Atom  67C    basis set group =>   3
Atom  68C    basis set group =>   3
Atom  69C    basis set group =>   3
Atom  70C    basis set group =>   3
Atom  71C    basis set group =>   3
Atom  72H    basis set group =>   2
Atom  73H    basis set group =>   2
Atom  74H    basis set group =>   2
Atom  75H    basis set group =>   2
Atom  76H    basis set group =>   2

Checking for AutoStart:
The File: tddft.gbw exists
Trying to determine its content:
     ... Fine, the file contains calculation information
     ... Fine, the calculation information was read
     ... Fine, the file contains a basis set
     ... Fine, the basis set was read
     ... Fine, the file contains a geometry
     ... Fine, the geometry was read
     ... Fine, the file contains a set of orbitals
     ... Fine, the orbitals can be read
     => possible old guess file was deleted
     => GBW file was renamed to GES file
     => GES file is set as startup file
     => Guess is set to MORead
     ... now leaving AutoStart



           ************************************************************
           *        Program running with 8 parallel MPI-processes     *
           *              working on a common directory               *
           ************************************************************
------------------------------------------------------------------------------
                             ORCA STARTUP CALCULATIONS
                           -- RI-GTO INTEGRALS CHOSEN --
------------------------------------------------------------------------------
------------------------------------------------------------------------------
                   ___                                                        
                  /   \      - P O W E R E D   B Y -                         
                 /     \                                                     
                 |  |  |   _    _      __       _____    __    __             
                 |  |  |  | |  | |    /  \     |  _  \  |  |  /  |          
                  \  \/   | |  | |   /    \    | | | |  |  | /  /          
                 / \  \   | |__| |  /  /\  \   | |_| |  |  |/  /          
                |  |  |   |  __  | /  /__\  \  |    /   |      \           
                |  |  |   | |  | | |   __   |  |    \   |  |\   \          
                \     /   | |  | | |  |  |  |  | |\  \  |  | \   \       
                 \___/    |_|  |_| |__|  |__|  |_| \__\ |__|  \__/        
                                                                              
                      - O R C A' S   B I G   F R I E N D -                    
                                      &                                       
                       - I N T E G R A L  F E E D E R -                       
                                                                              
 v1 FN, 2020, v2 2021, v3 2022-2024                                           
------------------------------------------------------------------------------


----------------------
SHARK INTEGRAL PACKAGE
----------------------

Number of atoms                             ...     77
Number of basis functions                   ...   1704
Number of shells                            ...    656
Maximum angular momentum                    ...      3
Integral batch strategy                     ... SHARK/LIBINT Hybrid
RI-J (if used) integral strategy            ... SPLIT-RIJ (Revised 2003 algorithm where possible)
Printlevel                                  ...      1
Contraction scheme used                     ... SEGMENTED contraction
Prescreening option                         ... SCHWARTZ
   Thresh                                   ... 2.500e-11
   Tcut                                     ... 2.500e-12
   Tpresel                                  ... 2.500e-12 
Coulomb Range Separation                    ... NOT USED
Exchange Range Separation                   ... NOT USED
Multipole approximations                    ... NOT USED
Finite Nucleus Model                        ... NOT USED
CABS basis                                  ... NOT available
Auxiliary Coulomb fitting basis             ... AVAILABLE
   # of basis functions in Aux-J            ...   2749
   # of shells in Aux-J                     ...    883
   Maximum angular momentum in Aux-J        ...      4
Auxiliary J/K fitting basis                 ... NOT available
Auxiliary Correlation fitting basis         ... NOT available
Auxiliary 'external' fitting basis          ... NOT available

Checking pre-screening integrals            ... done (  0.0 sec) Dimension = 656
   => SHARK Basis and OBASIS are compatible. Storing Pre-screening
Shell pair information
Shell pair cut-off parameter TPreSel        ...   2.5e-12
Total number of shell pairs                 ...    215496
Shell pairs after pre-screening             ...    104313
Total number of primitive shell pairs       ...    680394
Primitive shell pairs kept                  ...    202009
          la=0 lb=0:  24656 shell pairs
          la=1 lb=0:  30604 shell pairs
          la=1 lb=1:   9373 shell pairs
          la=2 lb=0:  14863 shell pairs
          la=2 lb=1:   9372 shell pairs
          la=2 lb=2:   2256 shell pairs
          la=3 lb=0:   6615 shell pairs
          la=3 lb=1:   4225 shell pairs
          la=3 lb=2:   1902 shell pairs
          la=3 lb=3:    447 shell pairs

Checking whether 4 symmetric matrices of dimension 1704 fit in memory
:Max Core in MB      =   3000.00
 MB in use           =    127.60
 MB left             =   2872.40
 MB needed           =     44.33
 Data fit in memory  = YES
Calculating RI/J V-Matrix + Cholesky decomp.... done (  1.0 sec)
Calculating Nuclear repulsion               ... done (  0.0 sec) ENN=   6465.853143938957 Eh

Diagonalization of the overlap matrix:
Smallest eigenvalue                        ... 2.950e-06
Time for diagonalization                   ...    0.909 sec
Threshold for overlap eigenvalues          ... 1.000e-07
Number of eigenvalues below threshold      ... 0
Time for construction of square roots      ...    0.841 sec
Total time needed                          ...    1.821 sec

-------------------
DFT GRID GENERATION
-------------------

General Integration Accuracy     IntAcc      ... 4.959
Radial Grid Type                 RadialGrid  ... OptM3 with GC (2021)
Angular Grid (max. ang.)         AngularGrid ... 6 (Lebedev-590)
Angular grid pruning method      GridPruning ... 4 (adaptive)
Weight generation scheme         WeightScheme... mBecke (2022)
Basis function cutoff            BFCut       ... 1.0000e-11
Integration weight cutoff        WCut        ... 1.0000e-14
Partially contracted basis set               ... off
Rotationally invariant grid construction     ... off
Angular grids for H and He will be reduced by one unit
Core-polarized basis detected: some atoms will have their core
                               angular grid increased.

Total number of grid points                  ...   939385
Total number of batches                      ...    14718
Average number of points per batch           ...       63
Average number of grid points per atom       ...    12200

--------------------
COSX GRID GENERATION
--------------------

GRIDX 1
-------
General Integration Accuracy     IntAcc      ... 4.020
Radial Grid Type                 RadialGrid  ... OptM3 with GC (2021)
Angular Grid (max. ang.)         AngularGrid ... 2 (Lebedev-110)
Angular grid pruning method      GridPruning ... 4 (adaptive)
Weight generation scheme         WeightScheme... mBecke (2022)
Basis function cutoff            BFCut       ... 1.0000e-11
Integration weight cutoff        WCut        ... 1.0000e-14
Partially contracted basis set               ... on
Rotationally invariant grid construction     ... off
Angular grids for H and He will be reduced by one unit
Core-polarized basis detected: some atoms will have their core
                               angular grid increased.

Total number of grid points                  ...   108499
Total number of batches                      ...      892
Average number of points per batch           ...      121
Average number of grid points per atom       ...     1409
UseSFitting                                  ... on

GRIDX 2
-------
General Integration Accuracy     IntAcc      ... 4.338
Radial Grid Type                 RadialGrid  ... OptM3 with GC (2021)
Angular Grid (max. ang.)         AngularGrid ... 3 (Lebedev-194)
Angular grid pruning method      GridPruning ... 4 (adaptive)
Weight generation scheme         WeightScheme... mBecke (2022)
Basis function cutoff            BFCut       ... 1.0000e-11
Integration weight cutoff        WCut        ... 1.0000e-14
Partially contracted basis set               ... on
Rotationally invariant grid construction     ... off
Angular grids for H and He will be reduced by one unit
Core-polarized basis detected: some atoms will have their core
                               angular grid increased.

Total number of grid points                  ...   230678
Total number of batches                      ...     1839
Average number of points per batch           ...      125
Average number of grid points per atom       ...     2996
UseSFitting                                  ... on

GRIDX 3
-------
General Integration Accuracy     IntAcc      ... 4.871
Radial Grid Type                 RadialGrid  ... OptM3 with GC (2021)
Angular Grid (max. ang.)         AngularGrid ... 4 (Lebedev-302)
Angular grid pruning method      GridPruning ... 4 (adaptive)
Weight generation scheme         WeightScheme... mBecke (2022)
Basis function cutoff            BFCut       ... 1.0000e-11
Integration weight cutoff        WCut        ... 1.0000e-14
Partially contracted basis set               ... on
Rotationally invariant grid construction     ... off
Angular grids for H and He will be reduced by one unit
Core-polarized basis detected: some atoms will have their core
                               angular grid increased.

Total number of grid points                  ...   424616
Total number of batches                      ...     3347
Average number of points per batch           ...      126
Average number of grid points per atom       ...     5514
UseSFitting                                  ... on
Grids setup in  65.9 sec
Initializing property integral containers    ... done (  0.0 sec)

SHARK setup successfully completed in  76.3 seconds

Maximum memory used throughout the entire STARTUP-calculation: 343.3 MB


           ************************************************************
           *        Program running with 8 parallel MPI-processes     *
           *              working on a common directory               *
           ************************************************************
-------------------------------------------------------------------------------
                                 ORCA GUESS
                   Start orbitals & Density for SCF / CASSCF
-------------------------------------------------------------------------------

------------
SCF SETTINGS
------------
Hamiltonian:
 Density Functional     Method          .... DFT(GTOs)
 Exchange Functional    Exchange        .... M062X
 Correlation Functional Correlation     .... M062X
 Gradients option       PostSCFGGA      .... off
 Hybrid DFT is turned on
   Fraction HF Exchange ScalHFX         ....  0.540000
   Scaling of DF-GGA-X  ScalDFX         ....  0.460000
   Scaling of DF-GGA-C  ScalDFC         ....  1.000000
   Scaling of DF-LDA-C  ScalLDAC        ....  1.000000
   Perturbative correction              ....  0.000000
 RI-approximation to the Coulomb term is turned on
   Number of AuxJ basis functions       .... 2749
   RIJ-COSX (HFX calculated with COS-X)).... on


General Settings:
 Integral files         IntName         .... tddft
 Hartree-Fock type      HFTyp           .... RHF
 Total Charge           Charge          ....    0
 Multiplicity           Mult            ....    1
 Number of Electrons    NEL             ....  350
 Basis Dimension        Dim             .... 1704
 Nuclear Repulsion      ENuc            ....   6465.8531439390 Eh

Convergence Acceleration:
 AO-DIIS                CNVDIIS         .... on
   Start iteration      DIISMaxIt       ....    12
   Startup error        DIISStart       ....  0.200000
   # of expansion vecs  DIISMaxEq       ....     5
   Bias factor          DIISBfac        ....   1.050
   Max. coefficient     DIISMaxC        ....  10.000
 MO-DIIS                CNVKDIIS        .... off
 Trust-Rad. Augm. Hess. CNVTRAH         .... auto
   Auto Start mean grad. ratio tolernc. ....  1.125000
   Auto Start start iteration           ....     1
   Auto Start num. interpolation iter.  ....    10
   Max. Number of Micro iterations      ....    24
   Max. Number of Macro iterations      .... Maxiter - #DIIS iter
   Number of Davidson start vectors     ....     2
   Converg. threshold    (grad. norm)   ....   1.000e-05
   Grad. Scal. Fac. for Micro threshold ....   0.100
   Minimum threshold for Micro iter.    ....   1.000e-02
   NR start threshold (gradient norm)   ....   1.000e-04
   Initial trust radius                 ....   0.400
   Minimum AH scaling param. (alpha)    ....   1.000
   Maximum AH scaling param. (alpha)    .... 1000.000
   Quad. conv. algorithm                .... NR
   White noise on init. David. guess    .... on
   Maximum white noise                  ....   0.010
   Pseudo random numbers                .... off
   Inactive MOs                         .... canonical
   Orbital update algorithm             .... Taylor
   Preconditioner                       .... Diag
   Full preconditioner red. dimension   ....   250
 SOSCF                 CNVSOSCF           .... on
   Start iteration     SOSCFMaxIt         ....   150
   Startup grad/error  SOSCFStart         ....  0.003300
   Hessian update      SOSCFHessUp        .... L-BFGS
   Autom. constraints  SOSCFAutoConstrain .... off
 Level Shifting         CNVShift        .... on
   Level shift para.    LevelShift      ....    0.2500
   Turn off err/grad.   ShiftErr        ....    0.0010
 Zerner damping         CNVZerner       .... off
 Static damping         CNVDamp         .... on
   Fraction old density DampFac         ....    0.7000
   Max. Damping (<1)    DampMax         ....    0.9800
   Min. Damping (>=0)   DampMin         ....    0.0000
   Turn off err/grad.   DampErr         ....    0.1000

SCF Procedure:
 Maximum # iterations   MaxIter         ....   125
 SCF integral mode      SCFMode         .... Direct
   Integral package                     .... SHARK and LIBINT hybrid scheme
 Reset frequency        DirectResetFreq ....    20
 Integral Threshold     Thresh          ....  2.500e-11 Eh
 Primitive CutOff       TCut            ....  2.500e-12 Eh

Convergence Tolerance:
 Convergence Check Mode ConvCheckMode   .... Total+1el-Energy
 Convergence forced     ConvForced      .... 1
 Energy Change          TolE            ....  1.000e-08 Eh
 1-El. energy change                    ....  1.000e-05 Eh
 Orbital Gradient       TolG            ....  1.000e-05
 Orbital Rotation angle TolX            ....  1.000e-05
 DIIS Error             TolErr          ....  5.000e-07

---------------------
INITIAL GUESS: MOREAD
---------------------
Guess MOs are being read from file: tddft.ges
Input Geometry matches current geometry (good)
Input basis set matches current basis set (good)
Occupation numbers will be reassigned to an Aufbau configuration
MOs were renormalized
MOs were reorthogonalized (Cholesky)
                      ------------------
                      INITIAL GUESS DONE (  29.0 sec)
                      ------------------
             **** ENERGY FILE WAS UPDATED (tddft.en.tmp) ****
Finished Guess after  39.4 sec
Maximum memory used throughout the entire GUESS-calculation: 269.0 MB


           ************************************************************
           *        Program running with 8 parallel MPI-processes     *
           *              working on a common directory               *
           ************************************************************

-------------------------------------------------------------------------------------------
                                      ORCA LEAN-SCF
                              memory conserving SCF solver
-------------------------------------------------------------------------------------------

--------------------
CPCM SOLVATION MODEL
--------------------
CPCM parameters:
  Epsilon                                         ...       2.3870
  Refrac                                          ...       1.4961
  Rsolv                                           ...       1.3000
  Surface type                                    ... GAUSSIAN VDW
  Discretization scheme                           ... Constant charge density
    Threshold for H atoms                         ...       5.0000 (charges/Ang^2)
    Threshold for non-H atoms                     ...       5.0000 (charges/Ang^2)
  Epsilon function type                           ...         CPCM
Solvent:                                          ... TOLUENE
Radii:
  Scheme                                          ... Element-dependent radii
  Radius for N  used is    3.5149 Bohr (=   1.8600 Ang.)
  Radius for H  used is    2.4944 Bohr (=   1.3200 Ang.)
  Radius for C  used is    3.8550 Bohr (=   2.0400 Ang.)
  Radius for Zn used is    3.1521 Bohr (=   1.6680 Ang.)
Calculating surface                               ...        done! (  0.1s)
Cavity surface points                             ...         6832
Cavity Volume                                     ...    4920.2253
Cavity Surface-area                               ...    2294.3185
Calculating surface distance matrix               ...        done! (  2.3s)
Performing Cholesky decomposition & store         ...        done! ( 13.8s)
Overall time for CPCM initialization              ...                16.3s

----------------------------------------D-I-I-S--------------------------------------------
Iteration    Energy (Eh)           Delta-E    RMSDP     MaxDP     DIISErr   Damp  Time(sec)
-------------------------------------------------------------------------------------------
               ***  Starting incremental Fock matrix formation  ***
                              *** Initializing SOSCF ***
---------------------------------------S-O-S-C-F--------------------------------------
Iteration    Energy (Eh)           Delta-E    RMSDP     MaxDP     MaxGrad    Time(sec)
--------------------------------------------------------------------------------------
    1    -3691.9607598337752279     0.00e+00  7.28e-06  3.56e-04  3.09e-07   434.6
               *** Restarting incremental Fock matrix formation ***
    2    -3691.9607598340080585    -2.33e-10  1.53e-06  7.09e-05  9.70e-07   370.6
                  *** Gradient check signals convergence ***

               *****************************************************
               *                     SUCCESS                       *
               *           SCF CONVERGED AFTER   2 CYCLES          *
               *****************************************************

Recomputing exchange energy using gridx3       ... done (  473.848 sec)
Old exchange energy                            :   -180.638579266 Eh
New exchange energy                            :   -180.638560659 Eh
Exchange energy change after final integration :      0.000018607 Eh
Total energy after final integration           :  -3691.960741168 Eh
             **** ENERGY FILE WAS UPDATED (tddft.en.tmp) ****

----------------
TOTAL SCF ENERGY
----------------

Total Energy       :      -3691.96074116818727 Eh         -100463.35923 eV

Components:
Nuclear Repulsion  :       6465.85314393895715 Eh          175944.80891 eV
Electronic Energy  :     -10157.79853045344862 Eh         -276407.75031 eV
One Electron Energy:     -17954.57396355619858 Eh         -488568.79591 eV
Two Electron Energy:       7796.77543310274996 Eh          212161.04559 eV
CPCM Dielectric    :         -0.01537326067072 Eh              -0.41833 eV

Virial components:
Potential Energy   :      -7371.76371039333753 Eh         -200595.88866 eV
Kinetic Energy     :       3679.80296922514981 Eh          100132.52943 eV
Virial Ratio       :          2.00330391927087

DFT components:
N(Alpha)           :      174.999974718353 electrons
N(Beta)            :      174.999974718353 electrons
N(Total)           :      349.999949436706 electrons
E(XC)              :     -167.225237467186 Eh       

CPCM Solvation Model Properties:
Surface-charge          :         -0.04991496369510
Corrected charge        :          0.00000000000000
Outlying charge corr.   :          0.00005680278534 Eh               0.00155 eV
Free-energy (cav+disp)  :  This term is not implemented in the current solvation scheme

---------------
SCF CONVERGENCE
---------------

  Last Energy change         ...    2.3283e-10  Tolerance :   1.0000e-08
  Last MAX-Density change    ...    7.0889e-05  Tolerance :   1.0000e-07
  Last RMS-Density change    ...    1.5327e-06  Tolerance :   5.0000e-09
  Last DIIS Error            ...    2.1929e-06  Tolerance :   5.0000e-07
  Last Orbital Gradient      ...    9.6961e-07  Tolerance :   1.0000e-05
  Last Orbital Rotation      ...    1.2734e-06  Tolerance :   1.0000e-05


----------------
ORBITAL ENERGIES
----------------

  NO   OCC          E(Eh)            E(eV) 
   0   2.0000    -349.342802     -9506.1009 
   1   2.0000     -42.841861     -1165.7863 
   2   2.0000     -37.827359     -1029.3348 
   3   2.0000     -37.820384     -1029.1450 
   4   2.0000     -37.820383     -1029.1450 
   5   2.0000     -14.749674      -401.3590 
   6   2.0000     -14.749663      -401.3587 
   7   2.0000     -14.749649      -401.3584 
   8   2.0000     -14.749635      -401.3580 
   9   2.0000     -10.579732      -287.8891 
  10   2.0000     -10.579716      -287.8887 
  11   2.0000     -10.579713      -287.8886 
  12   2.0000     -10.579703      -287.8884 
  13   2.0000     -10.579690      -287.8880 
  14   2.0000     -10.579677      -287.8877 
  15   2.0000     -10.579673      -287.8875 
  16   2.0000     -10.579668      -287.8874 
  17   2.0000     -10.565372      -287.4984 
  18   2.0000     -10.565349      -287.4978 
  19   2.0000     -10.565342      -287.4976 
  20   2.0000     -10.565328      -287.4972 
  21   2.0000     -10.557238      -287.2771 
  22   2.0000     -10.557232      -287.2769 
  23   2.0000     -10.557224      -287.2767 
  24   2.0000     -10.557217      -287.2765 
  25   2.0000     -10.544906      -286.9415 
  26   2.0000     -10.544897      -286.9412 
  27   2.0000     -10.544896      -286.9412 
  28   2.0000     -10.544893      -286.9411 
  29   2.0000     -10.544805      -286.9387 
  30   2.0000     -10.544795      -286.9385 
  31   2.0000     -10.544795      -286.9385 
  32   2.0000     -10.544795      -286.9385 
  33   2.0000     -10.544210      -286.9225 
  34   2.0000     -10.544202      -286.9223 
  35   2.0000     -10.544200      -286.9223 
  36   2.0000     -10.544199      -286.9222 
  37   2.0000     -10.543988      -286.9165 
  38   2.0000     -10.543978      -286.9162 
  39   2.0000     -10.543978      -286.9162 
  40   2.0000     -10.543977      -286.9162 
  41   2.0000     -10.543337      -286.8988 
  42   2.0000     -10.543328      -286.8985 
  43   2.0000     -10.543326      -286.8985 
  44   2.0000     -10.543323      -286.8984 
  45   2.0000     -10.539866      -286.8043 
  46   2.0000     -10.539859      -286.8041 
  47   2.0000     -10.539854      -286.8040 
  48   2.0000     -10.539851      -286.8039 
  49   2.0000     -10.538876      -286.7774 
  50   2.0000     -10.538868      -286.7772 
  51   2.0000     -10.538864      -286.7771 
  52   2.0000     -10.538861      -286.7770 
  53   2.0000      -5.025393      -136.7479 
  54   2.0000      -3.410385       -92.8013 
  55   2.0000      -3.401507       -92.5597 
  56   2.0000      -3.401501       -92.5595 
  57   2.0000      -1.077985       -29.3335 
  58   2.0000      -1.068051       -29.0632 
  59   2.0000      -1.068050       -29.0631 
  60   2.0000      -1.057264       -28.7696 
  61   2.0000      -0.975550       -26.5461 
  62   2.0000      -0.971516       -26.4363 
  63   2.0000      -0.971511       -26.4362 
  64   2.0000      -0.969710       -26.3872 
  65   2.0000      -0.927379       -25.2353 
  66   2.0000      -0.908118       -24.7112 
  67   2.0000      -0.908113       -24.7110 
  68   2.0000      -0.888582       -24.1795 
  69   2.0000      -0.867956       -23.6183 
  70   2.0000      -0.867464       -23.6049 
  71   2.0000      -0.867459       -23.6048 
  72   2.0000      -0.861672       -23.4473 
  73   2.0000      -0.846318       -23.0295 
  74   2.0000      -0.846215       -23.0267 
  75   2.0000      -0.846212       -23.0266 
  76   2.0000      -0.846165       -23.0253 
  77   2.0000      -0.838899       -22.8276 
  78   2.0000      -0.831349       -22.6221 
  79   2.0000      -0.831344       -22.6220 
  80   2.0000      -0.813014       -22.1232 
  81   2.0000      -0.803010       -21.8510 
  82   2.0000      -0.748619       -20.3709 
  83   2.0000      -0.748617       -20.3709 
  84   2.0000      -0.705217       -19.1899 
  85   2.0000      -0.692259       -18.8373 
  86   2.0000      -0.691994       -18.8301 
  87   2.0000      -0.691991       -18.8300 
  88   2.0000      -0.691803       -18.8249 
  89   2.0000      -0.684834       -18.6353 
  90   2.0000      -0.684815       -18.6348 
  91   2.0000      -0.678544       -18.4641 
  92   2.0000      -0.677813       -18.4442 
  93   2.0000      -0.665895       -18.1199 
  94   2.0000      -0.643510       -17.5108 
  95   2.0000      -0.643502       -17.5106 
  96   2.0000      -0.634793       -17.2736 
  97   2.0000      -0.632907       -17.2223 
  98   2.0000      -0.630971       -17.1696 
  99   2.0000      -0.626336       -17.0435 
 100   2.0000      -0.605836       -16.4856 
 101   2.0000      -0.605829       -16.4854 
 102   2.0000      -0.600216       -16.3327 
 103   2.0000      -0.600205       -16.3324 
 104   2.0000      -0.598200       -16.2778 
 105   2.0000      -0.593188       -16.1415 
 106   2.0000      -0.593180       -16.1413 
 107   2.0000      -0.590823       -16.0771 
 108   2.0000      -0.589017       -16.0280 
 109   2.0000      -0.570645       -15.5281 
 110   2.0000      -0.565990       -15.4014 
 111   2.0000      -0.562706       -15.3120 
 112   2.0000      -0.562694       -15.3117 
 113   2.0000      -0.534385       -14.5413 
 114   2.0000      -0.531731       -14.4691 
 115   2.0000      -0.527625       -14.3574 
 116   2.0000      -0.527618       -14.3572 
 117   2.0000      -0.525245       -14.2926 
 118   2.0000      -0.521595       -14.1933 
 119   2.0000      -0.521589       -14.1932 
 120   2.0000      -0.519055       -14.1242 
 121   2.0000      -0.512439       -13.9442 
 122   2.0000      -0.499016       -13.5789 
 123   2.0000      -0.491885       -13.3849 
 124   2.0000      -0.490052       -13.3350 
 125   2.0000      -0.490045       -13.3348 
 126   2.0000      -0.488808       -13.3011 
 127   2.0000      -0.488778       -13.3003 
 128   2.0000      -0.488255       -13.2861 
 129   2.0000      -0.488245       -13.2858 
 130   2.0000      -0.487871       -13.2757 
 131   2.0000      -0.483306       -13.1514 
 132   2.0000      -0.483292       -13.1511 
 133   2.0000      -0.477073       -12.9818 
 134   2.0000      -0.467510       -12.7216 
 135   2.0000      -0.467005       -12.7079 
 136   2.0000      -0.467000       -12.7077 
 137   2.0000      -0.453730       -12.3466 
 138   2.0000      -0.451068       -12.2742 
 139   2.0000      -0.447781       -12.1847 
 140   2.0000      -0.447611       -12.1801 
 141   2.0000      -0.444526       -12.0962 
 142   2.0000      -0.444520       -12.0960 
 143   2.0000      -0.437030       -11.8922 
 144   2.0000      -0.433025       -11.7832 
 145   2.0000      -0.433021       -11.7831 
 146   2.0000      -0.419247       -11.4083 
 147   2.0000      -0.410364       -11.1666 
 148   2.0000      -0.410141       -11.1605 
 149   2.0000      -0.406277       -11.0553 
 150   2.0000      -0.406272       -11.0552 
 151   2.0000      -0.405835       -11.0433 
 152   2.0000      -0.405828       -11.0431 
 153   2.0000      -0.405101       -11.0234 
 154   2.0000      -0.395097       -10.7511 
 155   2.0000      -0.387055       -10.5323 
 156   2.0000      -0.387035       -10.5318 
 157   2.0000      -0.379032       -10.3140 
 158   2.0000      -0.339235        -9.2311 
 159   2.0000      -0.339185        -9.2297 
 160   2.0000      -0.323352        -8.7989 
 161   2.0000      -0.317497        -8.6395 
 162   2.0000      -0.316041        -8.5999 
 163   2.0000      -0.314459        -8.5569 
 164   2.0000      -0.313615        -8.5339 
 165   2.0000      -0.313590        -8.5332 
 166   2.0000      -0.311003        -8.4628 
 167   2.0000      -0.309351        -8.4179 
 168   2.0000      -0.309336        -8.4175 
 169   2.0000      -0.308394        -8.3918 
 170   2.0000      -0.306334        -8.3358 
 171   2.0000      -0.306291        -8.3346 
 172   2.0000      -0.304306        -8.2806 
 173   2.0000      -0.237200        -6.4545 
 174   2.0000      -0.233597        -6.3565 
 175   0.0000      -0.074504        -2.0274 
 176   0.0000      -0.074493        -2.0270 
 177   0.0000      -0.001266        -0.0344 
 178   0.0000       0.014705         0.4001 
 179   0.0000       0.015701         0.4272 
 180   0.0000       0.015969         0.4345 
 181   0.0000       0.015990         0.4351 
 182   0.0000       0.016899         0.4598 
 183   0.0000       0.017939         0.4881 
 184   0.0000       0.018668         0.5080 
 185   0.0000       0.018685         0.5084 
*Only the first 10 virtual orbitals were printed.

                    ********************************
                    * MULLIKEN POPULATION ANALYSIS *
                    ********************************

-----------------------
MULLIKEN ATOMIC CHARGES
-----------------------
   0 N :   -0.395685
   1 H :    0.199394
   2 C :   -0.233312
   3 C :   -0.232649
   4 N :   -0.396965
   5 C :   -0.232390
   6 H :    0.199494
   7 C :    0.202042
   8 N :   -0.396966
   9 C :   -0.232341
  10 C :   -0.023346
  11 C :    0.202463
  12 N :   -0.395777
  13 C :   -0.232125
  14 C :    0.200265
  15 C :    0.204344
  16 C :    0.201942
  17 C :    0.202351
  18 C :   -0.231746
  19 C :   -0.020084
  20 C :   -0.023208
  21 C :   -0.232965
  22 C :    0.203515
  23 C :   -0.232543
  24 C :   -0.022974
  25 C :    0.201755
  26 H :    0.199253
  27 H :    0.199495
  28 H :    0.199331
  29 H :    0.199302
  30 H :    0.199360
  31 H :    0.199287
  32 Zn:    0.646266
  33 C :   -0.121074
  34 C :   -0.161368
  35 C :   -0.161827
  36 C :   -0.153266
  37 C :   -0.161878
  38 C :   -0.161627
  39 H :    0.175685
  40 H :    0.162642
  41 H :    0.162833
  42 H :    0.162881
  43 H :    0.175636
  44 C :   -0.118777
  45 C :   -0.162486
  46 C :   -0.161629
  47 C :   -0.153334
  48 C :   -0.161791
  49 C :   -0.163521
  50 H :    0.175868
  51 H :    0.162660
  52 H :    0.162833
  53 H :    0.162850
  54 H :    0.175798
  55 C :   -0.121796
  56 C :   -0.161191
  57 C :   -0.161925
  58 C :   -0.153113
  59 C :   -0.162112
  60 C :   -0.160078
  61 H :    0.175450
  62 H :    0.162706
  63 H :    0.162843
  64 H :    0.162700
  65 H :    0.175351
  66 C :   -0.121680
  67 C :   -0.161012
  68 C :   -0.162174
  69 C :   -0.153045
  70 C :   -0.161975
  71 C :   -0.160152
  72 H :    0.175512
  73 H :    0.162738
  74 H :    0.162845
  75 H :    0.162737
  76 H :    0.175479
Sum of atomic charges:   -0.0000000

--------------------------------
MULLIKEN REDUCED ORBITAL CHARGES
--------------------------------
  0 N s       :     3.745000  s :     3.745000
      pz      :     1.362302  p :     3.594163
      px      :     1.213243
      py      :     1.018618
      dz2     :     0.004427  d :     0.052991
      dxz     :     0.006119
      dyz     :     0.013602
      dx2y2   :     0.014628
      dxy     :     0.014215
      f0      :     0.000690  f :     0.003532
      f+1     :     0.000355
      f-1     :     0.000500
      f+2     :     0.000107
      f-2     :     0.000527
      f+3     :     0.000590
      f-3     :     0.000762

  1 H s       :     0.779930  s :     0.779930
      pz      :     0.003960  p :     0.020676
      px      :     0.008010
      py      :     0.008705

  2 C s       :     3.206202  s :     3.206202
      pz      :     0.986523  p :     2.955316
      px      :     0.985810
      py      :     0.982983
      dz2     :     0.005521  d :     0.064917
      dxz     :     0.008787
      dyz     :     0.018967
      dx2y2   :     0.011203
      dxy     :     0.020440
      f0      :     0.001238  f :     0.006876
      f+1     :     0.000893
      f-1     :     0.000708
      f+2     :     0.000767
      f-2     :     0.000367
      f+3     :     0.001849
      f-3     :     0.001053

  3 C s       :     3.205583  s :     3.205583
      pz      :     0.985276  p :     2.955302
      px      :     0.984813
      py      :     0.985213
      dz2     :     0.005129  d :     0.064888
      dxz     :     0.019462
      dyz     :     0.008700
      dx2y2   :     0.011097
      dxy     :     0.020499
      f0      :     0.001277  f :     0.006876
      f+1     :     0.000642
      f-1     :     0.000894
      f+2     :     0.000804
      f-2     :     0.000358
      f+3     :     0.001038
      f-3     :     0.001863

  4 N s       :     3.745990  s :     3.745990
      pz      :     1.363577  p :     3.594438
      px      :     1.015658
      py      :     1.215203
      dz2     :     0.004287  d :     0.053005
      dxz     :     0.013778
      dyz     :     0.006048
      dx2y2   :     0.014595
      dxy     :     0.014298
      f0      :     0.000693  f :     0.003532
      f+1     :     0.000490
      f-1     :     0.000362
      f+2     :     0.000103
      f-2     :     0.000519
      f+3     :     0.000771
      f-3     :     0.000593

  5 C s       :     3.204958  s :     3.204958
      pz      :     0.982985  p :     2.955649
      px      :     1.017675
      py      :     0.954989
      dz2     :     0.005351  d :     0.064905
      dxz     :     0.017427
      dyz     :     0.010439
      dx2y2   :     0.013916
      dxy     :     0.017771
      f0      :     0.001264  f :     0.006878
      f+1     :     0.000696
      f-1     :     0.000859
      f+2     :     0.001034
      f-2     :     0.000121
      f+3     :     0.001077
      f-3     :     0.001826

  6 H s       :     0.779828  s :     0.779828
      pz      :     0.003994  p :     0.020678
      px      :     0.006207
      py      :     0.010477

  7 C s       :     3.174520  s :     3.174520
      pz      :     0.938504  p :     2.484398
      px      :     0.818511
      py      :     0.727383
      dz2     :     0.003648  d :     0.125974
      dxz     :     0.028995
      dyz     :     0.034548
      dx2y2   :     0.031279
      dxy     :     0.027505
      f0      :     0.001973  f :     0.013067
      f+1     :     0.001035
      f-1     :     0.001307
      f+2     :     0.000575
      f-2     :     0.001982
      f+3     :     0.002900
      f-3     :     0.003295

  8 N s       :     3.745954  s :     3.745954
      pz      :     1.363651  p :     3.594474
      px      :     1.015677
      py      :     1.215147
      dz2     :     0.004279  d :     0.053006
      dxz     :     0.013791
      dyz     :     0.006051
      dx2y2   :     0.014589
      dxy     :     0.014296
      f0      :     0.000693  f :     0.003532
      f+1     :     0.000490
      f-1     :     0.000362
      f+2     :     0.000104
      f-2     :     0.000520
      f+3     :     0.000770
      f-3     :     0.000592

  9 C s       :     3.205169  s :     3.205169
      pz      :     0.985480  p :     2.955324
      px      :     1.016900
      py      :     0.952944
      dz2     :     0.005283  d :     0.064970
      dxz     :     0.017483
      dyz     :     0.010532
      dx2y2   :     0.013928
      dxy     :     0.017745
      f0      :     0.001266  f :     0.006879
      f+1     :     0.000698
      f-1     :     0.000857
      f+2     :     0.001034
      f-2     :     0.000120
      f+3     :     0.001075
      f-3     :     0.001828

 10 C s       :     3.312985  s :     3.312985
      pz      :     0.963747  p :     2.613260
      px      :     0.814946
      py      :     0.834566
      dz2     :     0.003760  d :     0.088846
      dxz     :     0.019566
      dyz     :     0.021756
      dx2y2   :     0.022259
      dxy     :     0.021505
      f0      :     0.001360  f :     0.008255
      f+1     :     0.000926
      f-1     :     0.000950
      f+2     :     0.000644
      f-2     :     0.000833
      f+3     :     0.002027
      f-3     :     0.001515

 11 C s       :     3.176087  s :     3.176087
      pz      :     0.936717  p :     2.482459
      px      :     0.833578
      py      :     0.712164
      dz2     :     0.003768  d :     0.125926
      dxz     :     0.027527
      dyz     :     0.035979
      dx2y2   :     0.027124
      dxy     :     0.031528
      f0      :     0.001968  f :     0.013065
      f+1     :     0.000981
      f-1     :     0.001372
      f+2     :     0.000972
      f-2     :     0.001586
      f+3     :     0.001755
      f-3     :     0.004432

 12 N s       :     3.745052  s :     3.745052
      pz      :     1.361944  p :     3.594196
      px      :     1.213269
      py      :     1.018983
      dz2     :     0.004482  d :     0.052997
      dxz     :     0.006111
      dyz     :     0.013522
      dx2y2   :     0.014657
      dxy     :     0.014224
      f0      :     0.000687  f :     0.003532
      f+1     :     0.000355
      f-1     :     0.000502
      f+2     :     0.000109
      f-2     :     0.000526
      f+3     :     0.000590
      f-3     :     0.000761

 13 C s       :     3.205233  s :     3.205233
      pz      :     0.983632  p :     2.955069
      px      :     0.953196
      py      :     1.018241
      dz2     :     0.005442  d :     0.064945
      dxz     :     0.010647
      dyz     :     0.017096
      dx2y2   :     0.014096
      dxy     :     0.017663
      f0      :     0.001245  f :     0.006878
      f+1     :     0.000823
      f-1     :     0.000769
      f+2     :     0.001001
      f-2     :     0.000139
      f+3     :     0.001810
      f-3     :     0.001092

 14 C s       :     3.175400  s :     3.175400
      pz      :     0.931317  p :     2.485348
      px      :     0.731903
      py      :     0.822128
      dz2     :     0.003269  d :     0.125920
      dxz     :     0.035591
      dyz     :     0.028621
      dx2y2   :     0.030948
      dxy     :     0.027491
      f0      :     0.001995  f :     0.013067
      f+1     :     0.001283
      f-1     :     0.001037
      f+2     :     0.000583
[...]
  0-1A  ->  1-1A    2.455103   19801.7   505.0   0.016886662   0.00229   0.02896   0.03781  -0.00412
  0-1A  ->  2-1A    2.455311   19803.4   505.0   0.016884829   0.00229  -0.03802   0.02890  -0.00212
  0-1A  ->  3-1A    3.569725   28791.8   347.3   0.497738539   0.09794   0.12683   0.28461  -0.02926
  0-1A  ->  4-1A    3.570027   28794.2   347.3   0.496957261   0.09780   0.28581  -0.12672   0.00736
  0-1A  ->  5-1A    4.200111   33876.2   295.2   0.000005156   0.00000  -0.00024  -0.00002  -0.00107
  0-1A  ->  6-1A    4.208781   33946.1   294.6   0.000000995   0.00000  -0.00044   0.00019  -0.00003
  0-1A  ->  7-1A    4.208824   33946.5   294.6   0.000000417   0.00000   0.00020   0.00024   0.00000
  0-1A  ->  8-1A    4.277526   34500.6   289.9   0.000000190   0.00000  -0.00015  -0.00013  -0.00008
  0-1A  ->  9-1A    4.353800   35115.8   284.8   0.044159085   0.01060  -0.10267   0.00752   0.00105
  0-1A  -> 10-1A    4.354447   35121.0   284.7   0.043924443   0.01054  -0.00749  -0.10194   0.00981
  0-1A  -> 11-1A    4.505986   36343.2   275.2   0.000000392   0.00000   0.00014  -0.00028   0.00002
  0-1A  -> 12-1A    4.663053   37610.1   265.9   0.000001951   0.00000  -0.00025  -0.00066   0.00003
  0-1A  -> 13-1A    4.712808   38011.4   263.1   0.000003342   0.00000  -0.00080  -0.00044  -0.00016
  0-1A  -> 14-1A    4.735567   38194.9   261.8   0.000813730   0.00021   0.01215  -0.00802   0.00057
  0-1A  -> 15-1A    4.735915   38197.7   261.8   0.000919397   0.00024  -0.00856  -0.01284   0.00136
  0-1A  -> 16-1A    4.760012   38392.1   260.5   0.000004011   0.00000   0.00041   0.00093  -0.00012
  0-1A  -> 17-1A    4.779447   38548.8   259.4   0.000000714   0.00000  -0.00040  -0.00008   0.00014
  0-1A  -> 18-1A    4.840979   39045.1   256.1   0.000000201   0.00000  -0.00000   0.00023  -0.00004
  0-1A  -> 19-1A    4.880032   39360.1   254.1   0.000178652   0.00005  -0.00141   0.00110   0.00670
  0-1A  -> 20-1A    4.956223   39974.6   250.2   0.021635386   0.00591  -0.07656   0.00696   0.00072
  0-1A  -> 21-1A    4.956525   39977.1   250.1   0.021595361   0.00590   0.00734   0.07610  -0.00740
  0-1A  -> 22-1A    4.985647   40212.0   248.7   0.000037851   0.00001   0.00181  -0.00264   0.00038
  0-1A  -> 23-1A    5.009437   40403.8   247.5   0.007928550   0.00219  -0.02866  -0.03678   0.00384
  0-1A  -> 24-1A    5.009767   40406.5   247.5   0.008141353   0.00225  -0.03745   0.02898  -0.00247
  0-1A  -> 25-1A    5.054982   40771.2   245.3   0.000034397   0.00001  -0.00117   0.00141   0.00249
  0-1A  -> 26-1A    5.056083   40780.1   245.2   0.000130836   0.00004   0.00129  -0.00080  -0.00585
  0-1A  -> 27-1A    5.094458   41089.6   243.4   0.020982586   0.00589  -0.06144   0.04589  -0.00340
  0-1A  -> 28-1A    5.094571   41090.5   243.4   0.020567192   0.00578  -0.04546  -0.06056   0.00646
  0-1A  -> 29-1A    5.171749   41713.0   239.7   0.000000049   0.00000  -0.00011   0.00005  -0.00003
  0-1A  -> 30-1A    5.187213   41837.7   239.0   0.000007206   0.00000  -0.00125  -0.00071  -0.00008

------------------------------------------------------------------------------------------
                     CD SPECTRUM VIA TRANSITION ELECTRIC DIPOLE MOMENTS    
------------------------------------------------------------------------------------------
     Transition      Energy     Energy  Wavelength    R        MX        MY        MZ   
                      (eV)      (cm-1)    (nm)   (1e40*cgs)   (au)      (au)      (au)  
------------------------------------------------------------------------------------------
  0-1A  ->  1-1A    2.455103   19801.7   505.0   -0.05801  -0.00380  -0.00468  -0.00002
  0-1A  ->  2-1A    2.455311   19803.4   505.0   -0.04983   0.00470  -0.00338   0.00070
  0-1A  ->  3-1A    3.569725   28791.8   347.3   40.99221   0.00526   0.01377  -0.00106
  0-1A  ->  4-1A    3.570027   28794.2   347.3   39.73684   0.01314  -0.00567  -0.00006
  0-1A  ->  5-1A    4.200111   33876.2   295.2   -3.43539  -0.02504  -0.11875  -1.17743
  0-1A  ->  6-1A    4.208781   33946.1   294.6    0.12940  -0.17676   0.25409  -0.03119
  0-1A  ->  7-1A    4.208824   33946.5   294.6   -1.28887  -0.25548  -0.17222   0.05257
  0-1A  ->  8-1A    4.277526   34500.6   289.9    0.00062   0.00135  -0.00066  -0.00467
  0-1A  ->  9-1A    4.353800   35115.8   284.8   -2.99053   0.00579  -0.00024  -0.00007
  0-1A  -> 10-1A    4.354447   35121.0   284.7   -2.32083   0.00136   0.00444  -0.00005
  0-1A  -> 11-1A    4.505986   36343.2   275.2    0.00013   0.00007  -0.00003   0.00018
  0-1A  -> 12-1A    4.663053   37610.1   265.9   -0.00038  -0.00001   0.00136  -0.00130
  0-1A  -> 13-1A    4.712808   38011.4   263.1   -0.00175   0.00049   0.00035   0.00103
  0-1A  -> 14-1A    4.735567   38194.9   261.8   -1.06370  -0.04743   0.03119  -0.00238
  0-1A  -> 15-1A    4.735915   38197.7   261.8   -1.23996   0.03145   0.04684  -0.00654
  0-1A  -> 16-1A    4.760012   38392.1   260.5   -0.00258  -0.00042  -0.00110  -0.00111
  0-1A  -> 17-1A    4.779447   38548.8   259.4   -0.00042   0.00063   0.00023   0.00035
  0-1A  -> 18-1A    4.840979   39045.1   256.1    0.00191  -0.00035   0.00076   0.00204
  0-1A  -> 19-1A    4.880032   39360.1   254.1   24.59006   0.00459   0.03718   0.38018
  0-1A  -> 20-1A    4.956223   39974.6   250.2   -6.23523   0.00903  -0.00125   0.00241
  0-1A  -> 21-1A    4.956525   39977.1   250.1   -5.93748  -0.00040  -0.00844   0.00263
  0-1A  -> 22-1A    4.985647   40212.0   248.7    0.02701   0.00180  -0.00059   0.00116
  0-1A  -> 23-1A    5.009437   40403.8   247.5   15.72517  -0.06115  -0.07831   0.00999
  0-1A  -> 24-1A    5.009767   40406.5   247.5   16.03628  -0.07816   0.06080  -0.00189
  0-1A  -> 25-1A    5.054982   40771.2   245.3   -6.68538  -0.00379  -0.01096  -0.12387
  0-1A  -> 26-1A    5.056083   40780.1   245.2  -32.82450   0.00631   0.02624   0.27786
  0-1A  -> 27-1A    5.094458   41089.6   243.4   20.52299  -0.03542   0.02702  -0.00255
  0-1A  -> 28-1A    5.094571   41090.5   243.4   19.81595  -0.02554  -0.03470   0.00450
  0-1A  -> 29-1A    5.171749   41713.0   239.7   -0.00143  -0.00109  -0.00134   0.00075
  0-1A  -> 30-1A    5.187213   41837.7   239.0    0.00735  -0.00125  -0.00137  -0.00024

------------------------------------------------------------------------------------------
                     CD SPECTRUM VIA TRANSITION VELOCITY DIPOLE MOMENTS    
------------------------------------------------------------------------------------------
     Transition      Energy     Energy  Wavelength    R        MX        MY        MZ   
                      (eV)      (cm-1)    (nm)   (1e40*cgs)   (au)      (au)      (au)  
------------------------------------------------------------------------------------------
  0-1A  ->  1-1A    2.455103   19801.7   505.0   -1.49939  -0.00380  -0.00468  -0.00002
  0-1A  ->  2-1A    2.455311   19803.4   505.0   -1.45348   0.00470  -0.00338   0.00070
  0-1A  ->  3-1A    3.569725   28791.8   347.3   16.59224   0.00526   0.01377  -0.00106
  0-1A  ->  4-1A    3.570027   28794.2   347.3   16.07642   0.01314  -0.00567  -0.00006
  0-1A  ->  5-1A    4.200111   33876.2   295.2    3.85987  -0.02504  -0.11875  -1.17743
  0-1A  ->  6-1A    4.208781   33946.1   294.6    0.38767  -0.17676   0.25409  -0.03119
  0-1A  ->  7-1A    4.208824   33946.5   294.6   -0.28050  -0.25548  -0.17222   0.05257
  0-1A  ->  8-1A    4.277526   34500.6   289.9    0.00080   0.00135  -0.00066  -0.00467
  0-1A  ->  9-1A    4.353800   35115.8   284.8   -1.75739   0.00579  -0.00024  -0.00007
  0-1A  -> 10-1A    4.354447   35121.0   284.7   -1.36502   0.00136   0.00444  -0.00005
  0-1A  -> 11-1A    4.505986   36343.2   275.2    0.00006   0.00007  -0.00003   0.00018
  0-1A  -> 12-1A    4.663053   37610.1   265.9   -0.00259  -0.00001   0.00136  -0.00130
  0-1A  -> 13-1A    4.712808   38011.4   263.1   -0.00194   0.00049   0.00035   0.00103
  0-1A  -> 14-1A    4.735567   38194.9   261.8   -2.24345  -0.04743   0.03119  -0.00238
  0-1A  -> 15-1A    4.735915   38197.7   261.8   -2.38249   0.03145   0.04684  -0.00654
  0-1A  -> 16-1A    4.760012   38392.1   260.5   -0.00289  -0.00042  -0.00110  -0.00111
  0-1A  -> 17-1A    4.779447   38548.8   259.4   -0.00060   0.00063   0.00023   0.00035
  0-1A  -> 18-1A    4.840979   39045.1   256.1    0.00023  -0.00035   0.00076   0.00204
  0-1A  -> 19-1A    4.880032   39360.1   254.1    6.78460   0.00459   0.03718   0.38018
  0-1A  -> 20-1A    4.956223   39974.6   250.2   -1.80684   0.00903  -0.00125   0.00241
  0-1A  -> 21-1A    4.956525   39977.1   250.1   -1.71977  -0.00040  -0.00844   0.00263
  0-1A  -> 22-1A    4.985647   40212.0   248.7    0.01354   0.00180  -0.00059   0.00116
  0-1A  -> 23-1A    5.009437   40403.8   247.5   11.96356  -0.06115  -0.07831   0.00999
  0-1A  -> 24-1A    5.009767   40406.5   247.5   12.01945  -0.07816   0.06080  -0.00189
  0-1A  -> 25-1A    5.054982   40771.2   245.3   -0.81216  -0.00379  -0.01096  -0.12387
  0-1A  -> 26-1A    5.056083   40780.1   245.2   -4.15351   0.00631   0.02624   0.27786
  0-1A  -> 27-1A    5.094458   41089.6   243.4    8.62449  -0.03542   0.02702  -0.00255
  0-1A  -> 28-1A    5.094571   41090.5   243.4    8.28909  -0.02554  -0.03470   0.00450
  0-1A  -> 29-1A    5.171749   41713.0   239.7    0.00008  -0.00109  -0.00134   0.00075
  0-1A  -> 30-1A    5.187213   41837.7   239.0    0.00628  -0.00125  -0.00137  -0.00024

Total run time:    31953.123 sec

           *** ORCA-CIS/TD-DFT FINISHED WITHOUT ERROR ***
-----------------------
CIS/TD-DFT TOTAL ENERGY
-----------------------

    E(SCF)  =  -3691.960741168 Eh
    DE(CIS) =      0.090223386 Eh (Root  1)
    ----------------------------- ---------
    E(tot)  =  -3691.870517783 Eh


Maximum memory used throughout the entire CIS-calculation: 2461.5 MB
=> NOW LEAVING ORCA_CIS

-------------------------   --------------------
FINAL SINGLE POINT ENERGY     -3691.870517782603
-------------------------   --------------------



           ************************************************************
           *        Program running with 8 parallel MPI-processes     *
           *              working on a common directory               *
           ************************************************************

------------------------------------------------------------------------------
                              ORCA PROPERTY CALCULATIONS
------------------------------------------------------------------------------

GBWName                                 ... tddft.gbw
Number of atoms                         ...     77
Number of basis functions               ...   1704
Max core memory                         ...   3000 MB

Electric properties:
Dipole moment                           ... YES
Quadrupole moment                       ...  NO
Static polarizability (Dipole/Dipole)   ...  NO
Static polarizability (Dipole/Quad.)    ...  NO
Static polarizability (Quad./Quad.)     ...  NO
Static polarizability (Velocity)        ...  NO
Static hyperpolarizability              ...  NO

Atomic electric properties:
Dipole moment                           ...  NO
Quadrupole moment                       ...  NO
Static polarizability                   ...  NO

Choice of electric origin               ... Center of mass
Position of electric origin             ...    -0.159900     5.089041     6.548333

General magnetic properties:
Magnetizability                         ...  NO

EPR properties:
g-Tensor (aka g-matrix)                 ...  NO
Zero-Field splitting spin-orbit         ...  NO
Zero-field splitting spin-spin          ...  NO
Hyperfine couplings                     ...  NO (   0 nuclei)
Quadrupole couplings                    ...  NO (   0 nuclei)
Contact density                         ...  NO (   0 nuclei)

NMR properties:
Chemical shifts                         ...  NO (   0 nuclei)
Spin-rotation constants                 ...  NO (   0 nuclei)
Spin-spin couplings                     ...  NO (   0 nuclei,    0 pairs)

Choice of magnetic origin               ... GIAO
Position of magnetic origin             ...     0.000000     0.000000     0.000000

Properties with geometric perturbations:
SCF Hessian                             ...  NO
IR spectrum                             ...  NO
VCD spectrum                            ...  NO
X-ray spectroscopy properties:
SCF XES/XAS/RIXS spectra                ...  NO

SCF SOC stabilization energy            ...  NO
Diagonal Born-Oppenheimer correction    ...  NO

-------------
DIPOLE MOMENT
-------------

Method             : SCF
Type of density    : Electron Density
Multiplicity       :   1
Irrep              :   0
Energy             : -3691.9607411681872691 Eh
Basis              : AO
                                X                 Y                 Z
Electronic contribution:     -0.008554697       0.002467314       0.018466065
Nuclear contribution   :      0.009078313      -0.003119452      -0.019187423
                        -----------------------------------------
Total Dipole Moment    :      0.000523616      -0.000652137      -0.000721358
                        -----------------------------------------
Magnitude (a.u.)       :      0.001104452
Magnitude (Debye)      :      0.002807295



--------------------
Rotational spectrum 
--------------------
 
Rotational constants in cm-1:             0.001946             0.001946             0.001013 
Rotational constants in MHz :            58.342005            58.333325            30.369733 

Dipole components along the rotational axes: 
x,y,z [a.u.] :     0.000551    -0.000566    -0.000772 
x,y,z [Debye]:     0.001400    -0.001439    -0.001962 

 

Dipole moment calculation done in   0.4 sec 

Maximum memory used throughout the entire PROP-calculation: 234.8 MB

--------------------------------
SUGGESTED CITATIONS FOR THIS RUN
--------------------------------

Below you find a list of papers that are relevant to this ORCA run
We neither can nor want to force you to cite these papers, but we appreciate if you do
You receive ORCA, which is the product of decades of hard work by many enthusiastic individuals, for free
The only thing we kindly ask in return is that you cite our papers,
We deeply appreciate it, if you show your appreciation for ORCA by not just citing the generic ORCA reference.

Please note that relegating all ORCA citations to the supporting information does *not* help us.
SI sections are not indexed - citations you put there will not count into any citation statistics
But we need these citations in order to attract the funding resources that allow us to do what we are doing

Therefore, if you are a happy ORCA user, please consider citing a few of the papers listed below in the main body of your paper

In addition to the list printed below, the program has created the file tddft.bibtex that contains the list in bibtex format
You can import this file easily into all common literature databanks and citation aid programs

It goes without saying that in many instances, there are alternative algorithms to achieve similar
results as the ones you have gotten from ORCA. It is, of course, also the case that in some instances
ORCA just re-implements algorithms worked out by others. We are fully aware of that and we are also
fully appreciative of our colleagues work. Hence this citation list should not be read as indicating
that the listed papers, which are focused on our own work, are the only ones worth citing. It simply
meant to make it easier for users to cite ORCA specific papers. It is not a substitute for doing your
own literature research and citing the relevant literature in a scientifically appropriate manner.

List of essential papers. We consider these as the minimum necessary citations

  1. Neese, F.
     Software update: the ORCA program system, version 6.0
     WIRES Comput. Molec. Sci. 2025 15(1), e70019
     doi.org/10.1002/wcms.70019

List of papers to cite with high priority. The work reported in these papers was absolutely
necessary for this run to complete.
Our perspective: the developers of density functionals and basis sets usually get cited in chemistry papers
Good! But without the algorithms to do something with them, the functionals or basis sets would not do anything.
Hence, in our opinion, the algorithm design and method developments papers are equally worthy of getting cited

  1. Neese, F.; Olbrich, G.
     Efficient use of the resolution of the identity approximation in time-dependent density functional calculations with hybrid density functionals
     Chem. Phys. Lett. 2002 362 , 170-178
     doi.org/10.1016/s0009-2614(02)01053-9
  2. Neese, F.
     An improvement of the resolution of the identity approximation for the formation of the Coulomb matrix
     J. Comp. Chem. 2003 24(14), 1740-1747
     doi.org/10.1002/jcc.10318
  3. Neese, F.; Wennmohs, F.; Hansen, A.; Becker, U.
     Efficient, approximate and parallel Hartree-Fock and hybrid DFT calculations. A 'chain-of-spheres' algorithm for the Hartree-Fock exchange
     Chem. Phys. 2009 356(1-3), 98-109
     doi.org/10.1016/j.chemphys.2008.10.036
  4. Garcia-Rates, M.; Neese, F.
     Effect of the Solute Cavity on the Solvation Energy and its Derivatives within the Framework of the Gaussian Charge Scheme
     J. Comput. Chem. 2020 41 , 922-939
     doi.org/10.1002/jcc.26139
  5. Helmich-Paris, B.; de Souza, B.; Neese, F.; Izsák, R.
     An improved chain of spheres for exchange algorithm
     J. Chem. Phys. 2021 155(10), 104109
     doi.org/10.1063/5.0058766
  6. Neese, F.
     The SHARK Integral Generation and Digestion System
     J. Comp. Chem. 2022 44(3), 381
     doi.org/10.1002/jcc.26942

List of suggested additional citations. These are papers that are important in the 'surrounding' of 
of this run, or papers that preceded the highly important papers. If you like your results we are grateful for a citation.

  1. Izsak, R.; Neese, F.
     An overlap fitted chain of spheres exchange method
     J. Chem. Phys. 2011 135 , 144105
     doi.org/10.1063/1.3646921
  2. Izsak, R.; Hansen, A.; Neese, F.
     The resolution of identity and chain of spheres approximations for the LPNO-CCSD singles Fock term
     Molec. Phys. 2012 110 , 2413-2417
     doi.org/10.1080/00268976.2012.687466
  3. Neese, F.
     The ORCA program system
     WIRES Comput. Molec. Sci. 2012 2(1), 73-78
     doi.org/10.1002/wcms.81
  4. Izsak, R.; Neese, F.; Klopper, W.
     Robust fitting techniques in the chain of spheres approximation to the Fock exchange: The role of the complementary space
     J. Chem. Phys. 2013 139 , 
     doi.org/10.1063/1.4819264
  5. Neese, F.
     Software update: the ORCA program system, version 4.0
     WIRES Comput. Molec. Sci. 2018 8(1), 1-6
     doi.org/10.1002/wcms.1327
  6. Neese, F.; Wennmohs, F.; Becker, U.; Riplinger, C.
     The ORCA quantum chemistry program package
     J. Chem. Phys. 2020 152(22), 224108
     doi.org/10.1063/5.0004608
  7. Neese, F.
     Software update: The ORCA program system—Version 5.0
     WIRES Comput. Molec. Sci. 2022 12(1), e1606
     doi.org/10.1002/wcms.1606

List of optional additional citations

  1. Neese, F.
     Approximate second-order SCF convergence for spin unrestricted wavefunctions
     Chem. Phys. Lett. 2000 325(1-3), 93-98
     doi.org/10.1016/s0009-2614(00)00662-x

Timings for individual modules:

Sum of individual times          ...    33509.881 sec (= 558.498 min)
Startup calculation              ...       77.005 sec (=   1.283 min)   0.2 %
SCF iterations                   ...     1469.424 sec (=  24.490 min)   4.4 %
Property integrals               ...        3.823 sec (=   0.064 min)   0.0 %
Property calculations            ...        3.362 sec (=   0.056 min)   0.0 %
CIS module                       ...    31956.267 sec (= 532.604 min)  95.4 %
                             ****ORCA TERMINATED NORMALLY****
TOTAL RUN TIME: 0 days 9 hours 18 minutes 30 seconds 594 msec
