
                                 *****************
                                 * O   R   C   A *
                                 *****************

                                            #,                                       
                                            ###                                      
                                            ####                                     
                                            #####                                    
                                            ######                                   
                                           ########,                                 
                                     ,,################,,,,,                         
                               ,,#################################,,                 
                          ,,##########################################,,             
                       ,#########################################, ''#####,          
                    ,#############################################,,   '####,        
                  ,##################################################,,,,####,       
                ,###########''''           ''''###############################       
              ,#####''   ,,,,##########,,,,          '''####'''          '####       
            ,##' ,,,,###########################,,,                        '##       
           ' ,,###''''                  '''############,,,                           
         ,,##''                                '''############,,,,        ,,,,,,###''
      ,#''                                            '''#######################'''  
     '                                                          ''''####''''         
             ,#######,   #######,   ,#######,      ##                                
            ,#'     '#,  ##    ##  ,#'     '#,    #''#        ,####,    ,#,          
            ##       ##  ##   ,#'  ##            #'  '#       #'       ,# #          
            ##       ##  #######   ##           ,######,      #####,      #          
            '#,     ,#'  ##    ##  '#,     ,#' ,#      #,     #,   #      #          
             '#######'   ##     ##  '#######'  #'      '#     '####' #    #          



                #########################################################
                #                        -***-                          #
                #          Department of theory and spectroscopy        #
                #                                                       #
                #                      Frank Neese                      #
                #                                                       #
                #     Directorship, Architecture, Infrastructure        #
                #                    SHARK, DRIVERS                     #
                #        Core code/Algorithms in most modules           #
                #                                                       #
                #        Max Planck Institute fuer Kohlenforschung      #
                #                Kaiser Wilhelm Platz 1                 #
                #                 D-45470 Muelheim/Ruhr                 #
                #                      Germany                          #
                #                                                       #
                #                  All rights reserved                  #
                #                        -***-                          #
                #########################################################


                         Program Version 6.1.1  -  RELEASE   -
                                (GIT: $487d211c$)
                          ($2025-11-21 10:33:24 +0100$)


 With contributions from (in alphabetic order):
[Max-Planck-Institut fuer Kohlenforschung]                               
  Daniel Aravena         : Magnetic Suceptibility                        
  Michael Atanasov       : Ab Initio Ligand Field Theory (pilot matlab implementation)
  Alexander A. Auer      : GIAO ZORA, VPT2 properties, NMR spectrum      
  Ute Becker             : All parallelization in ORCA, NUMFREQ, NUMCALC 
  Giovanni Bistoni       : ED, misc. LED, open-shell LED, HFLD           
  Dmytro Bykov           : pre 5.0 version of the SCF Hessian            
  Marcos Casanova-Páez   : Triplet and SCS-CIS(D). UHF-(DLPNO)-IP/EA/STEOM-CCSD. UHF-CVS-IP/STEOM-CCSD   
  Vijay G. Chilkuri      : MRCI spin determinant printing, contributions to CSF-ICE 
  Pauline Colinet        : FMM embedding                                 
  Dipayan Datta          : RHF DLPNO-CCSD density                        
  Achintya Kumar Dutta   : EOM-CC, STEOM-CC                              
  Nicolas Foglia         : Exact transition moments, OPA infrastructure, MCD improvements    
  Dmitry Ganyushin       : Spin-Orbit,Spin-Spin,Magnetic field MRCI      
  Miquel Garcia-Rates    : C-PCM and meta-GGA Hessian, CCSD/C-PCM, Gaussian charge scheme 
  Tiago L. C. Gouveia    : GS-ROHF, GS-ROCIS                             
  Yang Guo               : DLPNO-NEVPT2, F12-NEVPT2, CIM, IAO-localization        
  Andreas Hansen         : Spin unrestricted coupled pair/coupled cluster methods 
  Ingolf Harden          : AUTO-CI MPn and infrastructure                
  Benjamin Helmich-Paris : MC-RPA, TRAH-(SCF,CASSCF), AVAS, COSX integrals, SCF dyn. polar., MC-PDFT, srDFT 
  Lee Huntington         : MR-EOM, pCC                                   
  Robert Izsak           : Overlap fitted RIJCOSX, COSX-SCS-MP3, EOM     
  Riya Kayal             : Wick's Theorem for AUTO-CI, AUTO-CI UHF-CCSDT 
  Emily Kempfer          : AUTO-CI RHF CISDT and CCSDT, approximate NEVPT4
  Christian Kollmar      : KDIIS, OOCD, Brueckner-CCSD(T), CCSD density, CASPT2, CASPT2-K, improved NEVPT2 
  Axel Koslowski         : Symmetry handling                             
  Simone Kossmann        : meta-GGA functionals, TD-DFT gradient, OOMP2, (MP2 Hessian; deprecated post 5.0) 
  Lucas Lang             : DCDCAS, Hyperfine gauge corrections, ICE-SOC+SSC
  Marvin Lechner         : AUTO-CI (C++ implementation), FIC-MRCC        
  Spencer Leger          : CASSCF response                               
  Dagmar Lenk            : GEPOL surface, SMD, ORCA-2-JSON               
  Dimitrios Liakos       : Extrapolation schemes; Compound Job, Property file
  Dimitrios Manganas     : Further ROCIS development; embedding schemes. LFT, Crystal Embedding 
  Dimitrios Pantazis     : SARC Basis sets                               
  Anastasios Papadopoulos: AUTO-CI, single reference methods and gradients 
  Taras Petrenko         : pre 6.0 DFT Hessian and TD-DFT gradient,  ECA, NRVS 
  Petra Pikulova         : Analytic Raman intensities                    
  Peter Pinski           : DLPNO-MP2, DLPNO-MP2 Gradient                 
  Shashank Vittal Rao    : ES-AILFT, MagRelax                            
  Christoph Reimann      : Effective Core Potentials                     
  Marius Retegan         : Local ZFS, SOC                                
  Christoph Riplinger    : Optimizer, TS searches, QM/MM, DLPNO-CCSD(T), (RO)-DLPNO pert. Triples 
  Michael Roemelt        : Original ROCIS implementation, recursive CI coupling coefficients
  Masaaki Saitow         : Open-shell DLPNO-CCSD energy and density      
  Barbara Sandhoefer     : DKH picture change effects                    
  Yorick L. A. Schmerwitz: GMF and freeze-and-release deltaSCF, NEB S-IDPP initial path                    
  Kantharuban Sivalingam : CASSCF convergence/infrastructure, NEVPT2, NEVPT3, NEVPT4(SD), FIC-MRCI and CEPA variants
  Bernardo de Souza      : ESD, SOC TD-DFT                               
  Georgi L. Stoychev     : AutoAux, RI-MP2 NMR, DLPNO-MP2 response, X2C  
  Van Anh Tran           : RI-MP2 g-tensors                              
  Willem Van den Heuvel  : Paramagnetic NMR                              
  Zikuan Wang            : NOTCH, Electric field optimization            
  Frank Wennmohs         : Technical directorship and infrastructure     
  Hang Xu                : AUTO-CI-Response properties                   
                                                                         
[FACCTs GmbH]                                                            
  Markus Bursch, Nicolas Foglia, Miquel Garcia-Rates, Ingolf Harden, Hagen Neugebauer, Anastasios Papadopoulos, 
  Christoph Riplinger, Bernardo de Souza, Georgi L. Stoychev                                                    
                                                                 
  APM, various basis sets, CI-OPT, improved COSX, DLPNO-Multilevel,           
  DOCKER, DRACO, updates on ESD, Fragmentator, GOAT, IRC, LR-CPCM, L-BFGS, MBIS, meta-GGA TD-DFT gradient, ML-optimized integration grids, 
  MM, NACMEs, nearIR, NEB, NEB-TS, NL-DFT gradient (VV10), 2- and 3-layer-ONIOM, interface openCOSMO-RS, QMMM,   
  Crystal-QMMM, RESP, rigid body optimization, SF, symmetry and pop. for TD-DFT, various functionals, SOLVATOR                                   
                                                                         
[Other institutions]                                                     
  V. Asgeirsson          : NEB                                           
  Christoph Bannwarth    : sTDA-DFT, sTD-DFT, PBEh-3c, B97-3c, D3        
  Giovanni Bistoni       : ETS/NOCV, ADLD/ADEX, COVALED                  
  Martin Brehm           : Molecular dynamics                            
  Ronald Cardenas        : ETS/NOCV                                      
  Martina Colucci        : COVALED                                       
  Sebastian Ehlert       : rSCAN, r2SCAN, r2SCAN-3c, D4, dhf basis sets  
  Marvin Friede          : D4 for Fr, Ra, Ac-Lr                          
  Lars Goerigk           : TD-DFT with DH, B97 family of functionals     
  Stefan Grimme          : VdW corrections, initial TS optimization, DFT functionals, gCP, sTDA/sTD-DF 
  Waldemar Hujo          : DFT-NL                                        
  H. Jonsson             : NEB                                           
  Holger Kruse           : gCP                                           
  Marcel Mueller         : wB97X-3c, vDZP basis set                      
  Hagen Neugebauer       : wr2SCAN, Native XTB                           
  Gianluca Regni         : ADLD/ADEX                                     
  Tobias Risthaus        : pre 6.0 range-separated hybrid DFT and stability analysis
  Lukas Wittmann         : regularized MP2, r2SCAN double-hybrids, wr2SCAN        
                                                                         
We gratefully acknowledge several colleagues who have allowed us to      
interface, adapt or use parts of their codes:                            
  Ed Valeev, F. Pavosevic, A. Kumar             : LibInt (2-el integral package), F12 methods 
  Garnet Chan, S. Sharma, J. Yang, R. Olivares  : DMRG                   
  Ulf Ekstrom                                   : XCFun DFT Library      
  Mihaly Kallay                                 : mrcc  (arbitrary order and MRCC methods)
  Frank Weinhold                                : gennbo (NPA and NBO analysis)           
  Simon Mueller                                 : openCOSMO-RS                            
  Christopher J. Cramer and Donald G. Truhlar   : smd solvation model                     
  S Lehtola, MJT Oliveira, MAL Marques          : LibXC Library                           
  Liviu Ungur et al                             : ANISO software                          


 Your calculation uses the libint2 library for the computation of 2-el integrals
 For citations please refer to: http://libint.valeyev.net

 Your ORCA version has been built with support for libXC version: 7.0.0
 For citations please refer to: https://libxc.gitlab.io

 This ORCA versions uses:
   CBLAS   interface :  Fast vector & matrix operations
   LAPACKE interface :  Fast linear algebra routines
   SCALAPACK package :  Parallel linear algebra routines
   Shared memory     :  Shared parallel matrices
   BLAS/LAPACK       :  OpenBLAS 0.3.29  USE64BITINT DYNAMIC_ARCH NO_AFFINITY Haswell SINGLE_THREADED
        Core in use  :  Haswell
   Copyright (c) 2011-2014, The OpenBLAS Project


  ***********************************
  * Starting time: Sun Jun  7 00:22:12 2026
  * Host name:     steezy
  * Process ID:    1775292
  * Working dir.:  /home/jannes/zntpp/04_tddft/bp86
  ***********************************

NOTE: MaxCore=3000 MB was set to SCF,MP2,MDCI,CIPSI,MRCI,RASCI and CIS
      => If you want to overwrite this, your respective input block should be placed after the MaxCore statement


***************************************
The coordinates will be read from file: /home/jannes/zntpp/01_opt/zntpp_opt_b3lyp_tzvp.xyz
***************************************


================================================================================

----- Orbital basis set information -----
Your calculation utilizes the basis: def2-TZVP
   F. Weigend and R. Ahlrichs, Phys. Chem. Chem. Phys. 7, 3297 (2005).

----- AuxJ basis set information -----
Your calculation utilizes the auxiliary basis: def2/J
   H-Rn: F. Weigend, Phys. Chem. Chem. Phys. 8, 1057 (2006).
   Fr-Lr: K. Eichkorn, F. Weigend, O. Treutler, R. Ahlrichs; Theor. Chem. Acc. 97, 119 (1997).

================================================================================
                                        WARNINGS
                       Please study these warnings very carefully!
================================================================================



WARNING: Found flag for RIJCOSX approximation but no HF exchange needed!
  ===> : RIJCOSX  will be disabled and Split-RI-J is turned on

WARNING: CIS/ROCIS methods need fully converged wavefunctions
  ===> : Setting SCFConvForced true
         You can overwrite this default with %scf ConvForced false 


================================================================================
                                       INPUT FILE
================================================================================
NAME = tddft.inp
|  1> %pal nprocs 8 end
|  2> %maxcore 3000
|  3> ! BP86 def2-TZVP def2/J RIJCOSX DefGrid3 TightSCF CPCM(Toluene)
|  4> %tddft
|  5>   nroots 30
|  6>   triplets false
|  7>   tda false
|  8> end
|  9> * xyzfile 0 1 /home/jannes/zntpp/01_opt/zntpp_opt_b3lyp_tzvp.xyz
| 10> 
| 11>                          ****END OF INPUT****
================================================================================

                       ****************************
                       * Single Point Calculation *
                       ****************************

---------------------------------
CARTESIAN COORDINATES (ANGSTROEM)
---------------------------------
  N     -2.128555    2.521821    3.514445
  H      1.679246   -2.252277    3.911258
  C     -4.369984    3.012164    3.505335
  C     -0.398585   -1.573233    3.873891
  N      0.090194    0.658016    3.656874
  C      0.952938   -1.459784    3.844538
  H     -0.979263   -2.475782    3.964403
  C      2.863231    1.837944    3.504098
  N     -0.259990    4.728225    3.275318
  C     -1.122589    6.846120    3.087833
  C      2.554364    0.476189    3.636610
  C      2.674824    4.026514    3.291953
  N      1.958667    2.864378    3.417427
  C      4.084464    3.720155    3.302156
  C     -0.939698   -0.240836    3.759905
  C      1.258819   -0.056992    3.704356
  C     -2.844886    1.359138    3.633884
  C     -3.032921    3.549045    3.434948
  C     -4.254377    1.666475    3.632131
  C     -2.307798    0.068574    3.749698
  C     -2.724065    4.910402    3.298449
  C      4.200194    2.374421    3.428341
  C     -1.428614    5.442928    3.224110
  C      0.228839    6.958922    3.052384
  C      2.137843    5.317243    3.178366
  C      0.769957    5.627222    3.173980
  H     -5.276937    3.591548    3.463276
  H     -5.049608    0.945070    3.716870
  H      5.107132    1.794799    3.467075
  H      4.879663    4.442261    3.223116
  H      0.809563    7.860555    2.953271
  H     -1.848755    7.639233    3.027240
  Zn    -0.084939    2.693116    3.466029
  C      3.700933   -0.486388    3.712454
  C      4.108108   -1.201821    2.584245
  C      5.172729   -2.094184    2.653906
  C      5.846616   -2.285840    3.855097
  C      5.449547   -1.579336    4.985093
  C      4.385461   -0.686546    4.913199
  H      3.586791   -1.054134    1.646319
  H      5.476059   -2.638197    1.767767
  H      6.675289   -2.980820    3.910163
  H      5.966790   -1.723515    5.925774
  H      4.078223   -0.139324    5.796054
  C     -3.273085   -1.071472    3.872955
  C     -3.904249   -1.597407    2.743545
  C     -4.799157   -2.656094    2.857020
  C     -5.078087   -3.204960    4.103867
  C     -4.456253   -2.688836    5.235517
  C     -3.560665   -1.630988    5.119913
  H     -3.688530   -1.174051    1.770133
  H     -5.276922   -3.052614    1.969493
  H     -5.775165   -4.028894    4.193026
  H     -4.668895   -3.107985    6.211378
  H     -3.079623   -1.230870    6.004100
  C     -3.870369    5.873458    3.224899
  C     -4.316851    6.357914    1.993460
  C     -5.380713    7.251143    1.923794
  C     -6.014648    7.675094    3.086596
  C     -5.578392    7.199678    4.318409
  C     -4.515144    6.305553    4.385999
  H     -3.826760    6.029067    1.085176
  H     -5.714634    7.614108    0.959461
  H     -6.842757    8.370883    3.033211
  H     -6.064513    7.525507    5.229848
  H     -4.177530    5.938797    5.347664
  C      3.103506    6.456495    3.050290
  C      3.681960    6.765339    1.817145
  C      4.578273    7.821990    1.696512
  C      4.911261    8.586480    2.809338
  C      4.341889    8.287884    4.042364
  C      3.444819    7.231565    4.160802
  H      3.424173    6.173246    0.947507
  H      5.014892    8.048106    0.731401
  H      5.609397    9.409102    2.716387
  H      4.596585    8.876241    4.915382
  H      3.004811    7.001338    5.123468

----------------------------
CARTESIAN COORDINATES (A.U.)
----------------------------
  NO LB      ZA    FRAG     MASS         X           Y           Z
   0 N     7.0000    0    14.007   -4.022387    4.765551    6.641339
   1 H     1.0000    0     1.008    3.173315   -4.256187    7.391206
   2 C     6.0000    0    12.011   -8.258072    5.692164    6.624123
   3 C     6.0000    0    12.011   -0.753217   -2.972979    7.320593
   4 N     7.0000    0    14.007    0.170443    1.243470    6.910491
   5 C     6.0000    0    12.011    1.800792   -2.758593    7.265124
   6 H     1.0000    0     1.008   -1.850539   -4.678550    7.491636
   7 C     6.0000    0    12.011    5.410722    3.473212    6.621786
   8 N     7.0000    0    14.007   -0.491309    8.935051    6.189453
   9 C     6.0000    0    12.011   -2.121387   12.937293    5.835159
  10 C     6.0000    0    12.011    4.827048    0.899866    6.872197
  11 C     6.0000    0    12.011    5.054685    7.609008    6.220890
  12 N     7.0000    0    14.007    3.701344    5.412889    6.458002
  13 C     6.0000    0    12.011    7.718518    7.030075    6.240171
  14 C     6.0000    0    12.011   -1.775772   -0.455114    7.105191
  15 C     6.0000    0    12.011    2.378823   -0.107699    7.000218
  16 C     6.0000    0    12.011   -5.376055    2.568398    6.867046
  17 C     6.0000    0    12.011   -5.731390    6.706722    6.491111
  18 C     6.0000    0    12.011   -8.039608    3.149181    6.863732
  19 C     6.0000    0    12.011   -4.361106    0.129586    7.085902
  20 C     6.0000    0    12.011   -5.147736    9.279315    6.233166
  21 C     6.0000    0    12.011    7.937216    4.487005    6.478625
  22 C     6.0000    0    12.011   -2.699689   10.285644    6.092686
  23 C     6.0000    0    12.011    0.432443   13.150456    5.768170
  24 C     6.0000    0    12.011    4.039938   10.048134    6.006241
  25 C     6.0000    0    12.011    1.455009   10.633908    5.997954
  26 H     1.0000    0     1.008   -9.971966    6.787043    6.544643
  27 H     1.0000    0     1.008   -9.542376    1.785924    7.023866
  28 H     1.0000    0     1.008    9.651080    3.391678    6.551822
  29 H     1.0000    0     1.008    9.221226    8.394656    6.090807
  30 H     1.0000    0     1.008    1.529852   14.854296    5.580874
  31 H     1.0000    0     1.008   -3.493641   14.436059    5.720654
  32 Zn   30.0000    0    65.380   -0.160511    5.089252    6.549846
  33 C     6.0000    0    12.011    6.993749   -0.919139    7.015521
  34 C     6.0000    0    12.011    7.763199   -2.271113    4.883516
  35 C     6.0000    0    12.011    9.775042   -3.957434    5.015155
  36 C     6.0000    0    12.011   11.048503   -4.319612    7.285078
  37 C     6.0000    0    12.011   10.298150   -2.984512    9.420461
  38 C     6.0000    0    12.011    8.287321   -1.297384    9.284601
  39 H     1.0000    0     1.008    6.778052   -1.992024    3.111092
  40 H     1.0000    0     1.008   10.348252   -4.985469    3.340596
  41 H     1.0000    0     1.008   12.614468   -5.632934    7.389137
  42 H     1.0000    0     1.008   11.275599   -3.256971   11.198090
  43 H     1.0000    0     1.008    7.706724   -0.263284   10.952955
  44 C     6.0000    0    12.011   -6.185235   -2.024788    7.318825
  45 C     6.0000    0    12.011   -7.377961   -3.018662    5.184549
  46 C     6.0000    0    12.011   -9.069092   -5.019291    5.398985
  47 C     6.0000    0    12.011   -9.596194   -6.056498    7.755184
  48 C     6.0000    0    12.011   -8.421097   -5.081163    9.893693
  49 C     6.0000    0    12.011   -6.728682   -3.082121    9.675233
  50 H     1.0000    0     1.008   -6.970311   -2.218636    3.345067
  51 H     1.0000    0     1.008   -9.971937   -5.768605    3.721803
  52 H     1.0000    0     1.008  -10.913481   -7.613507    7.923671
  53 H     1.0000    0     1.008   -8.822933   -5.873241   11.737804
  54 H     1.0000    0     1.008   -5.819644   -2.326007   11.346104
  55 C     6.0000    0    12.011   -7.313938   11.099227    6.094176
  56 C     6.0000    0    12.011   -8.157666   12.014716    3.767093
  57 C     6.0000    0    12.011  -10.168074   13.702674    3.635443
  58 C     6.0000    0    12.011  -11.366038   14.503826    5.832822
  59 C     6.0000    0    12.011  -10.541634   13.605420    8.160611
  60 C     6.0000    0    12.011   -8.532386   11.915768    8.288337
  61 H     1.0000    0     1.008   -7.231528   11.393285    2.050685
  62 H     1.0000    0     1.008  -10.799093   14.388579    1.813119
  63 H     1.0000    0     1.008  -12.930936   15.818676    5.731938
  64 H     1.0000    0     1.008  -11.460269   14.221147    9.882980
  65 H     1.0000    0     1.008   -7.894387   11.222699   10.105620
  66 C     6.0000    0    12.011    5.864777   12.201007    5.764212
  67 C     6.0000    0    12.011    6.957897   12.784638    3.433906
  68 C     6.0000    0    12.011    8.651682   14.781419    3.205944
  69 C     6.0000    0    12.011    9.280939   16.226096    5.308880
  70 C     6.0000    0    12.011    8.204982   15.661831    7.638960
  71 C     6.0000    0    12.011    6.509765   13.665678    7.862776
  72 H     1.0000    0     1.008    6.470749   11.665745    1.790528
  73 H     1.0000    0     1.008    9.476772   15.208716    1.382147
  74 H     1.0000    0     1.008   10.600223   17.780626    5.133228
  75 H     1.0000    0     1.008    8.686286   16.773664    9.288725
  76 H     1.0000    0     1.008    5.678270   13.230612    9.681952

--------------------------------
INTERNAL COORDINATES (ANGSTROEM)
--------------------------------
 N      0   0   0     0.000000000000     0.00000000     0.00000000
 H      1   0   0     6.119544609553     0.00000000     0.00000000
 C      1   2   0     2.294454011207   140.79010051     0.00000000
 C      2   1   3     2.186293848341    33.40707509     0.34106114
 N      4   2   1     2.294443978057    95.80796136     0.08486163
 C      2   1   3     1.077042165850     3.92469267     1.90384846
 H      4   2   1     1.077021274757   104.51838878   179.96426994
 C      5   4   2     3.017499182404   125.50798452     0.13061668
 N      1   2   6     2.901196304498   101.41364134   181.77715198
 C      9   1   2     2.294495465089   117.81272053   180.03507050
 C      8   5   4     1.402617980696    54.07062945     0.00000000
 C      8   5   4     2.206884295453   108.31219866   179.74476543
 N     12   8   5     1.370833715702    36.39735210     0.13465003
 C     12   8   5     1.442582406246    72.85996634   180.04197634
 C      5   4   2     1.370849417385    36.41075581   180.34190992
 C      5   4   2     1.370829614730    70.79837857     0.21995082
 C      1   2   6     1.370849005387    69.99043058     1.66869440
 C      1   2   6     1.370906814200   177.19264341     5.66720204
 C      3   1   2     1.356583829775    72.80577004   359.93688133
 C     17   1   2     1.402651632840   125.97826882     0.08625359
 C     18   1  17     1.402611239747   125.98998775   180.28256348
 C     14  12   8     1.356582980699   107.13889860     0.18750469
 C      9   1   2     1.370804714242    81.40314079   179.95801682
 C     10   9   1     1.356590912637    72.80488243   180.14705619
 C     12   8   5     1.402580997285   162.38014338     0.78404173
 C      9   1   2     1.370859177061   171.38959537   359.93854590
 H      3   1   2     1.077042372642   159.67446324   180.23012340
 H     19   3   1     1.077031692090   127.50718792   179.84585378
 H     22  14  12     1.077032466449   127.52044500   179.72372799
 H     14  12   8     1.077044478741   125.34893106   180.19721276
 H     24  10   9     1.077036063129   127.52799022   179.86496916
 H     10   9   1     1.077040772020   159.68056758     0.49314505
 Zn    13  12   8     2.051345186941   126.39861605   180.01176353
 C     11   8   5     1.498975002703   117.37364575   180.12231805
 C     34  11   8     1.396599935545   120.73632797   260.81551720
 C     35  34  11     1.390892457345   120.75428931   179.94132756
 C     36  35  34     1.390581203293   120.17332090     0.05878968
 C     37  36  35     1.390576738799   119.57323724   359.97035164
 C     38  37  36     1.390870129530   120.17050613   359.97317460
 H     35  34  11     1.083185036027   119.29663277     0.09915726
 H     36  35  34     1.083143891364   119.71019389   180.16833060
 H     37  36  35     1.082925347053   120.21223093   179.97018105
 H     38  37  36     1.083147890456   120.11518343   179.85977205
 H     39  38  37     1.083181015268   119.94417075   179.90157384
 C     20  17   1     1.498891322754   117.38766669   179.87846531
 C     45  20  17     1.396618301307   120.72790326    80.31698157
 C     46  45  20     1.390883017252   120.75931779   179.94064434
 C     47  46  45     1.390569495532   120.17530433     0.06871198
 C     48  47  46     1.390573492617   119.57043939   359.97534587
 C     49  48  47     1.390856522021   120.17190858   359.96242902
 H     46  45  20     1.083187714850   119.31007218     0.11809285
 H     47  46  45     1.083139294676   119.70943531   180.17217182
 H     48  47  46     1.082928842322   120.21506749   179.96593587
 H     49  48  47     1.083147786706   120.11748509   179.84687948
 H     50  49  48     1.083181818228   119.93804654   179.90374115
 C     21  18   1     1.498966613937   117.38477927   179.77788255
 C     56  21  18     1.396597916529   120.70436538   261.16713757
 C     57  56  21     1.390867761343   120.76155285   179.97461334
 C     58  57  56     1.390582407448   120.17252421     0.05374361
 C     59  58  57     1.390576502422   119.56944005   359.96659070
 C     60  59  58     1.390872249240   120.17565657   359.97513983
 H     57  56  21     1.083194334658   119.30159898     0.11782789
 H     58  57  56     1.083136238093   119.71008709   180.15439003
 H     59  58  57     1.082929025331   120.21640663   179.97293344
 H     60  59  58     1.083142601943   120.11639336   179.88210610
 H     61  60  59     1.083186648078   119.93877736   179.91030740
 C     25  12   8     1.498934038660   117.36800041   179.52270751
 C     67  25  12     1.396653150260   120.68608494    81.09904729
 C     68  67  25     1.390841400961   120.76286134   180.00642566
 C     69  68  67     1.390578103786   120.17054410     0.05654456
 C     70  69  68     1.390573869412   119.57064401   359.96777865
 C     71  70  69     1.390888841300   120.17630173   359.97413960
 H     68  67  25     1.083189189182   119.30217305     0.15139686
 H     69  68  67     1.083145817904   119.71294294   180.15434617
 H     70  69  68     1.082931006480   120.21854136   179.97246096
 H     71  70  69     1.083140727035   120.11703831   179.87054230
 H     72  71  70     1.083207787092   119.93930250   179.90074954

---------------------------
INTERNAL COORDINATES (A.U.)
---------------------------
 N      0   0   0     0.000000000000     0.00000000     0.00000000
 H      1   0   0    11.564263376369     0.00000000     0.00000000
 C      1   2   0     4.335889708059   140.79010051     0.00000000
 C      2   1   3     4.131496621641    33.40707509     0.34106114
 N      4   2   1     4.335870748152    95.80796136     0.08486163
 C      2   1   3     2.035314728142     3.92469267     1.90384846
 H      4   2   1     2.035275249697   104.51838878   179.96426994
 C      5   4   2     5.702247064074   125.50798452     0.13061668
 N      1   2   6     5.482466476246   101.41364134   181.77715198
 C      9   1   2     4.335968044542   117.81272053   180.03507050
 C      8   5   4     2.650563854029    54.07062945     0.00000000
 C      8   5   4     4.170406927659   108.31219866   179.74476543
 N     12   8   5     2.590500297822    36.39735210     0.13465003
 C     12   8   5     2.726085673418    72.85996634   180.04197634
 C      5   4   2     2.590529969703    36.41075581   180.34190992
 C      5   4   2     2.590492548109    70.79837857     0.21995082
 C      1   2   6     2.590529191139    69.99043058     1.66869440
 C      1   2   6     2.590638433964   177.19264341     5.66720204
 C      3   1   2     2.563571915982    72.80577004   359.93688133
 C     17   1   2     2.650627447364   125.97826882     0.08625359
 C     18   1  17     2.650551115482   125.98998775   180.28256348
 C     14  12   8     2.563570311459   107.13889860     0.18750469
 C      9   1   2     2.590445493005    81.40314079   179.95801682
 C     10   9   1     2.563585300650    72.80488243   180.14705619
 C     12   8   5     2.650493965511   162.38014338     0.78404173
 C      9   1   2     2.590548412818   171.38959537   359.93854590
 H      3   1   2     2.035315118921   159.67446324   180.23012340
 H     19   3   1     2.035294935605   127.50718792   179.84585378
 H     22  14  12     2.035296398930   127.52044500   179.72372799
 H     14  12   8     2.035319098873   125.34893106   180.19721276
 H     24  10   9     2.035303195671   127.52799022   179.86496916
 H     10   9   1     2.035312094185   159.68056758     0.49314505
 Zn    13  12   8     3.876480609456   126.39861605   180.01176353
 C     11   8   5     2.832652236702   117.37364575   180.12231805
 C     34  11   8     2.639191396832   120.73632797   260.81551720
 C     35  34  11     2.628405826120   120.75428931   179.94132756
 C     36  35  34     2.627817641202   120.17332090     0.05878968
 C     37  36  35     2.627809204532   119.57323724   359.97035164
 C     38  37  36     2.628363632663   120.17050613   359.97317460
 H     35  34  11     2.046923070452   119.29663277     0.09915726
 H     36  35  34     2.046845318308   119.71019389   180.16833060
 H     37  36  35     2.046432329411   120.21223093   179.97018105
 H     38  37  36     2.046852875496   120.11518343   179.85977205
 H     39  38  37     2.046915472320   119.94417075   179.90157384
 C     20  17   1     2.832494104516   117.38766669   179.87846531
 C     45  20  17     2.639226103092   120.72790326    80.31698157
 C     46  45  20     2.628387986927   120.75931779   179.94064434
 C     47  46  45     2.627795516741   120.17530433     0.06871198
 C     48  47  46     2.627803070137   119.57043939   359.97534587
 C     49  48  47     2.628337918197   120.17190858   359.96242902
 H     46  45  20     2.046928132695   119.31007218     0.11809285
 H     47  46  45     2.046836631826   119.70943531   180.17217182
 H     48  47  46     2.046438934513   120.21506749   179.96593587
 H     49  48  47     2.046852679437   120.11748509   179.84687948
 H     50  49  48     2.046916989694   119.93804654   179.90374115
 C     21  18   1     2.832636384232   117.38477927   179.77788255
 C     56  21  18     2.639187581444   120.70436538   261.16713757
 C     57  56  21     2.628359157438   120.76155285   179.97461334
 C     58  57  56     2.627819916726   120.17252421     0.05374361
 C     59  58  57     2.627808757843   119.56944005   359.96659070
 C     60  59  58     2.628367638335   120.17565657   359.97513983
 H     57  56  21     2.046940642318   119.30159898     0.11782789
 H     58  57  56     2.046830855722   119.71008709   180.15439003
 H     59  58  57     2.046439280351   120.21640663   179.97293344
 H     60  59  58     2.046842881654   120.11639336   179.88210610
 H     61  60  59     2.046926116788   119.93877736   179.91030740
 C     25  12   8     2.832574825879   117.36800041   179.52270751
 C     67  25  12     2.639291958070   120.68608494    81.09904729
 C     68  67  25     2.628309343536   120.76286134   180.00642566
 C     69  68  67     2.627811783983   120.17054410     0.05654456
 C     70  69  68     2.627803782176   119.57064401   359.96777865
 C     71  70  69     2.628398992784   120.17630173   359.97413960
 H     68  67  25     2.046930918777   119.30217305     0.15139686
 H     69  68  67     2.046848958941   119.71294294   180.15434617
 H     70  69  68     2.046443024179   120.21854136   179.97246096
 H     71  70  69     2.046839338592   120.11703831   179.87054230
 H     72  71  70     2.046966063735   119.93930250   179.90074954

---------------------
BASIS SET INFORMATION
---------------------
There are 4 groups of distinct atoms

 Group   1 Type N   : 11s6p2d1f contracted to 5s3p2d1f pattern {62111/411/11/1}
 Group   2 Type H   : 5s1p contracted to 3s1p pattern {311/1}
 Group   3 Type C   : 11s6p2d1f contracted to 5s3p2d1f pattern {62111/411/11/1}
 Group   4 Type Zn  : 17s12p7d1f contracted to 6s5p4d1f pattern {842111/63111/4111/1}

Atom   0N    basis set group =>   1
Atom   1H    basis set group =>   2
Atom   2C    basis set group =>   3
Atom   3C    basis set group =>   3
Atom   4N    basis set group =>   1
Atom   5C    basis set group =>   3
Atom   6H    basis set group =>   2
Atom   7C    basis set group =>   3
Atom   8N    basis set group =>   1
Atom   9C    basis set group =>   3
Atom  10C    basis set group =>   3
Atom  11C    basis set group =>   3
Atom  12N    basis set group =>   1
Atom  13C    basis set group =>   3
Atom  14C    basis set group =>   3
Atom  15C    basis set group =>   3
Atom  16C    basis set group =>   3
Atom  17C    basis set group =>   3
Atom  18C    basis set group =>   3
Atom  19C    basis set group =>   3
Atom  20C    basis set group =>   3
Atom  21C    basis set group =>   3
Atom  22C    basis set group =>   3
Atom  23C    basis set group =>   3
Atom  24C    basis set group =>   3
Atom  25C    basis set group =>   3
Atom  26H    basis set group =>   2
Atom  27H    basis set group =>   2
Atom  28H    basis set group =>   2
Atom  29H    basis set group =>   2
Atom  30H    basis set group =>   2
Atom  31H    basis set group =>   2
Atom  32Zn   basis set group =>   4
Atom  33C    basis set group =>   3
Atom  34C    basis set group =>   3
Atom  35C    basis set group =>   3
Atom  36C    basis set group =>   3
Atom  37C    basis set group =>   3
Atom  38C    basis set group =>   3
Atom  39H    basis set group =>   2
Atom  40H    basis set group =>   2
Atom  41H    basis set group =>   2
Atom  42H    basis set group =>   2
Atom  43H    basis set group =>   2
Atom  44C    basis set group =>   3
Atom  45C    basis set group =>   3
Atom  46C    basis set group =>   3
Atom  47C    basis set group =>   3
Atom  48C    basis set group =>   3
Atom  49C    basis set group =>   3
Atom  50H    basis set group =>   2
Atom  51H    basis set group =>   2
Atom  52H    basis set group =>   2
Atom  53H    basis set group =>   2
Atom  54H    basis set group =>   2
Atom  55C    basis set group =>   3
Atom  56C    basis set group =>   3
Atom  57C    basis set group =>   3
Atom  58C    basis set group =>   3
Atom  59C    basis set group =>   3
Atom  60C    basis set group =>   3
Atom  61H    basis set group =>   2
Atom  62H    basis set group =>   2
Atom  63H    basis set group =>   2
Atom  64H    basis set group =>   2
Atom  65H    basis set group =>   2
Atom  66C    basis set group =>   3
Atom  67C    basis set group =>   3
Atom  68C    basis set group =>   3
Atom  69C    basis set group =>   3
Atom  70C    basis set group =>   3
Atom  71C    basis set group =>   3
Atom  72H    basis set group =>   2
Atom  73H    basis set group =>   2
Atom  74H    basis set group =>   2
Atom  75H    basis set group =>   2
Atom  76H    basis set group =>   2
---------------------------------
AUXILIARY/J BASIS SET INFORMATION
---------------------------------
There are 4 groups of distinct atoms

 Group   1 Type N   : 12s5p4d2f1g contracted to 6s4p3d1f1g pattern {711111/2111/211/2/1}
 Group   2 Type H   : 5s2p1d contracted to 3s1p1d pattern {311/2/1}
 Group   3 Type C   : 12s5p4d2f1g contracted to 6s4p3d1f1g pattern {711111/2111/211/2/1}
 Group   4 Type Zn  : 19s5p5d3f3g contracted to 8s5p5d2f3g pattern {121111111/11111/11111/21/111}

Atom   0N    basis set group =>   1
Atom   1H    basis set group =>   2
Atom   2C    basis set group =>   3
Atom   3C    basis set group =>   3
Atom   4N    basis set group =>   1
Atom   5C    basis set group =>   3
Atom   6H    basis set group =>   2
Atom   7C    basis set group =>   3
Atom   8N    basis set group =>   1
Atom   9C    basis set group =>   3
Atom  10C    basis set group =>   3
Atom  11C    basis set group =>   3
Atom  12N    basis set group =>   1
Atom  13C    basis set group =>   3
Atom  14C    basis set group =>   3
Atom  15C    basis set group =>   3
Atom  16C    basis set group =>   3
Atom  17C    basis set group =>   3
Atom  18C    basis set group =>   3
Atom  19C    basis set group =>   3
Atom  20C    basis set group =>   3
Atom  21C    basis set group =>   3
Atom  22C    basis set group =>   3
Atom  23C    basis set group =>   3
Atom  24C    basis set group =>   3
Atom  25C    basis set group =>   3
Atom  26H    basis set group =>   2
Atom  27H    basis set group =>   2
Atom  28H    basis set group =>   2
Atom  29H    basis set group =>   2
Atom  30H    basis set group =>   2
Atom  31H    basis set group =>   2
Atom  32Zn   basis set group =>   4
Atom  33C    basis set group =>   3
Atom  34C    basis set group =>   3
Atom  35C    basis set group =>   3
Atom  36C    basis set group =>   3
Atom  37C    basis set group =>   3
Atom  38C    basis set group =>   3
Atom  39H    basis set group =>   2
Atom  40H    basis set group =>   2
Atom  41H    basis set group =>   2
Atom  42H    basis set group =>   2
Atom  43H    basis set group =>   2
Atom  44C    basis set group =>   3
Atom  45C    basis set group =>   3
Atom  46C    basis set group =>   3
Atom  47C    basis set group =>   3
Atom  48C    basis set group =>   3
Atom  49C    basis set group =>   3
Atom  50H    basis set group =>   2
Atom  51H    basis set group =>   2
Atom  52H    basis set group =>   2
Atom  53H    basis set group =>   2
Atom  54H    basis set group =>   2
Atom  55C    basis set group =>   3
Atom  56C    basis set group =>   3
Atom  57C    basis set group =>   3
Atom  58C    basis set group =>   3
Atom  59C    basis set group =>   3
Atom  60C    basis set group =>   3
Atom  61H    basis set group =>   2
Atom  62H    basis set group =>   2
Atom  63H    basis set group =>   2
Atom  64H    basis set group =>   2
Atom  65H    basis set group =>   2
Atom  66C    basis set group =>   3
Atom  67C    basis set group =>   3
Atom  68C    basis set group =>   3
Atom  69C    basis set group =>   3
Atom  70C    basis set group =>   3
Atom  71C    basis set group =>   3
Atom  72H    basis set group =>   2
Atom  73H    basis set group =>   2
Atom  74H    basis set group =>   2
Atom  75H    basis set group =>   2
Atom  76H    basis set group =>   2


           ************************************************************
           *        Program running with 8 parallel MPI-processes     *
           *              working on a common directory               *
           ************************************************************
------------------------------------------------------------------------------
                             ORCA STARTUP CALCULATIONS
                           -- RI-GTO INTEGRALS CHOSEN --
------------------------------------------------------------------------------
------------------------------------------------------------------------------
                   ___                                                        
                  /   \      - P O W E R E D   B Y -                         
                 /     \                                                     
                 |  |  |   _    _      __       _____    __    __             
                 |  |  |  | |  | |    /  \     |  _  \  |  |  /  |          
                  \  \/   | |  | |   /    \    | | | |  |  | /  /          
                 / \  \   | |__| |  /  /\  \   | |_| |  |  |/  /          
                |  |  |   |  __  | /  /__\  \  |    /   |      \           
                |  |  |   | |  | | |   __   |  |    \   |  |\   \          
                \     /   | |  | | |  |  |  |  | |\  \  |  | \   \       
                 \___/    |_|  |_| |__|  |__|  |_| \__\ |__|  \__/        
                                                                              
                      - O R C A' S   B I G   F R I E N D -                    
                                      &                                       
                       - I N T E G R A L  F E E D E R -                       
                                                                              
 v1 FN, 2020, v2 2021, v3 2022-2024                                           
------------------------------------------------------------------------------


----------------------
SHARK INTEGRAL PACKAGE
----------------------

Number of atoms                             ...     77
Number of basis functions                   ...   1704
Number of shells                            ...    656
Maximum angular momentum                    ...      3
Integral batch strategy                     ... SHARK/LIBINT Hybrid
RI-J (if used) integral strategy            ... SPLIT-RIJ (Revised 2003 algorithm where possible)
Printlevel                                  ...      1
Contraction scheme used                     ... SEGMENTED contraction
Prescreening option                         ... SCHWARTZ
   Thresh                                   ... 2.500e-11
   Tcut                                     ... 2.500e-12
   Tpresel                                  ... 2.500e-12 
Coulomb Range Separation                    ... NOT USED
Exchange Range Separation                   ... NOT USED
Multipole approximations                    ... NOT USED
Finite Nucleus Model                        ... NOT USED
CABS basis                                  ... NOT available
Auxiliary Coulomb fitting basis             ... AVAILABLE
   # of basis functions in Aux-J            ...   2749
   # of shells in Aux-J                     ...    883
   Maximum angular momentum in Aux-J        ...      4
Auxiliary J/K fitting basis                 ... NOT available
Auxiliary Correlation fitting basis         ... NOT available
Auxiliary 'external' fitting basis          ... NOT available

Checking pre-screening integrals            ... done (  0.0 sec) Dimension = 656
   => SHARK Basis and OBASIS are compatible. Storing Pre-screening
Shell pair information
Shell pair cut-off parameter TPreSel        ...   2.5e-12
Total number of shell pairs                 ...    215496
Shell pairs after pre-screening             ...    104313
Total number of primitive shell pairs       ...    680394
Primitive shell pairs kept                  ...    202009
          la=0 lb=0:  24656 shell pairs
          la=1 lb=0:  30604 shell pairs
          la=1 lb=1:   9373 shell pairs
          la=2 lb=0:  14863 shell pairs
          la=2 lb=1:   9372 shell pairs
          la=2 lb=2:   2256 shell pairs
          la=3 lb=0:   6615 shell pairs
          la=3 lb=1:   4225 shell pairs
          la=3 lb=2:   1902 shell pairs
          la=3 lb=3:    447 shell pairs

Checking whether 4 symmetric matrices of dimension 1704 fit in memory
:Max Core in MB      =   3000.00
 MB in use           =    127.60
 MB left             =   2872.40
 MB needed           =     44.33
 Data fit in memory  = YES
Calculating RI/J V-Matrix + Cholesky decomp.... done (  0.6 sec)
Calculating Nuclear repulsion               ... done (  0.0 sec) ENN=   6465.853143938957 Eh

Diagonalization of the overlap matrix:
Smallest eigenvalue                        ... 2.950e-06
Time for diagonalization                   ...    0.640 sec
Threshold for overlap eigenvalues          ... 1.000e-07
Number of eigenvalues below threshold      ... 0
Time for construction of square roots      ...    0.597 sec
Total time needed                          ...    1.296 sec

-------------------
DFT GRID GENERATION
-------------------

General Integration Accuracy     IntAcc      ... 4.959
Radial Grid Type                 RadialGrid  ... OptM3 with GC (2021)
Angular Grid (max. ang.)         AngularGrid ... 6 (Lebedev-590)
Angular grid pruning method      GridPruning ... 4 (adaptive)
Weight generation scheme         WeightScheme... mBecke (2022)
Basis function cutoff            BFCut       ... 1.0000e-11
Integration weight cutoff        WCut        ... 1.0000e-14
Partially contracted basis set               ... off
Rotationally invariant grid construction     ... off
Angular grids for H and He will be reduced by one unit
Core-polarized basis detected: some atoms will have their core
                               angular grid increased.

Total number of grid points                  ...   939385
Total number of batches                      ...    14718
Average number of points per batch           ...       63
Average number of grid points per atom       ...    12200
Grids setup in  17.2 sec
Initializing property integral containers    ... done (  0.0 sec)

SHARK setup successfully completed in  21.4 seconds

Maximum memory used throughout the entire STARTUP-calculation: 343.3 MB


           ************************************************************
           *        Program running with 8 parallel MPI-processes     *
           *              working on a common directory               *
           ************************************************************
-------------------------------------------------------------------------------
                                 ORCA GUESS
                   Start orbitals & Density for SCF / CASSCF
-------------------------------------------------------------------------------

------------
SCF SETTINGS
------------
Hamiltonian:
 Density Functional     Method          .... DFT(GTOs)
 Exchange Functional    Exchange        .... B88
   X-Alpha parameter    XAlpha          ....  0.666667
   Becke's b parameter  XBeta           ....  0.004200
 Correlation Functional Correlation     .... P86
 LDA part of GGA corr.  LDAOpt          .... PW91-LDA
 Gradients option       PostSCFGGA      .... off
   NL short-range parameter             ....  4.400000
 RI-approximation to the Coulomb term is turned on
   Number of AuxJ basis functions       .... 2749


General Settings:
 Integral files         IntName         .... tddft
 Hartree-Fock type      HFTyp           .... RHF
 Total Charge           Charge          ....    0
 Multiplicity           Mult            ....    1
 Number of Electrons    NEL             ....  350
 Basis Dimension        Dim             .... 1704
 Nuclear Repulsion      ENuc            ....   6465.8531439390 Eh

Convergence Acceleration:
 AO-DIIS                CNVDIIS         .... on
   Start iteration      DIISMaxIt       ....    12
   Startup error        DIISStart       ....  0.200000
   # of expansion vecs  DIISMaxEq       ....     5
   Bias factor          DIISBfac        ....   1.050
   Max. coefficient     DIISMaxC        ....  10.000
 MO-DIIS                CNVKDIIS        .... off
 Trust-Rad. Augm. Hess. CNVTRAH         .... auto
   Auto Start mean grad. ratio tolernc. ....  1.125000
   Auto Start start iteration           ....    50
   Auto Start num. interpolation iter.  ....    10
   Max. Number of Micro iterations      ....    24
   Max. Number of Macro iterations      .... Maxiter - #DIIS iter
   Number of Davidson start vectors     ....     2
   Converg. threshold    (grad. norm)   ....   1.000e-05
   Grad. Scal. Fac. for Micro threshold ....   0.100
   Minimum threshold for Micro iter.    ....   1.000e-02
   NR start threshold (gradient norm)   ....   1.000e-04
   Initial trust radius                 ....   0.400
   Minimum AH scaling param. (alpha)    ....   1.000
   Maximum AH scaling param. (alpha)    .... 1000.000
   Quad. conv. algorithm                .... NR
   White noise on init. David. guess    .... on
   Maximum white noise                  ....   0.010
   Pseudo random numbers                .... off
   Inactive MOs                         .... canonical
   Orbital update algorithm             .... Taylor
   Preconditioner                       .... Diag
   Full preconditioner red. dimension   ....   250
 SOSCF                 CNVSOSCF           .... on
   Start iteration     SOSCFMaxIt         ....   150
   Startup grad/error  SOSCFStart         ....  0.003300
   Hessian update      SOSCFHessUp        .... L-BFGS
   Autom. constraints  SOSCFAutoConstrain .... off
 Level Shifting         CNVShift        .... on
   Level shift para.    LevelShift      ....    0.2500
   Turn off err/grad.   ShiftErr        ....    0.0010
 Zerner damping         CNVZerner       .... off
 Static damping         CNVDamp         .... on
   Fraction old density DampFac         ....    0.7000
   Max. Damping (<1)    DampMax         ....    0.9800
   Min. Damping (>=0)   DampMin         ....    0.0000
   Turn off err/grad.   DampErr         ....    0.1000

SCF Procedure:
 Maximum # iterations   MaxIter         ....   125
 SCF integral mode      SCFMode         .... Direct
   Integral package                     .... SHARK and LIBINT hybrid scheme
 Reset frequency        DirectResetFreq ....    20
 Integral Threshold     Thresh          ....  2.500e-11 Eh
 Primitive CutOff       TCut            ....  2.500e-12 Eh

Convergence Tolerance:
 Convergence Check Mode ConvCheckMode   .... Total+1el-Energy
 Convergence forced     ConvForced      .... 1
 Energy Change          TolE            ....  1.000e-08 Eh
 1-El. energy change                    ....  1.000e-05 Eh
 Orbital Gradient       TolG            ....  1.000e-05
 Orbital Rotation angle TolX            ....  1.000e-05
 DIIS Error             TolErr          ....  5.000e-07

------------------------------
INITIAL GUESS: MODEL POTENTIAL
------------------------------
Loading Hartree-Fock densities                     ... done
Calculating cut-offs                               ... done
Initializing the effective Hamiltonian             ... done
Setting up the integral package (SHARK)            ... done
Starting the Coulomb interaction                   ... done (   5.4 sec)
Making the grid                                    ... done (   1.5 sec)
Mapping shells                                     ... done
Starting the XC term evaluation                    ... done (   1.5 sec)
  promolecular density results
     # of electrons  =    349.984735077
     EX              =   -330.949406009
     EC              =    -13.405220147
     EX+EC           =   -344.354626156
Transforming the Hamiltonian                       ... done (   0.4 sec)
Diagonalizing the Hamiltonian                      ... done (   0.7 sec)
Back transforming the eigenvectors                 ... done (   0.2 sec)
Now organizing SCF variables                       ... done
                      ------------------
                      INITIAL GUESS DONE (  10.0 sec)
                      ------------------
             **** ENERGY FILE WAS UPDATED (tddft.en.tmp) ****
Finished Guess after  12.1 sec
Maximum memory used throughout the entire GUESS-calculation: 208.9 MB


           ************************************************************
           *        Program running with 8 parallel MPI-processes     *
           *              working on a common directory               *
           ************************************************************

-------------------------------------------------------------------------------------------
                                      ORCA LEAN-SCF
                              memory conserving SCF solver
-------------------------------------------------------------------------------------------

--------------------
CPCM SOLVATION MODEL
--------------------
CPCM parameters:
  Epsilon                                         ...       2.3870
  Refrac                                          ...       1.4961
  Rsolv                                           ...       1.3000
  Surface type                                    ... GAUSSIAN VDW
  Discretization scheme                           ... Constant charge density
    Threshold for H atoms                         ...       5.0000 (charges/Ang^2)
    Threshold for non-H atoms                     ...       5.0000 (charges/Ang^2)
  Epsilon function type                           ...         CPCM
Solvent:                                          ... TOLUENE
Radii:
  Scheme                                          ... Element-dependent radii
  Radius for N  used is    3.5149 Bohr (=   1.8600 Ang.)
  Radius for H  used is    2.4944 Bohr (=   1.3200 Ang.)
  Radius for C  used is    3.8550 Bohr (=   2.0400 Ang.)
  Radius for Zn used is    3.1521 Bohr (=   1.6680 Ang.)
Calculating surface                               ...        done! (  0.1s)
Cavity surface points                             ...         6832
Cavity Volume                                     ...    4920.2253
Cavity Surface-area                               ...    2294.3185
Calculating surface distance matrix               ...        done! (  1.4s)
Performing Cholesky decomposition & store         ...        done! (  4.6s)
Overall time for CPCM initialization              ...                 6.0s

----------------------------------------D-I-I-S--------------------------------------------
Iteration    Energy (Eh)           Delta-E    RMSDP     MaxDP     DIISErr   Damp  Time(sec)
-------------------------------------------------------------------------------------------
               ***  Starting incremental Fock matrix formation  ***
    1    -3692.0452095883156289     0.00e+00  3.08e-03  1.83e-01  3.14e-01  0.700  34.1
Warning: op=0 Small HOMO/LUMO gap (   0.070) - skipping pre-diagonalization
         Will do a full diagonalization
    2    -3692.4960534125839331    -4.51e-01  1.90e-03  7.86e-02  7.73e-02  0.700  30.6
                               ***Turning on AO-DIIS***
    3    -3692.6672525039593893    -1.71e-01  8.67e-04  3.18e-02  3.46e-02  0.700  28.1
    4    -3692.7680191339004523    -1.01e-01  1.60e-03  1.03e-01  1.13e-02  0.000  39.2
    5    -3692.9905561048999516    -2.23e-01  4.67e-04  1.83e-02  2.23e-02  0.000  36.7
    6    -3692.9921765041181061    -1.62e-03  2.09e-04  5.79e-03  2.53e-02  0.000  26.0
    7    -3692.9927385244427569    -5.62e-04  8.53e-05  1.60e-03  3.95e-03  0.000  25.2
                              *** Initializing SOSCF ***
---------------------------------------S-O-S-C-F--------------------------------------
Iteration    Energy (Eh)           Delta-E    RMSDP     MaxDP     MaxGrad    Time(sec)
--------------------------------------------------------------------------------------
    8    -3692.9927665727664134    -2.80e-05  3.34e-05  8.30e-04  3.31e-04    31.5
               *** Restarting incremental Fock matrix formation ***
    9    -3692.9927723763721588    -5.80e-06  4.58e-05  9.54e-04  2.30e-04    49.8
   10    -3692.9927735064811714    -1.13e-06  3.71e-05  1.23e-03  1.17e-04    21.7
   11    -3692.9927739862214366    -4.80e-07  2.06e-05  5.10e-04  9.07e-05    21.4
   12    -3692.9927741700139450    -1.84e-07  2.67e-05  1.50e-03  2.15e-05    22.0
   13    -3692.9927740900293429     8.00e-08  1.38e-05  4.89e-04  2.44e-05    29.8
   14    -3692.9927741624323971    -7.24e-08  3.15e-05  1.21e-03  7.98e-06    35.3
   15    -3692.9927741613937542     1.04e-09  1.73e-05  6.00e-04  8.69e-06    19.8
                 **** Energy Check signals convergence ****

               *****************************************************
               *                     SUCCESS                       *
               *           SCF CONVERGED AFTER  15 CYCLES          *
               *****************************************************

             **** ENERGY FILE WAS UPDATED (tddft.en.tmp) ****

----------------
TOTAL SCF ENERGY
----------------

Total Energy       :      -3692.99277427581546 Eh         -100491.44227 eV

Components:
Nuclear Repulsion  :       6465.85314393895715 Eh          175944.80891 eV
Electronic Energy  :     -10158.83335297515077 Eh         -276435.90926 eV
One Electron Energy:     -17955.69139435597026 Eh         -488599.20274 eV
Two Electron Energy:       7796.85804138082040 Eh          212163.29348 eV
CPCM Dielectric    :         -0.01256523962168 Eh              -0.34192 eV

Virial components:
Potential Energy   :      -7374.95905014219625 Eh         -200682.83827 eV
Kinetic Energy     :       3681.96627586638078 Eh          100191.39600 eV
Virial Ratio       :          2.00299473096256

DFT components:
N(Alpha)           :      174.999975024637 electrons
N(Beta)            :      174.999975024637 electrons
N(Total)           :      349.999950049274 electrons
E(X)               :     -335.596786091758 Eh       
E(C)               :      -13.385056819270 Eh       
E(XC)              :     -348.981842911028 Eh       

CPCM Solvation Model Properties:
Surface-charge          :         -0.05070158232158
Corrected charge        :          0.00000000000000
Outlying charge corr.   :          0.00005860722242 Eh               0.00159 eV
Free-energy (cav+disp)  :  This term is not implemented in the current solvation scheme

---------------
SCF CONVERGENCE
---------------

  Last Energy change         ...   -1.0386e-09  Tolerance :   1.0000e-08
  Last MAX-Density change    ...    6.0019e-04  Tolerance :   1.0000e-07
  Last RMS-Density change    ...    1.7337e-05  Tolerance :   5.0000e-09
  Last DIIS Error            ...    3.3059e-04  Tolerance :   5.0000e-07
  Last Orbital Gradient      ...    8.6882e-06  Tolerance :   1.0000e-05
  Last Orbital Rotation      ...    2.2726e-05  Tolerance :   1.0000e-05


----------------
ORBITAL ENERGIES
----------------

  NO   OCC          E(Eh)            E(eV) 
   0   2.0000    -345.782720     -9409.2262 
   1   2.0000     -41.630852     -1132.8331 
   2   2.0000     -36.702738      -998.7323 
   3   2.0000     -36.694244      -998.5011 
   4   2.0000     -36.694243      -998.5011 
   5   2.0000     -14.001911      -381.0114 
   6   2.0000     -14.001897      -381.0110 
   7   2.0000     -14.001884      -381.0106 
   8   2.0000     -14.001868      -381.0102 
   9   2.0000      -9.934335      -270.3270 
  10   2.0000      -9.934317      -270.3265 
  11   2.0000      -9.934311      -270.3264 
  12   2.0000      -9.934299      -270.3260 
  13   2.0000      -9.934286      -270.3257 
  14   2.0000      -9.934279      -270.3255 
  15   2.0000      -9.934273      -270.3253 
  16   2.0000      -9.934267      -270.3251 
  17   2.0000      -9.921523      -269.9784 
  18   2.0000      -9.921497      -269.9777 
  19   2.0000      -9.921490      -269.9775 
  20   2.0000      -9.921475      -269.9771 
  21   2.0000      -9.915440      -269.8129 
  22   2.0000      -9.915426      -269.8125 
  23   2.0000      -9.915424      -269.8124 
  24   2.0000      -9.915414      -269.8121 
  25   2.0000      -9.902350      -269.4566 
  26   2.0000      -9.902345      -269.4565 
  27   2.0000      -9.902342      -269.4564 
  28   2.0000      -9.902337      -269.4563 
  29   2.0000      -9.902325      -269.4560 
  30   2.0000      -9.902323      -269.4559 
  31   2.0000      -9.902322      -269.4559 
  32   2.0000      -9.902316      -269.4557 
  33   2.0000      -9.901999      -269.4471 
  34   2.0000      -9.901996      -269.4470 
  35   2.0000      -9.901995      -269.4470 
  36   2.0000      -9.901989      -269.4468 
  37   2.0000      -9.901924      -269.4450 
  38   2.0000      -9.901921      -269.4450 
  39   2.0000      -9.901920      -269.4449 
  40   2.0000      -9.901915      -269.4448 
  41   2.0000      -9.901402      -269.4308 
  42   2.0000      -9.901399      -269.4308 
  43   2.0000      -9.901395      -269.4307 
  44   2.0000      -9.901394      -269.4306 
  45   2.0000      -9.895819      -269.2789 
  46   2.0000      -9.895814      -269.2788 
  47   2.0000      -9.895810      -269.2787 
  48   2.0000      -9.895807      -269.2786 
  49   2.0000      -9.895282      -269.2643 
  50   2.0000      -9.895276      -269.2641 
  51   2.0000      -9.895272      -269.2640 
  52   2.0000      -9.895269      -269.2640 
  53   2.0000      -4.585199      -124.7696 
  54   2.0000      -3.026770       -82.3626 
  55   2.0000      -3.014407       -82.0262 
  56   2.0000      -3.014401       -82.0260 
  57   2.0000      -0.888741       -24.1839 
  58   2.0000      -0.880324       -23.9548 
  59   2.0000      -0.880321       -23.9547 
  60   2.0000      -0.871265       -23.7083 
  61   2.0000      -0.796526       -21.6746 
  62   2.0000      -0.793174       -21.5834 
  63   2.0000      -0.793167       -21.5832 
  64   2.0000      -0.791616       -21.5410 
  65   2.0000      -0.754358       -20.5271 
  66   2.0000      -0.738163       -20.0864 
  67   2.0000      -0.738157       -20.0863 
  68   2.0000      -0.721352       -19.6290 
  69   2.0000      -0.700901       -19.0725 
  70   2.0000      -0.700429       -19.0597 
  71   2.0000      -0.700422       -19.0595 
  72   2.0000      -0.694698       -18.9037 
  73   2.0000      -0.682643       -18.5756 
  74   2.0000      -0.682542       -18.5729 
  75   2.0000      -0.682536       -18.5728 
  76   2.0000      -0.682489       -18.5715 
  77   2.0000      -0.677016       -18.4225 
  78   2.0000      -0.670129       -18.2351 
  79   2.0000      -0.670127       -18.2351 
  80   2.0000      -0.655222       -17.8295 
  81   2.0000      -0.647092       -17.6083 
  82   2.0000      -0.601178       -16.3589 
  83   2.0000      -0.601177       -16.3589 
  84   2.0000      -0.564710       -15.3665 
  85   2.0000      -0.552793       -15.0423 
  86   2.0000      -0.552576       -15.0364 
  87   2.0000      -0.552568       -15.0361 
  88   2.0000      -0.552304       -15.0290 
  89   2.0000      -0.547398       -14.8955 
  90   2.0000      -0.547375       -14.8948 
  91   2.0000      -0.540772       -14.7151 
  92   2.0000      -0.539165       -14.6714 
  93   2.0000      -0.530583       -14.4379 
  94   2.0000      -0.511453       -13.9173 
  95   2.0000      -0.511448       -13.9172 
  96   2.0000      -0.503443       -13.6994 
  97   2.0000      -0.496671       -13.5151 
  98   2.0000      -0.495281       -13.4773 
  99   2.0000      -0.479317       -13.0429 
 100   2.0000      -0.479312       -13.0427 
 101   2.0000      -0.474182       -12.9032 
 102   2.0000      -0.470720       -12.8089 
 103   2.0000      -0.467634       -12.7250 
 104   2.0000      -0.467624       -12.7247 
 105   2.0000      -0.454721       -12.3736 
 106   2.0000      -0.443520       -12.0688 
 107   2.0000      -0.443510       -12.0685 
 108   2.0000      -0.417423       -11.3587 
 109   2.0000      -0.415589       -11.3088 
 110   2.0000      -0.415293       -11.3007 
 111   2.0000      -0.415287       -11.3005 
 112   2.0000      -0.413524       -11.2526 
 113   2.0000      -0.405492       -11.0340 
 114   2.0000      -0.405488       -11.0339 
 115   2.0000      -0.403924       -10.9913 
 116   2.0000      -0.403362       -10.9760 
 117   2.0000      -0.395345       -10.7579 
 118   2.0000      -0.395285       -10.7563 
 119   2.0000      -0.392686       -10.6855 
 120   2.0000      -0.392667       -10.6850 
 121   2.0000      -0.385231       -10.4827 
 122   2.0000      -0.382245       -10.4014 
 123   2.0000      -0.378826       -10.3084 
 124   2.0000      -0.378821       -10.3082 
 125   2.0000      -0.378605       -10.3024 
 126   2.0000      -0.378605       -10.3024 
 127   2.0000      -0.378472       -10.2988 
 128   2.0000      -0.378073       -10.2879 
 129   2.0000      -0.377296       -10.2668 
 130   2.0000      -0.376717       -10.2510 
 131   2.0000      -0.368614       -10.0305 
 132   2.0000      -0.365273        -9.9396 
 133   2.0000      -0.365269        -9.9395 
 134   2.0000      -0.360624        -9.8131 
 135   2.0000      -0.360621        -9.8130 
 136   2.0000      -0.358246        -9.7484 
 137   2.0000      -0.346247        -9.4219 
 138   2.0000      -0.345276        -9.3954 
 139   2.0000      -0.341295        -9.2871 
 140   2.0000      -0.339331        -9.2337 
 141   2.0000      -0.339325        -9.2335 
 142   2.0000      -0.337172        -9.1749 
 143   2.0000      -0.331896        -9.0313 
 144   2.0000      -0.329660        -8.9705 
 145   2.0000      -0.329656        -8.9704 
 146   2.0000      -0.318913        -8.6781 
 147   2.0000      -0.312009        -8.4902 
 148   2.0000      -0.311527        -8.4771 
 149   2.0000      -0.308188        -8.3862 
 150   2.0000      -0.308181        -8.3860 
 151   2.0000      -0.307635        -8.3712 
 152   2.0000      -0.307633        -8.3711 
 153   2.0000      -0.306885        -8.3508 
 154   2.0000      -0.299704        -8.1554 
 155   2.0000      -0.287015        -7.8101 
 156   2.0000      -0.286097        -7.7851 
 157   2.0000      -0.286068        -7.7843 
 158   2.0000      -0.258463        -7.0331 
 159   2.0000      -0.258423        -7.0320 
 160   2.0000      -0.239178        -6.5084 
 161   2.0000      -0.239132        -6.5071 
 162   2.0000      -0.238747        -6.4966 
 163   2.0000      -0.237848        -6.4722 
 164   2.0000      -0.237836        -6.4718 
 165   2.0000      -0.235955        -6.4207 
 166   2.0000      -0.234061        -6.3691 
 167   2.0000      -0.234034        -6.3684 
 168   2.0000      -0.233414        -6.3515 
 169   2.0000      -0.224412        -6.1066 
 170   2.0000      -0.224404        -6.1063 
 171   2.0000      -0.223405        -6.0792 
 172   2.0000      -0.203150        -5.5280 
 173   2.0000      -0.191655        -5.2152 
 174   2.0000      -0.183758        -5.0003 
 175   0.0000      -0.112416        -3.0590 
 176   0.0000      -0.112411        -3.0588 
 177   0.0000      -0.064358        -1.7513 
 178   0.0000      -0.050231        -1.3669 
 179   0.0000      -0.049103        -1.3362 
 180   0.0000      -0.049092        -1.3359 
 181   0.0000      -0.048660        -1.3241 
 182   0.0000      -0.047633        -1.2962 
 183   0.0000      -0.047406        -1.2900 
 184   0.0000      -0.046610        -1.2683 
 185   0.0000      -0.046598        -1.2680 
*Only the first 10 virtual orbitals were printed.

                    ********************************
                    * MULLIKEN POPULATION ANALYSIS *
                    ********************************

-----------------------
MULLIKEN ATOMIC CHARGES
-----------------------
   0 N :   -0.157922
   1 H :    0.157822
   2 C :   -0.226810
   3 C :   -0.227227
   4 N :   -0.158988
   5 C :   -0.227136
   6 H :    0.157886
   7 C :    0.147106
   8 N :   -0.158946
   9 C :   -0.227124
  10 C :    0.084021
  11 C :    0.146742
  12 N :   -0.157955
  13 C :   -0.226982
  14 C :    0.146952
  15 C :    0.147142
  16 C :    0.146826
  17 C :    0.147223
  18 C :   -0.227273
  19 C :    0.084825
  20 C :    0.083362
  21 C :   -0.226767
  22 C :    0.147588
  23 C :   -0.226886
  24 C :    0.083676
  25 C :    0.147309
  26 H :    0.157678
  27 H :    0.157851
  28 H :    0.157763
  29 H :    0.157742
  30 H :    0.157674
  31 H :    0.157743
  32 Zn:    0.089096
  33 C :   -0.026041
  34 C :   -0.161630
  35 C :   -0.144786
  36 C :   -0.104697
  37 C :   -0.144749
  38 C :   -0.161766
  39 H :    0.128927
  40 H :    0.126716
  41 H :    0.128774
  42 H :    0.126701
  43 H :    0.128978
  44 C :   -0.024537
  45 C :   -0.163004
  46 C :   -0.144321
  47 C :   -0.104978
  48 C :   -0.144134
  49 C :   -0.163225
  50 H :    0.129067
  51 H :    0.126737
  52 H :    0.128802
  53 H :    0.126745
  54 H :    0.129055
  55 C :   -0.027426
  56 C :   -0.160473
  57 C :   -0.145394
  58 C :   -0.104085
  59 C :   -0.145493
  60 C :   -0.160383
  61 H :    0.128918
  62 H :    0.126647
  63 H :    0.128769
  64 H :    0.126689
  65 H :    0.128829
  66 C :   -0.027069
  67 C :   -0.160647
  68 C :   -0.145154
  69 C :   -0.104473
  70 C :   -0.145074
  71 C :   -0.160738
  72 H :    0.128872
  73 H :    0.126705
  74 H :    0.128771
  75 H :    0.126696
  76 H :    0.128868
Sum of atomic charges:    0.0000000

--------------------------------
MULLIKEN REDUCED ORBITAL CHARGES
--------------------------------
  0 N s       :     3.694594  s :     3.694594
      pz      :     1.338620  p :     3.397716
      px      :     1.068579
      py      :     0.990517
      dz2     :     0.004757  d :     0.062058
      dxz     :     0.007050
      dyz     :     0.014323
      dx2y2   :     0.019026
      dxy     :     0.016902
      f0      :     0.000620  f :     0.003555
      f+1     :     0.000300
      f-1     :     0.000382
      f+2     :     0.000115
      f-2     :     0.000598
      f+3     :     0.000572
      f-3     :     0.000969

  1 H s       :     0.819837  s :     0.819837
      pz      :     0.005054  p :     0.022341
      px      :     0.008389
      py      :     0.008899

  2 C s       :     3.293424  s :     3.293424
      pz      :     0.991498  p :     2.848449
      px      :     0.921739
      py      :     0.935212
      dz2     :     0.005707  d :     0.077579
      dxz     :     0.009683
      dyz     :     0.017987
      dx2y2   :     0.015973
      dxy     :     0.028230
      f0      :     0.001349  f :     0.007358
      f+1     :     0.000669
      f-1     :     0.000510
      f+2     :     0.000920
      f-2     :     0.000405
      f+3     :     0.002318
      f-3     :     0.001186

  3 C s       :     3.293555  s :     3.293555
      pz      :     0.990808  p :     2.848738
      px      :     0.936523
      py      :     0.921406
      dz2     :     0.005356  d :     0.077575
      dxz     :     0.018445
      dyz     :     0.009556
      dx2y2   :     0.015948
      dxy     :     0.028271
      f0      :     0.001388  f :     0.007358
      f+1     :     0.000424
      f-1     :     0.000688
      f+2     :     0.000964
      f-2     :     0.000394
      f+3     :     0.001166
      f-3     :     0.002335

  4 N s       :     3.695291  s :     3.695291
      pz      :     1.338977  p :     3.398080
      px      :     0.987461
      py      :     1.071642
      dz2     :     0.004628  d :     0.062062
      dxz     :     0.014498
      dyz     :     0.006965
      dx2y2   :     0.018998
      dxy     :     0.016972
      f0      :     0.000623  f :     0.003555
      f+1     :     0.000372
      f-1     :     0.000305
      f+2     :     0.000111
      f-2     :     0.000596
      f+3     :     0.000978
      f-3     :     0.000571

  5 C s       :     3.293583  s :     3.293583
      pz      :     0.987839  p :     2.848619
      px      :     0.947759
      py      :     0.913020
      dz2     :     0.005604  d :     0.077577
      dxz     :     0.016325
      dyz     :     0.011441
      dx2y2   :     0.016142
      dxy     :     0.028065
      f0      :     0.001376  f :     0.007357
      f+1     :     0.000465
      f-1     :     0.000665
      f+2     :     0.001228
      f-2     :     0.000121
      f+3     :     0.001305
      f-3     :     0.002197

  6 H s       :     0.819766  s :     0.819766
      pz      :     0.005082  p :     0.022348
      px      :     0.006845
      py      :     0.010421

  7 C s       :     3.214698  s :     3.214698
      pz      :     0.942395  p :     2.464999
      px      :     0.836247
      py      :     0.686358
      dz2     :     0.005492  d :     0.159108
      dxz     :     0.029653
      dyz     :     0.035391
      dx2y2   :     0.048671
      dxy     :     0.039901
      f0      :     0.001936  f :     0.014089
      f+1     :     0.000853
      f-1     :     0.001025
      f+2     :     0.000693
      f-2     :     0.002207
      f+3     :     0.003667
      f-3     :     0.003707

  8 N s       :     3.695266  s :     3.695266
      pz      :     1.339029  p :     3.398064
      px      :     0.987453
      py      :     1.071582
      dz2     :     0.004624  d :     0.062061
      dxz     :     0.014505
      dyz     :     0.006966
      dx2y2   :     0.018995
      dxy     :     0.016971
      f0      :     0.000623  f :     0.003555
      f+1     :     0.000372
      f-1     :     0.000305
      f+2     :     0.000111
      f-2     :     0.000596
      f+3     :     0.000978
      f-3     :     0.000571

  9 C s       :     3.293795  s :     3.293795
      pz      :     0.991201  p :     2.848367
      px      :     0.947152
      py      :     0.910014
      dz2     :     0.005526  d :     0.077604
      dxz     :     0.016356
      dyz     :     0.011479
      dx2y2   :     0.016203
      dxy     :     0.028040
      f0      :     0.001377  f :     0.007358
      f+1     :     0.000467
      f-1     :     0.000663
      f+2     :     0.001227
      f-2     :     0.000121
      f+3     :     0.001304
      f-3     :     0.002198

 10 C s       :     3.338769  s :     3.338769
      pz      :     0.966152  p :     2.446308
      px      :     0.725310
      py      :     0.754845
      dz2     :     0.005053  d :     0.121631
      dxz     :     0.022634
      dyz     :     0.024090
      dx2y2   :     0.030862
      dxy     :     0.038992
      f0      :     0.001434  f :     0.009271
      f+1     :     0.000648
      f-1     :     0.000667
      f+2     :     0.000835
      f-2     :     0.001109
      f+3     :     0.002687
      f-3     :     0.001890

 11 C s       :     3.214682  s :     3.214682
      pz      :     0.941435  p :     2.465364
      px      :     0.848224
      py      :     0.675705
      dz2     :     0.005530  d :     0.159122
      dxz     :     0.028464
      dyz     :     0.036581
      dx2y2   :     0.044539
      dxy     :     0.044008
      f0      :     0.001939  f :     0.014089
      f+1     :     0.000770
      f-1     :     0.001105
      f+2     :     0.001122
      f-2     :     0.001791
      f+3     :     0.002491
      f-3     :     0.004872

 12 N s       :     3.694628  s :     3.694628
      pz      :     1.338331  p :     3.397713
      px      :     1.068554
      py      :     0.990828
      dz2     :     0.004798  d :     0.062059
      dxz     :     0.007052
      dyz     :     0.014274
      dx2y2   :     0.019034
      dxy     :     0.016900
      f0      :     0.000617  f :     0.003555
      f+1     :     0.000300
      f-1     :     0.000384
      f+2     :     0.000116
      f-2     :     0.000598
      f+3     :     0.000572
      f-3     :     0.000968

 13 C s       :     3.293750  s :     3.293750
      pz      :     0.988936  p :     2.848275
      px      :     0.910439
      py      :     0.948900
      dz2     :     0.005594  d :     0.077599
      dxz     :     0.011754
      dyz     :     0.015978
      dx2y2   :     0.016299
      dxy     :     0.027974
      f0      :     0.001357  f :     0.007358
      f+1     :     0.000605
      f-1     :     0.000562
      f+2     :     0.001195
      f-2     :     0.000138
      f+3     :     0.002177
      f-3     :     0.001325

 14 C s       :     3.214769  s :     3.214769
      pz      :     0.939705  p :     2.465065
      px      :     0.687050
      py      :     0.838310
      dz2     :     0.005128  d :     0.159125
      dxz     :     0.036296
      dyz     :     0.029340
      dx2y2   :     0.048469
      dxy     :     0.039892
      f0      :     0.001969  f :     0.014089
      f+1     :     0.000977
      f-1     :     0.000858
      f+2     :     0.000714
      f-2     :     0.002179
      f+3     :     0.003725
      f-3     :     0.003668

 15 C s       :     3.214468  s :     3.214468
      pz      :     0.941944  p :     2.465170
      px      :     0.675883
      py      :     0.847343
      dz2     :     0.005195  d :     0.159130
      dxz     :     0.037636
      dyz     :     0.027928
      dx2y2   :     0.044329
      dxy     :     0.044042
      f0      :     0.001965  f :     0.014089
      f+1     :     0.001029
      f-1     :     0.000810
      f+2     :     0.001084
      f-2     :     0.001798
      f+3     :     0.004903
      f-3     :     0.002500

 16 C s       :     3.214500  s :     3.214500
      pz      :     0.935395  p :     2.465443
      px      :     0.847845
      py      :     0.682202
      dz2     :     0.005520  d :     0.159142
      dxz     :     0.028604
      dyz     :     0.036704
      dx2y2   :     0.044471
      dxy     :     0.043843
      f0      :     0.001945  f :     0.014089
      f+1     :     0.000768
      f-1     :     0.001097
      f+2     :     0.001122
      f-2     :     0.001789
      f+3     :     0.002497
      f-3     :     0.004873

 17 C s       :     3.214817  s :     3.214817
      pz      :     0.935432  p :     2.464759
      px      :     0.836410
      py      :     0.692917
      dz2     :     0.005422  d :     0.159113
      dxz     :     0.029803
      dyz     :     0.035541
      dx2y2   :     0.048572
      dxy     :     0.039775
      f0      :     0.001941  f :     0.014088
      f+1     :     0.000848
      f-1     :     0.001022
      f+2     :     0.000691
      f-2     :     0.002210
      f+3     :     0.003668
      f-3     :     0.003708

 18 C s       :     3.293743  s :     3.293743
      pz      :     0.991059  p :     2.848587
      px      :     0.911045
      py      :     0.946483
      dz2     :     0.005554  d :     0.077585
      dxz     :     0.011778
      dyz     :     0.016074
      dx2y2   :     0.016235
      dxy     :     0.027945
      f0      :     0.001358  f :     0.007358
      f+1     :     0.000603
      f-1     :     0.000559
      f+2     :     0.001199
      f-2     :     0.000141
      f+3     :     0.002178
      f-3     :     0.001321

 19 C s       :     3.339276  s :     3.339276
      pz      :     0.966269  p :     2.445034
      px      :     0.751996
      py      :     0.726769
      dz2     :     0.005059  d :     0.121595
      dxz     :     0.024680
      dyz     :     0.021920
      dx2y2   :     0.031114
      dxy     :     0.038821
      f0      :     0.001455  f :     0.009270
      f+1     :     0.000613
      f-1     :     0.000681
      f+2     :     0.000849
      f-2     :     0.001102
      f+3     :     0.001887
[...]
  0-1A  -> 26-1A    3.466134   27956.3   357.7   0.016790453   0.19772  -0.11226  -0.42814   0.04268
  0-1A  -> 27-1A    3.468869   27978.3   357.4   0.000026229   0.00031  -0.01624  -0.00618   0.00260
  0-1A  -> 28-1A    3.471432   27999.0   357.2   0.007344755   0.08636  -0.14936   0.25225  -0.02058
  0-1A  -> 29-1A    3.471589   28000.3   357.1   0.007212489   0.08480   0.25246   0.14403  -0.01790
  0-1A  -> 30-1A    3.576764   28848.5   346.6   0.169030749   1.92893  -1.11217  -0.82620   0.09704

----------------------------------------------------------------------------------------------------
                     ABSORPTION SPECTRUM VIA TRANSITION VELOCITY DIPOLE MOMENTS    
----------------------------------------------------------------------------------------------------
     Transition      Energy     Energy  Wavelength fosc(P2)      P2        PX        PY        PZ   
                      (eV)      (cm-1)    (nm)                 (au**2)    (au)      (au)      (au)  
----------------------------------------------------------------------------------------------------
  0-1A  ->  1-1A    2.184276   17617.4   567.6   0.013939540   0.00168   0.03874   0.01319  -0.00185
  0-1A  ->  2-1A    2.184350   17618.0   567.6   0.013841296   0.00167   0.01300  -0.03854   0.00351
  0-1A  ->  3-1A    2.499599   20160.6   496.0   0.000000509   0.00000   0.00016  -0.00021   0.00002
  0-1A  ->  4-1A    2.499774   20162.0   496.0   0.000002577   0.00000  -0.00036   0.00047  -0.00004
  0-1A  ->  5-1A    2.882716   23250.7   430.1   1.381938696   0.21960  -0.29866  -0.35900   0.03902
  0-1A  ->  6-1A    2.882837   23251.6   430.1   1.379350771   0.21920   0.36072  -0.29761   0.02263
  0-1A  ->  7-1A    3.142489   25345.9   394.5   0.000047454   0.00001   0.00029  -0.00016   0.00285
  0-1A  ->  8-1A    3.150041   25406.8   393.6   0.036696908   0.00637   0.05918  -0.05341   0.00411
  0-1A  ->  9-1A    3.150231   25408.3   393.6   0.036825117   0.00639   0.05392   0.05870  -0.00648
  0-1A  -> 10-1A    3.169234   25561.6   391.2   0.000002910   0.00000  -0.00050  -0.00051   0.00003
  0-1A  -> 11-1A    3.188282   25715.2   388.9   0.000005342   0.00000   0.00040  -0.00088   0.00006
  0-1A  -> 12-1A    3.241333   26143.1   382.5   0.000000865   0.00000  -0.00025  -0.00030   0.00003
  0-1A  -> 13-1A    3.309524   26693.1   374.6   0.015061151   0.00275   0.04766   0.02170  -0.00235
  0-1A  -> 14-1A    3.309648   26694.1   374.6   0.015057344   0.00275   0.02216  -0.04727   0.00464
  0-1A  -> 15-1A    3.316929   26752.8   373.8   0.000058831   0.00001  -0.00217  -0.00245   0.00012
  0-1A  -> 16-1A    3.319386   26772.7   373.5   0.001069279   0.00020   0.00386  -0.00279  -0.01315
  0-1A  -> 17-1A    3.322241   26795.7   373.2   0.000037608   0.00001   0.00227  -0.00112   0.00070
  0-1A  -> 18-1A    3.322501   26797.8   373.2   0.000065319   0.00001  -0.00068   0.00332  -0.00070
  0-1A  -> 19-1A    3.369360   27175.7   368.0   0.005893032   0.00109   0.00989   0.03140  -0.00323
  0-1A  -> 20-1A    3.369484   27176.7   368.0   0.006079860   0.00113   0.03180  -0.01084   0.00081
  0-1A  -> 21-1A    3.388724   27331.9   365.9   0.000006695   0.00000   0.00085   0.00073  -0.00001
  0-1A  -> 22-1A    3.419062   27576.6   362.6   0.000676280   0.00013   0.00064  -0.00109  -0.01122
  0-1A  -> 23-1A    3.425887   27631.6   361.9   0.000003088   0.00000   0.00033  -0.00067  -0.00016
  0-1A  -> 24-1A    3.440476   27749.3   360.4   0.000000864   0.00000   0.00040   0.00006   0.00002
  0-1A  -> 25-1A    3.466016   27955.3   357.7   0.015828067   0.00302   0.05321  -0.01389   0.00028
  0-1A  -> 26-1A    3.466134   27956.3   357.7   0.016226862   0.00310   0.01409   0.05360  -0.00535
  0-1A  -> 27-1A    3.468869   27978.3   357.4   0.000025287   0.00000   0.00203   0.00077  -0.00033
  0-1A  -> 28-1A    3.471432   27999.0   357.2   0.007144703   0.00137   0.01879  -0.03174   0.00259
  0-1A  -> 29-1A    3.471589   28000.3   357.1   0.007024532   0.00134  -0.03178  -0.01814   0.00226
  0-1A  -> 30-1A    3.576764   28848.5   346.6   0.168253893   0.03317   0.14584   0.10837  -0.01275

------------------------------------------------------------------------------------------
                     CD SPECTRUM VIA TRANSITION ELECTRIC DIPOLE MOMENTS    
------------------------------------------------------------------------------------------
     Transition      Energy     Energy  Wavelength    R        MX        MY        MZ   
                      (eV)      (cm-1)    (nm)   (1e40*cgs)   (au)      (au)      (au)  
------------------------------------------------------------------------------------------
  0-1A  ->  1-1A    2.184276   17617.4   567.6   -3.13049  -0.01238  -0.00381   0.00018
  0-1A  ->  2-1A    2.184350   17618.0   567.6   -3.12885  -0.00444   0.01215  -0.00119
  0-1A  ->  3-1A    2.499599   20160.6   496.0   -0.07168   0.06296   0.11853  -0.01185
  0-1A  ->  4-1A    2.499774   20162.0   496.0   -0.38501   0.11914  -0.06285   0.00453
  0-1A  ->  5-1A    2.882716   23250.7   430.1  -66.20020   0.02105   0.02352  -0.00228
  0-1A  ->  6-1A    2.882837   23251.6   430.1  -66.16970  -0.02465   0.01972  -0.00218
  0-1A  ->  7-1A    3.142489   25345.9   394.5  -11.08891  -0.01678  -0.09487  -0.99877
  0-1A  ->  8-1A    3.150041   25406.8   393.6   -0.50739  -0.00121   0.00225   0.01652
  0-1A  ->  9-1A    3.150231   25408.3   393.6   -0.66672  -0.00176  -0.00091   0.00226
  0-1A  -> 10-1A    3.169234   25561.6   391.2   -0.00097   0.00016   0.00053   0.00402
  0-1A  -> 11-1A    3.188282   25715.2   388.9    0.00040   0.00005  -0.00005   0.00059
  0-1A  -> 12-1A    3.241333   26143.1   382.5   -0.00001  -0.00004   0.00005   0.00009
  0-1A  -> 13-1A    3.309524   26693.1   374.6   20.92498   0.09278   0.04370  -0.00372
  0-1A  -> 14-1A    3.309648   26694.1   374.6   20.77979   0.04252  -0.09183   0.01168
  0-1A  -> 15-1A    3.316929   26752.8   373.8    0.06840  -0.00358  -0.00416  -0.00285
  0-1A  -> 16-1A    3.319386   26772.7   373.5    8.64519   0.00104  -0.01748  -0.16417
  0-1A  -> 17-1A    3.322241   26795.7   373.2    0.04372   0.00330   0.00035   0.00594
  0-1A  -> 18-1A    3.322501   26797.8   373.2    0.06545  -0.00018   0.00427  -0.00370
  0-1A  -> 19-1A    3.369360   27175.7   368.0   11.31750   0.02748   0.08455  -0.00798
  0-1A  -> 20-1A    3.369484   27176.7   368.0   11.56705   0.08520  -0.02868  -0.00160
  0-1A  -> 21-1A    3.388724   27331.9   365.9    0.00870   0.00143   0.00145  -0.00130
  0-1A  -> 22-1A    3.419062   27576.6   362.6   -7.34013   0.00563   0.01551   0.17176
  0-1A  -> 23-1A    3.425887   27631.6   361.9   -0.00433  -0.00007   0.00058   0.00460
  0-1A  -> 24-1A    3.440476   27749.3   360.4    0.00071   0.00045   0.00026  -0.00003
  0-1A  -> 25-1A    3.466016   27955.3   357.7    8.24425   0.03836  -0.01065  -0.00118
  0-1A  -> 26-1A    3.466134   27956.3   357.7    8.28352   0.00947   0.03818  -0.00381
  0-1A  -> 27-1A    3.468869   27978.3   357.4    0.00995   0.00100   0.00075  -0.00008
  0-1A  -> 28-1A    3.471432   27999.0   357.2    2.13888   0.00800  -0.01323   0.00028
  0-1A  -> 29-1A    3.471589   28000.3   357.1    2.01508  -0.01289  -0.00692   0.00120
  0-1A  -> 30-1A    3.576764   28848.5   346.6    3.18753   0.00367   0.00320  -0.00044

------------------------------------------------------------------------------------------
                     CD SPECTRUM VIA TRANSITION VELOCITY DIPOLE MOMENTS    
------------------------------------------------------------------------------------------
     Transition      Energy     Energy  Wavelength    R        MX        MY        MZ   
                      (eV)      (cm-1)    (nm)   (1e40*cgs)   (au)      (au)      (au)  
------------------------------------------------------------------------------------------
  0-1A  ->  1-1A    2.184276   17617.4   567.6   -3.11446  -0.01238  -0.00381   0.00018
  0-1A  ->  2-1A    2.184350   17618.0   567.6   -3.11283  -0.00444   0.01215  -0.00119
  0-1A  ->  3-1A    2.499599   20160.6   496.0   -0.07544   0.06296   0.11853  -0.01185
  0-1A  ->  4-1A    2.499774   20162.0   496.0   -0.37489   0.11914  -0.06285   0.00453
  0-1A  ->  5-1A    2.882716   23250.7   430.1  -65.94311   0.02105   0.02352  -0.00228
  0-1A  ->  6-1A    2.882837   23251.6   430.1  -65.90026  -0.02465   0.01972  -0.00218
  0-1A  ->  7-1A    3.142489   25345.9   394.5  -11.56836  -0.01678  -0.09487  -0.99877
  0-1A  ->  8-1A    3.150041   25406.8   393.6   -0.50462  -0.00121   0.00225   0.01652
  0-1A  ->  9-1A    3.150231   25408.3   393.6   -0.66271  -0.00176  -0.00091   0.00226
  0-1A  -> 10-1A    3.169234   25561.6   391.2   -0.00098   0.00016   0.00053   0.00402
  0-1A  -> 11-1A    3.188282   25715.2   388.9    0.00040   0.00005  -0.00005   0.00059
  0-1A  -> 12-1A    3.241333   26143.1   382.5   -0.00001  -0.00004   0.00005   0.00009
  0-1A  -> 13-1A    3.309524   26693.1   374.6   20.85089   0.09278   0.04370  -0.00372
  0-1A  -> 14-1A    3.309648   26694.1   374.6   20.68818   0.04252  -0.09183   0.01168
  0-1A  -> 15-1A    3.316929   26752.8   373.8    0.06827  -0.00358  -0.00416  -0.00285
  0-1A  -> 16-1A    3.319386   26772.7   373.5    8.54899   0.00104  -0.01748  -0.16417
  0-1A  -> 17-1A    3.322241   26795.7   373.2    0.04345   0.00330   0.00035   0.00594
  0-1A  -> 18-1A    3.322501   26797.8   373.2    0.06511  -0.00018   0.00427  -0.00370
  0-1A  -> 19-1A    3.369360   27175.7   368.0   11.24338   0.02748   0.08455  -0.00798
  0-1A  -> 20-1A    3.369484   27176.7   368.0   11.49356   0.08520  -0.02868  -0.00160
  0-1A  -> 21-1A    3.388724   27331.9   365.9    0.00864   0.00143   0.00145  -0.00130
  0-1A  -> 22-1A    3.419062   27576.6   362.6   -7.27989   0.00563   0.01551   0.17176
  0-1A  -> 23-1A    3.425887   27631.6   361.9   -0.00426  -0.00007   0.00058   0.00460
  0-1A  -> 24-1A    3.440476   27749.3   360.4    0.00073   0.00045   0.00026  -0.00003
  0-1A  -> 25-1A    3.466016   27955.3   357.7    8.10158   0.03836  -0.01065  -0.00118
  0-1A  -> 26-1A    3.466134   27956.3   357.7    8.14324   0.00947   0.03818  -0.00381
  0-1A  -> 27-1A    3.468869   27978.3   357.4    0.00977   0.00100   0.00075  -0.00008
  0-1A  -> 28-1A    3.471432   27999.0   357.2    2.10955   0.00800  -0.01323   0.00028
  0-1A  -> 29-1A    3.471589   28000.3   357.1    1.98863  -0.01289  -0.00692   0.00120
  0-1A  -> 30-1A    3.576764   28848.5   346.6    3.18023   0.00367   0.00320  -0.00044

Total run time:     4609.802 sec

           *** ORCA-CIS/TD-DFT FINISHED WITHOUT ERROR ***
-----------------------
CIS/TD-DFT TOTAL ENERGY
-----------------------

    E(SCF)  =  -3692.992774276 Eh
    DE(CIS) =      0.080270681 Eh (Root  1)
    ----------------------------- ---------
    E(tot)  =  -3692.912503595 Eh


Maximum memory used throughout the entire CIS-calculation: 3010.3 MB
=> NOW LEAVING ORCA_CIS

-------------------------   --------------------
FINAL SINGLE POINT ENERGY     -3692.912503595112
-------------------------   --------------------



           ************************************************************
           *        Program running with 8 parallel MPI-processes     *
           *              working on a common directory               *
           ************************************************************

------------------------------------------------------------------------------
                              ORCA PROPERTY CALCULATIONS
------------------------------------------------------------------------------

GBWName                                 ... tddft.gbw
Number of atoms                         ...     77
Number of basis functions               ...   1704
Max core memory                         ...   3000 MB

Electric properties:
Dipole moment                           ... YES
Quadrupole moment                       ...  NO
Static polarizability (Dipole/Dipole)   ...  NO
Static polarizability (Dipole/Quad.)    ...  NO
Static polarizability (Quad./Quad.)     ...  NO
Static polarizability (Velocity)        ...  NO
Static hyperpolarizability              ...  NO

Atomic electric properties:
Dipole moment                           ...  NO
Quadrupole moment                       ...  NO
Static polarizability                   ...  NO

Choice of electric origin               ... Center of mass
Position of electric origin             ...    -0.159900     5.089041     6.548333

General magnetic properties:
Magnetizability                         ...  NO

EPR properties:
g-Tensor (aka g-matrix)                 ...  NO
Zero-Field splitting spin-orbit         ...  NO
Zero-field splitting spin-spin          ...  NO
Hyperfine couplings                     ...  NO (   0 nuclei)
Quadrupole couplings                    ...  NO (   0 nuclei)
Contact density                         ...  NO (   0 nuclei)

NMR properties:
Chemical shifts                         ...  NO (   0 nuclei)
Spin-rotation constants                 ...  NO (   0 nuclei)
Spin-spin couplings                     ...  NO (   0 nuclei,    0 pairs)

Choice of magnetic origin               ... GIAO
Position of magnetic origin             ...     0.000000     0.000000     0.000000

Properties with geometric perturbations:
SCF Hessian                             ...  NO
IR spectrum                             ...  NO
VCD spectrum                            ...  NO
X-ray spectroscopy properties:
SCF XES/XAS/RIXS spectra                ...  NO

SCF SOC stabilization energy            ...  NO
Diagonal Born-Oppenheimer correction    ...  NO

-------------
DIPOLE MOMENT
-------------

Method             : SCF
Type of density    : Electron Density
Multiplicity       :   1
Irrep              :   0
Energy             : -3692.9927742758154636 Eh
Basis              : AO
                                X                 Y                 Z
Electronic contribution:     -0.008704926       0.002245806       0.018585801
Nuclear contribution   :      0.009078313      -0.003119452      -0.019187423
                        -----------------------------------------
Total Dipole Moment    :      0.000373387      -0.000873645      -0.000601622
                        -----------------------------------------
Magnitude (a.u.)       :      0.001124555
Magnitude (Debye)      :      0.002858391



--------------------
Rotational spectrum 
--------------------
 
Rotational constants in cm-1:             0.001946             0.001946             0.001013 
Rotational constants in MHz :            58.342005            58.333325            30.369733 

Dipole components along the rotational axes: 
x,y,z [a.u.] :     0.000405    -0.000802    -0.000676 
x,y,z [Debye]:     0.001030    -0.002038    -0.001719 

 

Dipole moment calculation done in   2.3 sec 

Maximum memory used throughout the entire PROP-calculation: 234.8 MB

--------------------------------
SUGGESTED CITATIONS FOR THIS RUN
--------------------------------

Below you find a list of papers that are relevant to this ORCA run
We neither can nor want to force you to cite these papers, but we appreciate if you do
You receive ORCA, which is the product of decades of hard work by many enthusiastic individuals, for free
The only thing we kindly ask in return is that you cite our papers,
We deeply appreciate it, if you show your appreciation for ORCA by not just citing the generic ORCA reference.

Please note that relegating all ORCA citations to the supporting information does *not* help us.
SI sections are not indexed - citations you put there will not count into any citation statistics
But we need these citations in order to attract the funding resources that allow us to do what we are doing

Therefore, if you are a happy ORCA user, please consider citing a few of the papers listed below in the main body of your paper

In addition to the list printed below, the program has created the file tddft.bibtex that contains the list in bibtex format
You can import this file easily into all common literature databanks and citation aid programs

It goes without saying that in many instances, there are alternative algorithms to achieve similar
results as the ones you have gotten from ORCA. It is, of course, also the case that in some instances
ORCA just re-implements algorithms worked out by others. We are fully aware of that and we are also
fully appreciative of our colleagues work. Hence this citation list should not be read as indicating
that the listed papers, which are focused on our own work, are the only ones worth citing. It simply
meant to make it easier for users to cite ORCA specific papers. It is not a substitute for doing your
own literature research and citing the relevant literature in a scientifically appropriate manner.

List of essential papers. We consider these as the minimum necessary citations

  1. Neese, F.
     Software update: the ORCA program system, version 6.0
     WIRES Comput. Molec. Sci. 2025 15(1), e70019
     doi.org/10.1002/wcms.70019

List of papers to cite with high priority. The work reported in these papers was absolutely
necessary for this run to complete.
Our perspective: the developers of density functionals and basis sets usually get cited in chemistry papers
Good! But without the algorithms to do something with them, the functionals or basis sets would not do anything.
Hence, in our opinion, the algorithm design and method developments papers are equally worthy of getting cited

  1. Neese, F.; Olbrich, G.
     Efficient use of the resolution of the identity approximation in time-dependent density functional calculations with hybrid density functionals
     Chem. Phys. Lett. 2002 362 , 170-178
     doi.org/10.1016/s0009-2614(02)01053-9
  2. Neese, F.
     An improvement of the resolution of the identity approximation for the formation of the Coulomb matrix
     J. Comp. Chem. 2003 24(14), 1740-1747
     doi.org/10.1002/jcc.10318
  3. Garcia-Rates, M.; Neese, F.
     Effect of the Solute Cavity on the Solvation Energy and its Derivatives within the Framework of the Gaussian Charge Scheme
     J. Comput. Chem. 2020 41 , 922-939
     doi.org/10.1002/jcc.26139
  4. Neese, F.
     The SHARK Integral Generation and Digestion System
     J. Comp. Chem. 2022 44(3), 381
     doi.org/10.1002/jcc.26942

List of suggested additional citations. These are papers that are important in the 'surrounding' of 
of this run, or papers that preceded the highly important papers. If you like your results we are grateful for a citation.

  1. Neese, F.
     The ORCA program system
     WIRES Comput. Molec. Sci. 2012 2(1), 73-78
     doi.org/10.1002/wcms.81
  2. Neese, F.
     Software update: the ORCA program system, version 4.0
     WIRES Comput. Molec. Sci. 2018 8(1), 1-6
     doi.org/10.1002/wcms.1327
  3. Neese, F.; Wennmohs, F.; Becker, U.; Riplinger, C.
     The ORCA quantum chemistry program package
     J. Chem. Phys. 2020 152(22), 224108
     doi.org/10.1063/5.0004608
  4. Neese, F.
     Software update: The ORCA program system—Version 5.0
     WIRES Comput. Molec. Sci. 2022 12(1), e1606
     doi.org/10.1002/wcms.1606

List of optional additional citations

  1. Neese, F.
     Approximate second-order SCF convergence for spin unrestricted wavefunctions
     Chem. Phys. Lett. 2000 325(1-3), 93-98
     doi.org/10.1016/s0009-2614(00)00662-x

Timings for individual modules:

Sum of individual times          ...     5137.220 sec (=  85.620 min)
Startup calculation              ...       21.814 sec (=   0.364 min)   0.4 %
SCF iterations                   ...      495.498 sec (=   8.258 min)   9.6 %
Property integrals               ...        2.591 sec (=   0.043 min)   0.1 %
Property calculations            ...        6.513 sec (=   0.109 min)   0.1 %
CIS module                       ...     4610.803 sec (=  76.847 min)  89.8 %
                             ****ORCA TERMINATED NORMALLY****
TOTAL RUN TIME: 0 days 1 hours 25 minutes 38 seconds 434 msec
