
                                 *****************
                                 * O   R   C   A *
                                 *****************

                                            #,                                       
                                            ###                                      
                                            ####                                     
                                            #####                                    
                                            ######                                   
                                           ########,                                 
                                     ,,################,,,,,                         
                               ,,#################################,,                 
                          ,,##########################################,,             
                       ,#########################################, ''#####,          
                    ,#############################################,,   '####,        
                  ,##################################################,,,,####,       
                ,###########''''           ''''###############################       
              ,#####''   ,,,,##########,,,,          '''####'''          '####       
            ,##' ,,,,###########################,,,                        '##       
           ' ,,###''''                  '''############,,,                           
         ,,##''                                '''############,,,,        ,,,,,,###''
      ,#''                                            '''#######################'''  
     '                                                          ''''####''''         
             ,#######,   #######,   ,#######,      ##                                
            ,#'     '#,  ##    ##  ,#'     '#,    #''#        ,####,    ,#,          
            ##       ##  ##   ,#'  ##            #'  '#       #'       ,# #          
            ##       ##  #######   ##           ,######,      #####,      #          
            '#,     ,#'  ##    ##  '#,     ,#' ,#      #,     #,   #      #          
             '#######'   ##     ##  '#######'  #'      '#     '####' #    #          



                #########################################################
                #                        -***-                          #
                #          Department of theory and spectroscopy        #
                #                                                       #
                #                      Frank Neese                      #
                #                                                       #
                #     Directorship, Architecture, Infrastructure        #
                #                    SHARK, DRIVERS                     #
                #        Core code/Algorithms in most modules           #
                #                                                       #
                #        Max Planck Institute fuer Kohlenforschung      #
                #                Kaiser Wilhelm Platz 1                 #
                #                 D-45470 Muelheim/Ruhr                 #
                #                      Germany                          #
                #                                                       #
                #                  All rights reserved                  #
                #                        -***-                          #
                #########################################################


                         Program Version 6.1.1  -  RELEASE   -
                                (GIT: $487d211c$)
                          ($2025-11-21 10:33:24 +0100$)


 With contributions from (in alphabetic order):
[Max-Planck-Institut fuer Kohlenforschung]                               
  Daniel Aravena         : Magnetic Suceptibility                        
  Michael Atanasov       : Ab Initio Ligand Field Theory (pilot matlab implementation)
  Alexander A. Auer      : GIAO ZORA, VPT2 properties, NMR spectrum      
  Ute Becker             : All parallelization in ORCA, NUMFREQ, NUMCALC 
  Giovanni Bistoni       : ED, misc. LED, open-shell LED, HFLD           
  Dmytro Bykov           : pre 5.0 version of the SCF Hessian            
  Marcos Casanova-Páez   : Triplet and SCS-CIS(D). UHF-(DLPNO)-IP/EA/STEOM-CCSD. UHF-CVS-IP/STEOM-CCSD   
  Vijay G. Chilkuri      : MRCI spin determinant printing, contributions to CSF-ICE 
  Pauline Colinet        : FMM embedding                                 
  Dipayan Datta          : RHF DLPNO-CCSD density                        
  Achintya Kumar Dutta   : EOM-CC, STEOM-CC                              
  Nicolas Foglia         : Exact transition moments, OPA infrastructure, MCD improvements    
  Dmitry Ganyushin       : Spin-Orbit,Spin-Spin,Magnetic field MRCI      
  Miquel Garcia-Rates    : C-PCM and meta-GGA Hessian, CCSD/C-PCM, Gaussian charge scheme 
  Tiago L. C. Gouveia    : GS-ROHF, GS-ROCIS                             
  Yang Guo               : DLPNO-NEVPT2, F12-NEVPT2, CIM, IAO-localization        
  Andreas Hansen         : Spin unrestricted coupled pair/coupled cluster methods 
  Ingolf Harden          : AUTO-CI MPn and infrastructure                
  Benjamin Helmich-Paris : MC-RPA, TRAH-(SCF,CASSCF), AVAS, COSX integrals, SCF dyn. polar., MC-PDFT, srDFT 
  Lee Huntington         : MR-EOM, pCC                                   
  Robert Izsak           : Overlap fitted RIJCOSX, COSX-SCS-MP3, EOM     
  Riya Kayal             : Wick's Theorem for AUTO-CI, AUTO-CI UHF-CCSDT 
  Emily Kempfer          : AUTO-CI RHF CISDT and CCSDT, approximate NEVPT4
  Christian Kollmar      : KDIIS, OOCD, Brueckner-CCSD(T), CCSD density, CASPT2, CASPT2-K, improved NEVPT2 
  Axel Koslowski         : Symmetry handling                             
  Simone Kossmann        : meta-GGA functionals, TD-DFT gradient, OOMP2, (MP2 Hessian; deprecated post 5.0) 
  Lucas Lang             : DCDCAS, Hyperfine gauge corrections, ICE-SOC+SSC
  Marvin Lechner         : AUTO-CI (C++ implementation), FIC-MRCC        
  Spencer Leger          : CASSCF response                               
  Dagmar Lenk            : GEPOL surface, SMD, ORCA-2-JSON               
  Dimitrios Liakos       : Extrapolation schemes; Compound Job, Property file
  Dimitrios Manganas     : Further ROCIS development; embedding schemes. LFT, Crystal Embedding 
  Dimitrios Pantazis     : SARC Basis sets                               
  Anastasios Papadopoulos: AUTO-CI, single reference methods and gradients 
  Taras Petrenko         : pre 6.0 DFT Hessian and TD-DFT gradient,  ECA, NRVS 
  Petra Pikulova         : Analytic Raman intensities                    
  Peter Pinski           : DLPNO-MP2, DLPNO-MP2 Gradient                 
  Shashank Vittal Rao    : ES-AILFT, MagRelax                            
  Christoph Reimann      : Effective Core Potentials                     
  Marius Retegan         : Local ZFS, SOC                                
  Christoph Riplinger    : Optimizer, TS searches, QM/MM, DLPNO-CCSD(T), (RO)-DLPNO pert. Triples 
  Michael Roemelt        : Original ROCIS implementation, recursive CI coupling coefficients
  Masaaki Saitow         : Open-shell DLPNO-CCSD energy and density      
  Barbara Sandhoefer     : DKH picture change effects                    
  Yorick L. A. Schmerwitz: GMF and freeze-and-release deltaSCF, NEB S-IDPP initial path                    
  Kantharuban Sivalingam : CASSCF convergence/infrastructure, NEVPT2, NEVPT3, NEVPT4(SD), FIC-MRCI and CEPA variants
  Bernardo de Souza      : ESD, SOC TD-DFT                               
  Georgi L. Stoychev     : AutoAux, RI-MP2 NMR, DLPNO-MP2 response, X2C  
  Van Anh Tran           : RI-MP2 g-tensors                              
  Willem Van den Heuvel  : Paramagnetic NMR                              
  Zikuan Wang            : NOTCH, Electric field optimization            
  Frank Wennmohs         : Technical directorship and infrastructure     
  Hang Xu                : AUTO-CI-Response properties                   
                                                                         
[FACCTs GmbH]                                                            
  Markus Bursch, Nicolas Foglia, Miquel Garcia-Rates, Ingolf Harden, Hagen Neugebauer, Anastasios Papadopoulos, 
  Christoph Riplinger, Bernardo de Souza, Georgi L. Stoychev                                                    
                                                                 
  APM, various basis sets, CI-OPT, improved COSX, DLPNO-Multilevel,           
  DOCKER, DRACO, updates on ESD, Fragmentator, GOAT, IRC, LR-CPCM, L-BFGS, MBIS, meta-GGA TD-DFT gradient, ML-optimized integration grids, 
  MM, NACMEs, nearIR, NEB, NEB-TS, NL-DFT gradient (VV10), 2- and 3-layer-ONIOM, interface openCOSMO-RS, QMMM,   
  Crystal-QMMM, RESP, rigid body optimization, SF, symmetry and pop. for TD-DFT, various functionals, SOLVATOR                                   
                                                                         
[Other institutions]                                                     
  V. Asgeirsson          : NEB                                           
  Christoph Bannwarth    : sTDA-DFT, sTD-DFT, PBEh-3c, B97-3c, D3        
  Giovanni Bistoni       : ETS/NOCV, ADLD/ADEX, COVALED                  
  Martin Brehm           : Molecular dynamics                            
  Ronald Cardenas        : ETS/NOCV                                      
  Martina Colucci        : COVALED                                       
  Sebastian Ehlert       : rSCAN, r2SCAN, r2SCAN-3c, D4, dhf basis sets  
  Marvin Friede          : D4 for Fr, Ra, Ac-Lr                          
  Lars Goerigk           : TD-DFT with DH, B97 family of functionals     
  Stefan Grimme          : VdW corrections, initial TS optimization, DFT functionals, gCP, sTDA/sTD-DF 
  Waldemar Hujo          : DFT-NL                                        
  H. Jonsson             : NEB                                           
  Holger Kruse           : gCP                                           
  Marcel Mueller         : wB97X-3c, vDZP basis set                      
  Hagen Neugebauer       : wr2SCAN, Native XTB                           
  Gianluca Regni         : ADLD/ADEX                                     
  Tobias Risthaus        : pre 6.0 range-separated hybrid DFT and stability analysis
  Lukas Wittmann         : regularized MP2, r2SCAN double-hybrids, wr2SCAN        
                                                                         
We gratefully acknowledge several colleagues who have allowed us to      
interface, adapt or use parts of their codes:                            
  Ed Valeev, F. Pavosevic, A. Kumar             : LibInt (2-el integral package), F12 methods 
  Garnet Chan, S. Sharma, J. Yang, R. Olivares  : DMRG                   
  Ulf Ekstrom                                   : XCFun DFT Library      
  Mihaly Kallay                                 : mrcc  (arbitrary order and MRCC methods)
  Frank Weinhold                                : gennbo (NPA and NBO analysis)           
  Simon Mueller                                 : openCOSMO-RS                            
  Christopher J. Cramer and Donald G. Truhlar   : smd solvation model                     
  S Lehtola, MJT Oliveira, MAL Marques          : LibXC Library                           
  Liviu Ungur et al                             : ANISO software                          


 Your calculation uses the libint2 library for the computation of 2-el integrals
 For citations please refer to: http://libint.valeyev.net

 Your ORCA version has been built with support for libXC version: 7.0.0
 For citations please refer to: https://libxc.gitlab.io

 This ORCA versions uses:
   CBLAS   interface :  Fast vector & matrix operations
   LAPACKE interface :  Fast linear algebra routines
   SCALAPACK package :  Parallel linear algebra routines
   Shared memory     :  Shared parallel matrices
   BLAS/LAPACK       :  OpenBLAS 0.3.29  USE64BITINT DYNAMIC_ARCH NO_AFFINITY Haswell SINGLE_THREADED
        Core in use  :  Haswell
   Copyright (c) 2011-2014, The OpenBLAS Project


  ***********************************
  * Starting time: Sun Jun  7 10:19:48 2026
  * Host name:     steezy
  * Process ID:    1815697
  * Working dir.:  /home/jannes/zntpp/04_tddft/wb97xd
  ***********************************

NOTE: MaxCore=3000 MB was set to SCF,MP2,MDCI,CIPSI,MRCI,RASCI and CIS
      => If you want to overwrite this, your respective input block should be placed after the MaxCore statement


***************************************
The coordinates will be read from file: /home/jannes/zntpp/01_opt/zntpp_opt_b3lyp_tzvp.xyz
***************************************


Your calculation utilizes the atom-pairwise dispersion correction
with the zero-damping scheme (D30)


XCFun DFT library Copyright 2009-2010 Ulf Ekstrom and contributors.
See http://admol.org/xcfun for more information.
This is free software; see the source code for copying conditions.
There is ABSOLUTELY NO WARRANTY; not even for MERCHANTABILITY or FITNESS FOR A PARTICULAR PURPOSE.
For details see the documentation.
Scientific users of this library should cite U. Ekstrom, L. Visscher, R. Bast, A. J. Thorvaldsen and K. Ruud;
J.Chem.Theor.Comp. 2010, DOI: 10.1021/ct100117s
XCFun Version 0.99 

================================================================================

----- Orbital basis set information -----
Your calculation utilizes the basis: def2-TZVP
   F. Weigend and R. Ahlrichs, Phys. Chem. Chem. Phys. 7, 3297 (2005).

----- AuxJ basis set information -----
Your calculation utilizes the auxiliary basis: def2/J
   H-Rn: F. Weigend, Phys. Chem. Chem. Phys. 8, 1057 (2006).
   Fr-Lr: K. Eichkorn, F. Weigend, O. Treutler, R. Ahlrichs; Theor. Chem. Acc. 97, 119 (1997).

================================================================================
                                        WARNINGS
                       Please study these warnings very carefully!
================================================================================


WARNING: CIS/ROCIS methods need fully converged wavefunctions
  ===> : Setting SCFConvForced true
         You can overwrite this default with %scf ConvForced false 


================================================================================
                                       INPUT FILE
================================================================================
NAME = tddft.inp
|  1> %pal nprocs 8 end
|  2> %maxcore 3000
|  3> ! wB97X-D3 def2-TZVP def2/J RIJCOSX DefGrid3 TightSCF CPCM(Toluene)
|  4> %tddft
|  5>   nroots 30
|  6>   triplets false
|  7>   tda false
|  8> end
|  9> * xyzfile 0 1 /home/jannes/zntpp/01_opt/zntpp_opt_b3lyp_tzvp.xyz
| 10> 
| 11>                          ****END OF INPUT****
================================================================================

                       ****************************
                       * Single Point Calculation *
                       ****************************

---------------------------------
CARTESIAN COORDINATES (ANGSTROEM)
---------------------------------
  N     -2.128555    2.521821    3.514445
  H      1.679246   -2.252277    3.911258
  C     -4.369984    3.012164    3.505335
  C     -0.398585   -1.573233    3.873891
  N      0.090194    0.658016    3.656874
  C      0.952938   -1.459784    3.844538
  H     -0.979263   -2.475782    3.964403
  C      2.863231    1.837944    3.504098
  N     -0.259990    4.728225    3.275318
  C     -1.122589    6.846120    3.087833
  C      2.554364    0.476189    3.636610
  C      2.674824    4.026514    3.291953
  N      1.958667    2.864378    3.417427
  C      4.084464    3.720155    3.302156
  C     -0.939698   -0.240836    3.759905
  C      1.258819   -0.056992    3.704356
  C     -2.844886    1.359138    3.633884
  C     -3.032921    3.549045    3.434948
  C     -4.254377    1.666475    3.632131
  C     -2.307798    0.068574    3.749698
  C     -2.724065    4.910402    3.298449
  C      4.200194    2.374421    3.428341
  C     -1.428614    5.442928    3.224110
  C      0.228839    6.958922    3.052384
  C      2.137843    5.317243    3.178366
  C      0.769957    5.627222    3.173980
  H     -5.276937    3.591548    3.463276
  H     -5.049608    0.945070    3.716870
  H      5.107132    1.794799    3.467075
  H      4.879663    4.442261    3.223116
  H      0.809563    7.860555    2.953271
  H     -1.848755    7.639233    3.027240
  Zn    -0.084939    2.693116    3.466029
  C      3.700933   -0.486388    3.712454
  C      4.108108   -1.201821    2.584245
  C      5.172729   -2.094184    2.653906
  C      5.846616   -2.285840    3.855097
  C      5.449547   -1.579336    4.985093
  C      4.385461   -0.686546    4.913199
  H      3.586791   -1.054134    1.646319
  H      5.476059   -2.638197    1.767767
  H      6.675289   -2.980820    3.910163
  H      5.966790   -1.723515    5.925774
  H      4.078223   -0.139324    5.796054
  C     -3.273085   -1.071472    3.872955
  C     -3.904249   -1.597407    2.743545
  C     -4.799157   -2.656094    2.857020
  C     -5.078087   -3.204960    4.103867
  C     -4.456253   -2.688836    5.235517
  C     -3.560665   -1.630988    5.119913
  H     -3.688530   -1.174051    1.770133
  H     -5.276922   -3.052614    1.969493
  H     -5.775165   -4.028894    4.193026
  H     -4.668895   -3.107985    6.211378
  H     -3.079623   -1.230870    6.004100
  C     -3.870369    5.873458    3.224899
  C     -4.316851    6.357914    1.993460
  C     -5.380713    7.251143    1.923794
  C     -6.014648    7.675094    3.086596
  C     -5.578392    7.199678    4.318409
  C     -4.515144    6.305553    4.385999
  H     -3.826760    6.029067    1.085176
  H     -5.714634    7.614108    0.959461
  H     -6.842757    8.370883    3.033211
  H     -6.064513    7.525507    5.229848
  H     -4.177530    5.938797    5.347664
  C      3.103506    6.456495    3.050290
  C      3.681960    6.765339    1.817145
  C      4.578273    7.821990    1.696512
  C      4.911261    8.586480    2.809338
  C      4.341889    8.287884    4.042364
  C      3.444819    7.231565    4.160802
  H      3.424173    6.173246    0.947507
  H      5.014892    8.048106    0.731401
  H      5.609397    9.409102    2.716387
  H      4.596585    8.876241    4.915382
  H      3.004811    7.001338    5.123468

----------------------------
CARTESIAN COORDINATES (A.U.)
----------------------------
  NO LB      ZA    FRAG     MASS         X           Y           Z
   0 N     7.0000    0    14.007   -4.022387    4.765551    6.641339
   1 H     1.0000    0     1.008    3.173315   -4.256187    7.391206
   2 C     6.0000    0    12.011   -8.258072    5.692164    6.624123
   3 C     6.0000    0    12.011   -0.753217   -2.972979    7.320593
   4 N     7.0000    0    14.007    0.170443    1.243470    6.910491
   5 C     6.0000    0    12.011    1.800792   -2.758593    7.265124
   6 H     1.0000    0     1.008   -1.850539   -4.678550    7.491636
   7 C     6.0000    0    12.011    5.410722    3.473212    6.621786
   8 N     7.0000    0    14.007   -0.491309    8.935051    6.189453
   9 C     6.0000    0    12.011   -2.121387   12.937293    5.835159
  10 C     6.0000    0    12.011    4.827048    0.899866    6.872197
  11 C     6.0000    0    12.011    5.054685    7.609008    6.220890
  12 N     7.0000    0    14.007    3.701344    5.412889    6.458002
  13 C     6.0000    0    12.011    7.718518    7.030075    6.240171
  14 C     6.0000    0    12.011   -1.775772   -0.455114    7.105191
  15 C     6.0000    0    12.011    2.378823   -0.107699    7.000218
  16 C     6.0000    0    12.011   -5.376055    2.568398    6.867046
  17 C     6.0000    0    12.011   -5.731390    6.706722    6.491111
  18 C     6.0000    0    12.011   -8.039608    3.149181    6.863732
  19 C     6.0000    0    12.011   -4.361106    0.129586    7.085902
  20 C     6.0000    0    12.011   -5.147736    9.279315    6.233166
  21 C     6.0000    0    12.011    7.937216    4.487005    6.478625
  22 C     6.0000    0    12.011   -2.699689   10.285644    6.092686
  23 C     6.0000    0    12.011    0.432443   13.150456    5.768170
  24 C     6.0000    0    12.011    4.039938   10.048134    6.006241
  25 C     6.0000    0    12.011    1.455009   10.633908    5.997954
  26 H     1.0000    0     1.008   -9.971966    6.787043    6.544643
  27 H     1.0000    0     1.008   -9.542376    1.785924    7.023866
  28 H     1.0000    0     1.008    9.651080    3.391678    6.551822
  29 H     1.0000    0     1.008    9.221226    8.394656    6.090807
  30 H     1.0000    0     1.008    1.529852   14.854296    5.580874
  31 H     1.0000    0     1.008   -3.493641   14.436059    5.720654
  32 Zn   30.0000    0    65.380   -0.160511    5.089252    6.549846
  33 C     6.0000    0    12.011    6.993749   -0.919139    7.015521
  34 C     6.0000    0    12.011    7.763199   -2.271113    4.883516
  35 C     6.0000    0    12.011    9.775042   -3.957434    5.015155
  36 C     6.0000    0    12.011   11.048503   -4.319612    7.285078
  37 C     6.0000    0    12.011   10.298150   -2.984512    9.420461
  38 C     6.0000    0    12.011    8.287321   -1.297384    9.284601
  39 H     1.0000    0     1.008    6.778052   -1.992024    3.111092
  40 H     1.0000    0     1.008   10.348252   -4.985469    3.340596
  41 H     1.0000    0     1.008   12.614468   -5.632934    7.389137
  42 H     1.0000    0     1.008   11.275599   -3.256971   11.198090
  43 H     1.0000    0     1.008    7.706724   -0.263284   10.952955
  44 C     6.0000    0    12.011   -6.185235   -2.024788    7.318825
  45 C     6.0000    0    12.011   -7.377961   -3.018662    5.184549
  46 C     6.0000    0    12.011   -9.069092   -5.019291    5.398985
  47 C     6.0000    0    12.011   -9.596194   -6.056498    7.755184
  48 C     6.0000    0    12.011   -8.421097   -5.081163    9.893693
  49 C     6.0000    0    12.011   -6.728682   -3.082121    9.675233
  50 H     1.0000    0     1.008   -6.970311   -2.218636    3.345067
  51 H     1.0000    0     1.008   -9.971937   -5.768605    3.721803
  52 H     1.0000    0     1.008  -10.913481   -7.613507    7.923671
  53 H     1.0000    0     1.008   -8.822933   -5.873241   11.737804
  54 H     1.0000    0     1.008   -5.819644   -2.326007   11.346104
  55 C     6.0000    0    12.011   -7.313938   11.099227    6.094176
  56 C     6.0000    0    12.011   -8.157666   12.014716    3.767093
  57 C     6.0000    0    12.011  -10.168074   13.702674    3.635443
  58 C     6.0000    0    12.011  -11.366038   14.503826    5.832822
  59 C     6.0000    0    12.011  -10.541634   13.605420    8.160611
  60 C     6.0000    0    12.011   -8.532386   11.915768    8.288337
  61 H     1.0000    0     1.008   -7.231528   11.393285    2.050685
  62 H     1.0000    0     1.008  -10.799093   14.388579    1.813119
  63 H     1.0000    0     1.008  -12.930936   15.818676    5.731938
  64 H     1.0000    0     1.008  -11.460269   14.221147    9.882980
  65 H     1.0000    0     1.008   -7.894387   11.222699   10.105620
  66 C     6.0000    0    12.011    5.864777   12.201007    5.764212
  67 C     6.0000    0    12.011    6.957897   12.784638    3.433906
  68 C     6.0000    0    12.011    8.651682   14.781419    3.205944
  69 C     6.0000    0    12.011    9.280939   16.226096    5.308880
  70 C     6.0000    0    12.011    8.204982   15.661831    7.638960
  71 C     6.0000    0    12.011    6.509765   13.665678    7.862776
  72 H     1.0000    0     1.008    6.470749   11.665745    1.790528
  73 H     1.0000    0     1.008    9.476772   15.208716    1.382147
  74 H     1.0000    0     1.008   10.600223   17.780626    5.133228
  75 H     1.0000    0     1.008    8.686286   16.773664    9.288725
  76 H     1.0000    0     1.008    5.678270   13.230612    9.681952

--------------------------------
INTERNAL COORDINATES (ANGSTROEM)
--------------------------------
 N      0   0   0     0.000000000000     0.00000000     0.00000000
 H      1   0   0     6.119544609553     0.00000000     0.00000000
 C      1   2   0     2.294454011207   140.79010051     0.00000000
 C      2   1   3     2.186293848341    33.40707509     0.34106114
 N      4   2   1     2.294443978057    95.80796136     0.08486163
 C      2   1   3     1.077042165850     3.92469267     1.90384846
 H      4   2   1     1.077021274757   104.51838878   179.96426994
 C      5   4   2     3.017499182404   125.50798452     0.13061668
 N      1   2   6     2.901196304498   101.41364134   181.77715198
 C      9   1   2     2.294495465089   117.81272053   180.03507050
 C      8   5   4     1.402617980696    54.07062945     0.00000000
 C      8   5   4     2.206884295453   108.31219866   179.74476543
 N     12   8   5     1.370833715702    36.39735210     0.13465003
 C     12   8   5     1.442582406246    72.85996634   180.04197634
 C      5   4   2     1.370849417385    36.41075581   180.34190992
 C      5   4   2     1.370829614730    70.79837857     0.21995082
 C      1   2   6     1.370849005387    69.99043058     1.66869440
 C      1   2   6     1.370906814200   177.19264341     5.66720204
 C      3   1   2     1.356583829775    72.80577004   359.93688133
 C     17   1   2     1.402651632840   125.97826882     0.08625359
 C     18   1  17     1.402611239747   125.98998775   180.28256348
 C     14  12   8     1.356582980699   107.13889860     0.18750469
 C      9   1   2     1.370804714242    81.40314079   179.95801682
 C     10   9   1     1.356590912637    72.80488243   180.14705619
 C     12   8   5     1.402580997285   162.38014338     0.78404173
 C      9   1   2     1.370859177061   171.38959537   359.93854590
 H      3   1   2     1.077042372642   159.67446324   180.23012340
 H     19   3   1     1.077031692090   127.50718792   179.84585378
 H     22  14  12     1.077032466449   127.52044500   179.72372799
 H     14  12   8     1.077044478741   125.34893106   180.19721276
 H     24  10   9     1.077036063129   127.52799022   179.86496916
 H     10   9   1     1.077040772020   159.68056758     0.49314505
 Zn    13  12   8     2.051345186941   126.39861605   180.01176353
 C     11   8   5     1.498975002703   117.37364575   180.12231805
 C     34  11   8     1.396599935545   120.73632797   260.81551720
 C     35  34  11     1.390892457345   120.75428931   179.94132756
 C     36  35  34     1.390581203293   120.17332090     0.05878968
 C     37  36  35     1.390576738799   119.57323724   359.97035164
 C     38  37  36     1.390870129530   120.17050613   359.97317460
 H     35  34  11     1.083185036027   119.29663277     0.09915726
 H     36  35  34     1.083143891364   119.71019389   180.16833060
 H     37  36  35     1.082925347053   120.21223093   179.97018105
 H     38  37  36     1.083147890456   120.11518343   179.85977205
 H     39  38  37     1.083181015268   119.94417075   179.90157384
 C     20  17   1     1.498891322754   117.38766669   179.87846531
 C     45  20  17     1.396618301307   120.72790326    80.31698157
 C     46  45  20     1.390883017252   120.75931779   179.94064434
 C     47  46  45     1.390569495532   120.17530433     0.06871198
 C     48  47  46     1.390573492617   119.57043939   359.97534587
 C     49  48  47     1.390856522021   120.17190858   359.96242902
 H     46  45  20     1.083187714850   119.31007218     0.11809285
 H     47  46  45     1.083139294676   119.70943531   180.17217182
 H     48  47  46     1.082928842322   120.21506749   179.96593587
 H     49  48  47     1.083147786706   120.11748509   179.84687948
 H     50  49  48     1.083181818228   119.93804654   179.90374115
 C     21  18   1     1.498966613937   117.38477927   179.77788255
 C     56  21  18     1.396597916529   120.70436538   261.16713757
 C     57  56  21     1.390867761343   120.76155285   179.97461334
 C     58  57  56     1.390582407448   120.17252421     0.05374361
 C     59  58  57     1.390576502422   119.56944005   359.96659070
 C     60  59  58     1.390872249240   120.17565657   359.97513983
 H     57  56  21     1.083194334658   119.30159898     0.11782789
 H     58  57  56     1.083136238093   119.71008709   180.15439003
 H     59  58  57     1.082929025331   120.21640663   179.97293344
 H     60  59  58     1.083142601943   120.11639336   179.88210610
 H     61  60  59     1.083186648078   119.93877736   179.91030740
 C     25  12   8     1.498934038660   117.36800041   179.52270751
 C     67  25  12     1.396653150260   120.68608494    81.09904729
 C     68  67  25     1.390841400961   120.76286134   180.00642566
 C     69  68  67     1.390578103786   120.17054410     0.05654456
 C     70  69  68     1.390573869412   119.57064401   359.96777865
 C     71  70  69     1.390888841300   120.17630173   359.97413960
 H     68  67  25     1.083189189182   119.30217305     0.15139686
 H     69  68  67     1.083145817904   119.71294294   180.15434617
 H     70  69  68     1.082931006480   120.21854136   179.97246096
 H     71  70  69     1.083140727035   120.11703831   179.87054230
 H     72  71  70     1.083207787092   119.93930250   179.90074954

---------------------------
INTERNAL COORDINATES (A.U.)
---------------------------
 N      0   0   0     0.000000000000     0.00000000     0.00000000
 H      1   0   0    11.564263376369     0.00000000     0.00000000
 C      1   2   0     4.335889708059   140.79010051     0.00000000
 C      2   1   3     4.131496621641    33.40707509     0.34106114
 N      4   2   1     4.335870748152    95.80796136     0.08486163
 C      2   1   3     2.035314728142     3.92469267     1.90384846
 H      4   2   1     2.035275249697   104.51838878   179.96426994
 C      5   4   2     5.702247064074   125.50798452     0.13061668
 N      1   2   6     5.482466476246   101.41364134   181.77715198
 C      9   1   2     4.335968044542   117.81272053   180.03507050
 C      8   5   4     2.650563854029    54.07062945     0.00000000
 C      8   5   4     4.170406927659   108.31219866   179.74476543
 N     12   8   5     2.590500297822    36.39735210     0.13465003
 C     12   8   5     2.726085673418    72.85996634   180.04197634
 C      5   4   2     2.590529969703    36.41075581   180.34190992
 C      5   4   2     2.590492548109    70.79837857     0.21995082
 C      1   2   6     2.590529191139    69.99043058     1.66869440
 C      1   2   6     2.590638433964   177.19264341     5.66720204
 C      3   1   2     2.563571915982    72.80577004   359.93688133
 C     17   1   2     2.650627447364   125.97826882     0.08625359
 C     18   1  17     2.650551115482   125.98998775   180.28256348
 C     14  12   8     2.563570311459   107.13889860     0.18750469
 C      9   1   2     2.590445493005    81.40314079   179.95801682
 C     10   9   1     2.563585300650    72.80488243   180.14705619
 C     12   8   5     2.650493965511   162.38014338     0.78404173
 C      9   1   2     2.590548412818   171.38959537   359.93854590
 H      3   1   2     2.035315118921   159.67446324   180.23012340
 H     19   3   1     2.035294935605   127.50718792   179.84585378
 H     22  14  12     2.035296398930   127.52044500   179.72372799
 H     14  12   8     2.035319098873   125.34893106   180.19721276
 H     24  10   9     2.035303195671   127.52799022   179.86496916
 H     10   9   1     2.035312094185   159.68056758     0.49314505
 Zn    13  12   8     3.876480609456   126.39861605   180.01176353
 C     11   8   5     2.832652236702   117.37364575   180.12231805
 C     34  11   8     2.639191396832   120.73632797   260.81551720
 C     35  34  11     2.628405826120   120.75428931   179.94132756
 C     36  35  34     2.627817641202   120.17332090     0.05878968
 C     37  36  35     2.627809204532   119.57323724   359.97035164
 C     38  37  36     2.628363632663   120.17050613   359.97317460
 H     35  34  11     2.046923070452   119.29663277     0.09915726
 H     36  35  34     2.046845318308   119.71019389   180.16833060
 H     37  36  35     2.046432329411   120.21223093   179.97018105
 H     38  37  36     2.046852875496   120.11518343   179.85977205
 H     39  38  37     2.046915472320   119.94417075   179.90157384
 C     20  17   1     2.832494104516   117.38766669   179.87846531
 C     45  20  17     2.639226103092   120.72790326    80.31698157
 C     46  45  20     2.628387986927   120.75931779   179.94064434
 C     47  46  45     2.627795516741   120.17530433     0.06871198
 C     48  47  46     2.627803070137   119.57043939   359.97534587
 C     49  48  47     2.628337918197   120.17190858   359.96242902
 H     46  45  20     2.046928132695   119.31007218     0.11809285
 H     47  46  45     2.046836631826   119.70943531   180.17217182
 H     48  47  46     2.046438934513   120.21506749   179.96593587
 H     49  48  47     2.046852679437   120.11748509   179.84687948
 H     50  49  48     2.046916989694   119.93804654   179.90374115
 C     21  18   1     2.832636384232   117.38477927   179.77788255
 C     56  21  18     2.639187581444   120.70436538   261.16713757
 C     57  56  21     2.628359157438   120.76155285   179.97461334
 C     58  57  56     2.627819916726   120.17252421     0.05374361
 C     59  58  57     2.627808757843   119.56944005   359.96659070
 C     60  59  58     2.628367638335   120.17565657   359.97513983
 H     57  56  21     2.046940642318   119.30159898     0.11782789
 H     58  57  56     2.046830855722   119.71008709   180.15439003
 H     59  58  57     2.046439280351   120.21640663   179.97293344
 H     60  59  58     2.046842881654   120.11639336   179.88210610
 H     61  60  59     2.046926116788   119.93877736   179.91030740
 C     25  12   8     2.832574825879   117.36800041   179.52270751
 C     67  25  12     2.639291958070   120.68608494    81.09904729
 C     68  67  25     2.628309343536   120.76286134   180.00642566
 C     69  68  67     2.627811783983   120.17054410     0.05654456
 C     70  69  68     2.627803782176   119.57064401   359.96777865
 C     71  70  69     2.628398992784   120.17630173   359.97413960
 H     68  67  25     2.046930918777   119.30217305     0.15139686
 H     69  68  67     2.046848958941   119.71294294   180.15434617
 H     70  69  68     2.046443024179   120.21854136   179.97246096
 H     71  70  69     2.046839338592   120.11703831   179.87054230
 H     72  71  70     2.046966063735   119.93930250   179.90074954

---------------------
BASIS SET INFORMATION
---------------------
There are 4 groups of distinct atoms

 Group   1 Type N   : 11s6p2d1f contracted to 5s3p2d1f pattern {62111/411/11/1}
 Group   2 Type H   : 5s1p contracted to 3s1p pattern {311/1}
 Group   3 Type C   : 11s6p2d1f contracted to 5s3p2d1f pattern {62111/411/11/1}
 Group   4 Type Zn  : 17s12p7d1f contracted to 6s5p4d1f pattern {842111/63111/4111/1}

Atom   0N    basis set group =>   1
Atom   1H    basis set group =>   2
Atom   2C    basis set group =>   3
Atom   3C    basis set group =>   3
Atom   4N    basis set group =>   1
Atom   5C    basis set group =>   3
Atom   6H    basis set group =>   2
Atom   7C    basis set group =>   3
Atom   8N    basis set group =>   1
Atom   9C    basis set group =>   3
Atom  10C    basis set group =>   3
Atom  11C    basis set group =>   3
Atom  12N    basis set group =>   1
Atom  13C    basis set group =>   3
Atom  14C    basis set group =>   3
Atom  15C    basis set group =>   3
Atom  16C    basis set group =>   3
Atom  17C    basis set group =>   3
Atom  18C    basis set group =>   3
Atom  19C    basis set group =>   3
Atom  20C    basis set group =>   3
Atom  21C    basis set group =>   3
Atom  22C    basis set group =>   3
Atom  23C    basis set group =>   3
Atom  24C    basis set group =>   3
Atom  25C    basis set group =>   3
Atom  26H    basis set group =>   2
Atom  27H    basis set group =>   2
Atom  28H    basis set group =>   2
Atom  29H    basis set group =>   2
Atom  30H    basis set group =>   2
Atom  31H    basis set group =>   2
Atom  32Zn   basis set group =>   4
Atom  33C    basis set group =>   3
Atom  34C    basis set group =>   3
Atom  35C    basis set group =>   3
Atom  36C    basis set group =>   3
Atom  37C    basis set group =>   3
Atom  38C    basis set group =>   3
Atom  39H    basis set group =>   2
Atom  40H    basis set group =>   2
Atom  41H    basis set group =>   2
Atom  42H    basis set group =>   2
Atom  43H    basis set group =>   2
Atom  44C    basis set group =>   3
Atom  45C    basis set group =>   3
Atom  46C    basis set group =>   3
Atom  47C    basis set group =>   3
Atom  48C    basis set group =>   3
Atom  49C    basis set group =>   3
Atom  50H    basis set group =>   2
Atom  51H    basis set group =>   2
Atom  52H    basis set group =>   2
Atom  53H    basis set group =>   2
Atom  54H    basis set group =>   2
Atom  55C    basis set group =>   3
Atom  56C    basis set group =>   3
Atom  57C    basis set group =>   3
Atom  58C    basis set group =>   3
Atom  59C    basis set group =>   3
Atom  60C    basis set group =>   3
Atom  61H    basis set group =>   2
Atom  62H    basis set group =>   2
Atom  63H    basis set group =>   2
Atom  64H    basis set group =>   2
Atom  65H    basis set group =>   2
Atom  66C    basis set group =>   3
Atom  67C    basis set group =>   3
Atom  68C    basis set group =>   3
Atom  69C    basis set group =>   3
Atom  70C    basis set group =>   3
Atom  71C    basis set group =>   3
Atom  72H    basis set group =>   2
Atom  73H    basis set group =>   2
Atom  74H    basis set group =>   2
Atom  75H    basis set group =>   2
Atom  76H    basis set group =>   2
---------------------------------
AUXILIARY/J BASIS SET INFORMATION
---------------------------------
There are 4 groups of distinct atoms

 Group   1 Type N   : 12s5p4d2f1g contracted to 6s4p3d1f1g pattern {711111/2111/211/2/1}
 Group   2 Type H   : 5s2p1d contracted to 3s1p1d pattern {311/2/1}
 Group   3 Type C   : 12s5p4d2f1g contracted to 6s4p3d1f1g pattern {711111/2111/211/2/1}
 Group   4 Type Zn  : 19s5p5d3f3g contracted to 8s5p5d2f3g pattern {121111111/11111/11111/21/111}

Atom   0N    basis set group =>   1
Atom   1H    basis set group =>   2
Atom   2C    basis set group =>   3
Atom   3C    basis set group =>   3
Atom   4N    basis set group =>   1
Atom   5C    basis set group =>   3
Atom   6H    basis set group =>   2
Atom   7C    basis set group =>   3
Atom   8N    basis set group =>   1
Atom   9C    basis set group =>   3
Atom  10C    basis set group =>   3
Atom  11C    basis set group =>   3
Atom  12N    basis set group =>   1
Atom  13C    basis set group =>   3
Atom  14C    basis set group =>   3
Atom  15C    basis set group =>   3
Atom  16C    basis set group =>   3
Atom  17C    basis set group =>   3
Atom  18C    basis set group =>   3
Atom  19C    basis set group =>   3
Atom  20C    basis set group =>   3
Atom  21C    basis set group =>   3
Atom  22C    basis set group =>   3
Atom  23C    basis set group =>   3
Atom  24C    basis set group =>   3
Atom  25C    basis set group =>   3
Atom  26H    basis set group =>   2
Atom  27H    basis set group =>   2
Atom  28H    basis set group =>   2
Atom  29H    basis set group =>   2
Atom  30H    basis set group =>   2
Atom  31H    basis set group =>   2
Atom  32Zn   basis set group =>   4
Atom  33C    basis set group =>   3
Atom  34C    basis set group =>   3
Atom  35C    basis set group =>   3
Atom  36C    basis set group =>   3
Atom  37C    basis set group =>   3
Atom  38C    basis set group =>   3
Atom  39H    basis set group =>   2
Atom  40H    basis set group =>   2
Atom  41H    basis set group =>   2
Atom  42H    basis set group =>   2
Atom  43H    basis set group =>   2
Atom  44C    basis set group =>   3
Atom  45C    basis set group =>   3
Atom  46C    basis set group =>   3
Atom  47C    basis set group =>   3
Atom  48C    basis set group =>   3
Atom  49C    basis set group =>   3
Atom  50H    basis set group =>   2
Atom  51H    basis set group =>   2
Atom  52H    basis set group =>   2
Atom  53H    basis set group =>   2
Atom  54H    basis set group =>   2
Atom  55C    basis set group =>   3
Atom  56C    basis set group =>   3
Atom  57C    basis set group =>   3
Atom  58C    basis set group =>   3
Atom  59C    basis set group =>   3
Atom  60C    basis set group =>   3
Atom  61H    basis set group =>   2
Atom  62H    basis set group =>   2
Atom  63H    basis set group =>   2
Atom  64H    basis set group =>   2
Atom  65H    basis set group =>   2
Atom  66C    basis set group =>   3
Atom  67C    basis set group =>   3
Atom  68C    basis set group =>   3
Atom  69C    basis set group =>   3
Atom  70C    basis set group =>   3
Atom  71C    basis set group =>   3
Atom  72H    basis set group =>   2
Atom  73H    basis set group =>   2
Atom  74H    basis set group =>   2
Atom  75H    basis set group =>   2
Atom  76H    basis set group =>   2


           ************************************************************
           *        Program running with 8 parallel MPI-processes     *
           *              working on a common directory               *
           ************************************************************
------------------------------------------------------------------------------
                             ORCA STARTUP CALCULATIONS
                           -- RI-GTO INTEGRALS CHOSEN --
------------------------------------------------------------------------------
------------------------------------------------------------------------------
                   ___                                                        
                  /   \      - P O W E R E D   B Y -                         
                 /     \                                                     
                 |  |  |   _    _      __       _____    __    __             
                 |  |  |  | |  | |    /  \     |  _  \  |  |  /  |          
                  \  \/   | |  | |   /    \    | | | |  |  | /  /          
                 / \  \   | |__| |  /  /\  \   | |_| |  |  |/  /          
                |  |  |   |  __  | /  /__\  \  |    /   |      \           
                |  |  |   | |  | | |   __   |  |    \   |  |\   \          
                \     /   | |  | | |  |  |  |  | |\  \  |  | \   \       
                 \___/    |_|  |_| |__|  |__|  |_| \__\ |__|  \__/        
                                                                              
                      - O R C A' S   B I G   F R I E N D -                    
                                      &                                       
                       - I N T E G R A L  F E E D E R -                       
                                                                              
 v1 FN, 2020, v2 2021, v3 2022-2024                                           
------------------------------------------------------------------------------


----------------------
SHARK INTEGRAL PACKAGE
----------------------

Number of atoms                             ...     77
Number of basis functions                   ...   1704
Number of shells                            ...    656
Maximum angular momentum                    ...      3
Integral batch strategy                     ... SHARK/LIBINT Hybrid
RI-J (if used) integral strategy            ... SPLIT-RIJ (Revised 2003 algorithm where possible)
Printlevel                                  ...      1
Contraction scheme used                     ... SEGMENTED contraction
Prescreening option                         ... SCHWARTZ
   Thresh                                   ... 2.500e-11
   Tcut                                     ... 2.500e-12
   Tpresel                                  ... 2.500e-12 
Coulomb Range Separation                    ... NOT USED
Exchange Range Separation                   ... Long Range
   Mu parameter                             ... 2.500e-01
   Scaling (regular/separated)              ... 1.957e-01 8.043e-01
Robust (split-)RI terms used:
  metric    (central integrals)             ... YES
  density   (r.h.s.  integrals)             ... YES
  potential (l.h.s.  integrals)             ... YES
Multipole approximations                    ... NOT USED
Finite Nucleus Model                        ... NOT USED
CABS basis                                  ... NOT available
Auxiliary Coulomb fitting basis             ... AVAILABLE
   # of basis functions in Aux-J            ...   2749
   # of shells in Aux-J                     ...    883
   Maximum angular momentum in Aux-J        ...      4
Auxiliary J/K fitting basis                 ... NOT available
Auxiliary Correlation fitting basis         ... NOT available
Auxiliary 'external' fitting basis          ... NOT available

Checking pre-screening integrals            ... done (  0.0 sec) Dimension = 656
   => SHARK Basis and OBASIS are compatible. Storing Pre-screening
Shell pair information
Shell pair cut-off parameter TPreSel        ...   2.5e-12
Total number of shell pairs                 ...    215496
Shell pairs after pre-screening             ...    104313
Total number of primitive shell pairs       ...    680394
Primitive shell pairs kept                  ...    202009
          la=0 lb=0:  24656 shell pairs
          la=1 lb=0:  30604 shell pairs
          la=1 lb=1:   9373 shell pairs
          la=2 lb=0:  14863 shell pairs
          la=2 lb=1:   9372 shell pairs
          la=2 lb=2:   2256 shell pairs
          la=3 lb=0:   6615 shell pairs
          la=3 lb=1:   4225 shell pairs
          la=3 lb=2:   1902 shell pairs
          la=3 lb=3:    447 shell pairs

Checking whether 4 symmetric matrices of dimension 1704 fit in memory
:Max Core in MB      =   3000.00
 MB in use           =    127.60
 MB left             =   2872.40
 MB needed           =     44.33
 Data fit in memory  = YES
Calculating RI/J V-Matrix + Cholesky decomp.... done (  3.4 sec)
Calculating Nuclear repulsion               ... done (  0.0 sec) ENN=   6465.853143938957 Eh

Diagonalization of the overlap matrix:
Smallest eigenvalue                        ... 2.950e-06
Time for diagonalization                   ...    1.652 sec
Threshold for overlap eigenvalues          ... 1.000e-07
Number of eigenvalues below threshold      ... 0
Time for construction of square roots      ...    1.002 sec
Total time needed                          ...    2.727 sec

-------------------
DFT GRID GENERATION
-------------------

General Integration Accuracy     IntAcc      ... 4.959
Radial Grid Type                 RadialGrid  ... OptM3 with GC (2021)
Angular Grid (max. ang.)         AngularGrid ... 6 (Lebedev-590)
Angular grid pruning method      GridPruning ... 4 (adaptive)
Weight generation scheme         WeightScheme... mBecke (2022)
Basis function cutoff            BFCut       ... 1.0000e-11
Integration weight cutoff        WCut        ... 1.0000e-14
Partially contracted basis set               ... off
Rotationally invariant grid construction     ... off
Angular grids for H and He will be reduced by one unit
Core-polarized basis detected: some atoms will have their core
                               angular grid increased.

Total number of grid points                  ...   939385
Total number of batches                      ...    14718
Average number of points per batch           ...       63
Average number of grid points per atom       ...    12200

--------------------
COSX GRID GENERATION
--------------------

GRIDX 1
-------
General Integration Accuracy     IntAcc      ... 4.020
Radial Grid Type                 RadialGrid  ... OptM3 with GC (2021)
Angular Grid (max. ang.)         AngularGrid ... 2 (Lebedev-110)
Angular grid pruning method      GridPruning ... 4 (adaptive)
Weight generation scheme         WeightScheme... mBecke (2022)
Basis function cutoff            BFCut       ... 1.0000e-11
Integration weight cutoff        WCut        ... 1.0000e-14
Partially contracted basis set               ... on
Rotationally invariant grid construction     ... off
Angular grids for H and He will be reduced by one unit
Core-polarized basis detected: some atoms will have their core
                               angular grid increased.

Total number of grid points                  ...   108499
Total number of batches                      ...      892
Average number of points per batch           ...      121
Average number of grid points per atom       ...     1409
UseSFitting                                  ... on

GRIDX 2
-------
General Integration Accuracy     IntAcc      ... 4.338
Radial Grid Type                 RadialGrid  ... OptM3 with GC (2021)
Angular Grid (max. ang.)         AngularGrid ... 3 (Lebedev-194)
Angular grid pruning method      GridPruning ... 4 (adaptive)
Weight generation scheme         WeightScheme... mBecke (2022)
Basis function cutoff            BFCut       ... 1.0000e-11
Integration weight cutoff        WCut        ... 1.0000e-14
Partially contracted basis set               ... on
Rotationally invariant grid construction     ... off
Angular grids for H and He will be reduced by one unit
Core-polarized basis detected: some atoms will have their core
                               angular grid increased.

Total number of grid points                  ...   230678
Total number of batches                      ...     1839
Average number of points per batch           ...      125
Average number of grid points per atom       ...     2996
UseSFitting                                  ... on

GRIDX 3
-------
General Integration Accuracy     IntAcc      ... 4.871
Radial Grid Type                 RadialGrid  ... OptM3 with GC (2021)
Angular Grid (max. ang.)         AngularGrid ... 4 (Lebedev-302)
Angular grid pruning method      GridPruning ... 4 (adaptive)
Weight generation scheme         WeightScheme... mBecke (2022)
Basis function cutoff            BFCut       ... 1.0000e-11
Integration weight cutoff        WCut        ... 1.0000e-14
Partially contracted basis set               ... on
Rotationally invariant grid construction     ... off
Angular grids for H and He will be reduced by one unit
Core-polarized basis detected: some atoms will have their core
                               angular grid increased.

Total number of grid points                  ...   424616
Total number of batches                      ...     3347
Average number of points per batch           ...      126
Average number of grid points per atom       ...     5514
UseSFitting                                  ... on
Grids setup in  75.3 sec
Initializing property integral containers    ... done (  0.0 sec)

SHARK setup successfully completed in  87.3 seconds

Maximum memory used throughout the entire STARTUP-calculation: 343.3 MB


           ************************************************************
           *        Program running with 8 parallel MPI-processes     *
           *              working on a common directory               *
           ************************************************************
-------------------------------------------------------------------------------
                                 ORCA GUESS
                   Start orbitals & Density for SCF / CASSCF
-------------------------------------------------------------------------------

------------
SCF SETTINGS
------------
Hamiltonian:
 Density Functional     Method          .... DFT(GTOs)
 Exchange Functional    Exchange        .... WB97X-D3
 Correlation Functional Correlation     .... WB97X-D3
 Gradients option       PostSCFGGA      .... off
 Hybrid DFT is turned on
   Fraction HF Exchange ScalHFX         ....  0.195728
   Scaling of DF-GGA-X  ScalDFX         ....  0.000000
   Scaling of DF-GGA-C  ScalDFC         ....  1.000000
   Scaling of DF-LDA-C  ScalLDAC        ....  1.000000
   Perturbative correction              ....  0.000000
 Long-range corrected/Screened/Range-Separated Hybrid DFT is turned on
   Amount of maximum screened exact exchange              ....  0.804272
   Range separation parameter mu (erf(mu*r12)/r12)        ....  0.250000
 RI-approximation to the Coulomb term is turned on
   Number of AuxJ basis functions       .... 2749
   RIJ-COSX (HFX calculated with COS-X)).... on


General Settings:
 Integral files         IntName         .... tddft
 Hartree-Fock type      HFTyp           .... RHF
 Total Charge           Charge          ....    0
 Multiplicity           Mult            ....    1
 Number of Electrons    NEL             ....  350
 Basis Dimension        Dim             .... 1704
 Nuclear Repulsion      ENuc            ....   6465.8531439390 Eh

Convergence Acceleration:
 AO-DIIS                CNVDIIS         .... on
   Start iteration      DIISMaxIt       ....    12
   Startup error        DIISStart       ....  0.200000
   # of expansion vecs  DIISMaxEq       ....     5
   Bias factor          DIISBfac        ....   1.050
   Max. coefficient     DIISMaxC        ....  10.000
 MO-DIIS                CNVKDIIS        .... off
 Trust-Rad. Augm. Hess. CNVTRAH         .... auto
   Auto Start mean grad. ratio tolernc. ....  1.125000
   Auto Start start iteration           ....    50
   Auto Start num. interpolation iter.  ....    10
   Max. Number of Micro iterations      ....    24
   Max. Number of Macro iterations      .... Maxiter - #DIIS iter
   Number of Davidson start vectors     ....     2
   Converg. threshold    (grad. norm)   ....   1.000e-05
   Grad. Scal. Fac. for Micro threshold ....   0.100
   Minimum threshold for Micro iter.    ....   1.000e-02
   NR start threshold (gradient norm)   ....   1.000e-04
   Initial trust radius                 ....   0.400
   Minimum AH scaling param. (alpha)    ....   1.000
   Maximum AH scaling param. (alpha)    .... 1000.000
   Quad. conv. algorithm                .... NR
   White noise on init. David. guess    .... on
   Maximum white noise                  ....   0.010
   Pseudo random numbers                .... off
   Inactive MOs                         .... canonical
   Orbital update algorithm             .... Taylor
   Preconditioner                       .... Diag
   Full preconditioner red. dimension   ....   250
 SOSCF                 CNVSOSCF           .... on
   Start iteration     SOSCFMaxIt         ....   150
   Startup grad/error  SOSCFStart         ....  0.003300
   Hessian update      SOSCFHessUp        .... L-BFGS
   Autom. constraints  SOSCFAutoConstrain .... off
 Level Shifting         CNVShift        .... on
   Level shift para.    LevelShift      ....    0.2500
   Turn off err/grad.   ShiftErr        ....    0.0010
 Zerner damping         CNVZerner       .... off
 Static damping         CNVDamp         .... on
   Fraction old density DampFac         ....    0.7000
   Max. Damping (<1)    DampMax         ....    0.9800
   Min. Damping (>=0)   DampMin         ....    0.0000
   Turn off err/grad.   DampErr         ....    0.1000

SCF Procedure:
 Maximum # iterations   MaxIter         ....   125
 SCF integral mode      SCFMode         .... Direct
   Integral package                     .... SHARK and LIBINT hybrid scheme
 Reset frequency        DirectResetFreq ....    20
 Integral Threshold     Thresh          ....  2.500e-11 Eh
 Primitive CutOff       TCut            ....  2.500e-12 Eh

Convergence Tolerance:
 Convergence Check Mode ConvCheckMode   .... Total+1el-Energy
 Convergence forced     ConvForced      .... 1
 Energy Change          TolE            ....  1.000e-08 Eh
 1-El. energy change                    ....  1.000e-05 Eh
 Orbital Gradient       TolG            ....  1.000e-05
 Orbital Rotation angle TolX            ....  1.000e-05
 DIIS Error             TolErr          ....  5.000e-07

------------------------------
INITIAL GUESS: MODEL POTENTIAL
------------------------------
Loading Hartree-Fock densities                     ... done
Calculating cut-offs                               ... done
Initializing the effective Hamiltonian             ... done
Setting up the integral package (SHARK)            ... done
Starting the Coulomb interaction                   ... done (   8.2 sec)
Making the grid                                    ... done (   2.1 sec)
Mapping shells                                     ... done
Starting the XC term evaluation                    ... done (   2.6 sec)
  promolecular density results
     # of electrons  =    349.984735077
     EX              =   -329.213710840
     EC              =    -12.231181830
     EX+EC           =   -341.444892670
Transforming the Hamiltonian                       ... done (   0.9 sec)
Diagonalizing the Hamiltonian                      ... done (   4.9 sec)
Back transforming the eigenvectors                 ... done (   3.5 sec)
Now organizing SCF variables                       ... done
                      ------------------
                      INITIAL GUESS DONE (  23.0 sec)
                      ------------------
             **** ENERGY FILE WAS UPDATED (tddft.en.tmp) ****
Finished Guess after  27.3 sec
Maximum memory used throughout the entire GUESS-calculation: 208.9 MB


           ************************************************************
           *        Program running with 8 parallel MPI-processes     *
           *              working on a common directory               *
           ************************************************************

-------------------------------------------------------------------------------------------
                                      ORCA LEAN-SCF
                              memory conserving SCF solver
-------------------------------------------------------------------------------------------

--------------------
CPCM SOLVATION MODEL
--------------------
CPCM parameters:
  Epsilon                                         ...       2.3870
  Refrac                                          ...       1.4961
  Rsolv                                           ...       1.3000
  Surface type                                    ... GAUSSIAN VDW
  Discretization scheme                           ... Constant charge density
    Threshold for H atoms                         ...       5.0000 (charges/Ang^2)
    Threshold for non-H atoms                     ...       5.0000 (charges/Ang^2)
  Epsilon function type                           ...         CPCM
Solvent:                                          ... TOLUENE
Radii:
  Scheme                                          ... Element-dependent radii
  Radius for N  used is    3.5149 Bohr (=   1.8600 Ang.)
  Radius for H  used is    2.4944 Bohr (=   1.3200 Ang.)
  Radius for C  used is    3.8550 Bohr (=   2.0400 Ang.)
  Radius for Zn used is    3.1521 Bohr (=   1.6680 Ang.)
Calculating surface                               ...        done! (  0.1s)
Cavity surface points                             ...         6832
Cavity Volume                                     ...    4920.2253
Cavity Surface-area                               ...    2294.3185
Calculating surface distance matrix               ...        done! (  4.6s)
Performing Cholesky decomposition & store         ...        done! ( 11.3s)
Overall time for CPCM initialization              ...                15.9s

----------------------------------------D-I-I-S--------------------------------------------
Iteration    Energy (Eh)           Delta-E    RMSDP     MaxDP     DIISErr   Damp  Time(sec)
-------------------------------------------------------------------------------------------
               ***  Starting incremental Fock matrix formation  ***
    1    -3691.1603718954975193     0.00e+00  2.19e-03  8.71e-02  3.41e-01  0.700 541.6
    2    -3691.5570453731506859    -3.97e-01  1.58e-03  4.75e-02  1.05e-01  0.700 211.8
                               ***Turning on AO-DIIS***
    3    -3691.7648343631153693    -2.08e-01  9.96e-04  2.77e-02  5.04e-02  0.700 244.6
    4    -3691.8905829439718218    -1.26e-01  2.28e-03  5.28e-02  3.89e-02  0.000 283.2
    5    -3692.1668076900659798    -2.76e-01  3.41e-04  1.31e-02  1.36e-02  0.000 250.3
    6    -3692.1674728219131794    -6.65e-04  1.37e-04  4.15e-03  1.61e-02  0.000 218.9
    7    -3692.1677734435706952    -3.01e-04  6.85e-05  3.26e-03  7.53e-03  0.000 198.4
                              *** Initializing SOSCF ***
---------------------------------------S-O-S-C-F--------------------------------------
Iteration    Energy (Eh)           Delta-E    RMSDP     MaxDP     MaxGrad    Time(sec)
--------------------------------------------------------------------------------------
    8    -3692.1678304700926674    -5.70e-05  5.59e-05  1.32e-03  2.52e-03   163.0
               *** Restarting incremental Fock matrix formation ***
    9    -3692.1678469123398827    -1.64e-05  1.47e-04  2.63e-03  3.23e-04   547.7
   10    -3692.1678505352665525    -3.62e-06  6.66e-05  1.20e-03  1.43e-04   374.2
   11    -3692.1678511247973802    -5.90e-07  5.29e-05  9.61e-04  7.76e-05   355.9
   12    -3692.1678514656596235    -3.41e-07  2.29e-05  7.48e-04  1.61e-05   328.3
   13    -3692.1678514799277764    -1.43e-08  1.58e-05  5.44e-04  1.79e-05   259.0
   14    -3692.1678514476352575     3.23e-08  1.85e-05  7.57e-04  6.44e-06   208.7
   15    -3692.1678514316572546     1.60e-08  1.41e-05  7.33e-04  6.90e-06   193.7
   16    -3692.1678513372244197     9.44e-08  9.99e-06  5.97e-04  1.77e-06   169.4
                  *** Gradient check signals convergence ***

               *****************************************************
               *                     SUCCESS                       *
               *           SCF CONVERGED AFTER  16 CYCLES          *
               *****************************************************

Recomputing exchange energy using gridx3       ... done (  494.240 sec)
Old exchange energy                            :   -102.967440171 Eh
New exchange energy                            :   -102.967433814 Eh
Exchange energy change after final integration :      0.000006358 Eh
Total energy after final integration           :  -3692.167844978 Eh
             **** ENERGY FILE WAS UPDATED (tddft.en.tmp) ****

----------------
TOTAL SCF ENERGY
----------------

Total Energy       :      -3692.16784497761000 Eh         -100468.99481 eV

Components:
Nuclear Repulsion  :       6465.85314393895715 Eh          175944.80891 eV
Electronic Energy  :     -10158.00645521230035 Eh         -276413.40823 eV
One Electron Energy:     -17955.54428670036214 Eh         -488595.19974 eV
Two Electron Energy:       7797.53783148806087 Eh          212181.79151 eV
CPCM Dielectric    :         -0.01454006196109 Eh              -0.39566 eV

Virial components:
Potential Energy   :      -7372.72638429253675 Eh         -200622.08435 eV
Kinetic Energy     :       3680.55853931492720 Eh          100153.08954 eV
Virial Ratio       :          2.00315422388713

DFT components:
N(Alpha)           :      174.999975778395 electrons
N(Beta)            :      174.999975778395 electrons
N(Total)           :      349.999951556790 electrons
E(XC)              :     -245.181017206223 Eh       

CPCM Solvation Model Properties:
Surface-charge          :         -0.04849914901527
Corrected charge        :          0.00000000000000
Outlying charge corr.   :          0.00005362611678 Eh               0.00146 eV
Free-energy (cav+disp)  :  This term is not implemented in the current solvation scheme

---------------
SCF CONVERGENCE
---------------

  Last Energy change         ...   -9.4433e-08  Tolerance :   1.0000e-08
  Last MAX-Density change    ...    5.9746e-04  Tolerance :   1.0000e-07
  Last RMS-Density change    ...    9.9918e-06  Tolerance :   5.0000e-09
  Last DIIS Error            ...    2.5160e-03  Tolerance :   5.0000e-07
  Last Orbital Gradient      ...    1.7726e-06  Tolerance :   1.0000e-05
  Last Orbital Rotation      ...    2.0127e-06  Tolerance :   1.0000e-05


----------------
ORBITAL ENERGIES
----------------

  NO   OCC          E(Eh)            E(eV) 
   0   2.0000    -347.306766     -9450.6976 
   1   2.0000     -42.276278     -1150.3960 
   2   2.0000     -37.248580     -1013.5854 
   3   2.0000     -37.240298     -1013.3600 
   4   2.0000     -37.240298     -1013.3600 
   5   2.0000     -14.422538      -392.4572 
   6   2.0000     -14.422527      -392.4569 
   7   2.0000     -14.422513      -392.4565 
   8   2.0000     -14.422498      -392.4561 
   9   2.0000     -10.317215      -280.7457 
  10   2.0000     -10.317199      -280.7453 
  11   2.0000     -10.317196      -280.7452 
  12   2.0000     -10.317188      -280.7450 
  13   2.0000     -10.317172      -280.7445 
  14   2.0000     -10.317162      -280.7442 
  15   2.0000     -10.317157      -280.7441 
  16   2.0000     -10.317153      -280.7440 
  17   2.0000     -10.304066      -280.3879 
  18   2.0000     -10.304041      -280.3872 
  19   2.0000     -10.304029      -280.3869 
  20   2.0000     -10.304017      -280.3866 
  21   2.0000     -10.296635      -280.1857 
  22   2.0000     -10.296625      -280.1854 
  23   2.0000     -10.296622      -280.1853 
  24   2.0000     -10.296610      -280.1850 
  25   2.0000     -10.283483      -279.8278 
  26   2.0000     -10.283480      -279.8277 
  27   2.0000     -10.283475      -279.8276 
  28   2.0000     -10.283471      -279.8275 
  29   2.0000     -10.283398      -279.8255 
  30   2.0000     -10.283396      -279.8254 
  31   2.0000     -10.283389      -279.8253 
  32   2.0000     -10.283389      -279.8252 
  33   2.0000     -10.282890      -279.8117 
  34   2.0000     -10.282887      -279.8116 
  35   2.0000     -10.282884      -279.8115 
  36   2.0000     -10.282878      -279.8113 
  37   2.0000     -10.282781      -279.8087 
  38   2.0000     -10.282779      -279.8086 
  39   2.0000     -10.282775      -279.8085 
  40   2.0000     -10.282771      -279.8084 
  41   2.0000     -10.282310      -279.7959 
  42   2.0000     -10.282309      -279.7959 
  43   2.0000     -10.282301      -279.7956 
  44   2.0000     -10.282301      -279.7956 
  45   2.0000     -10.278345      -279.6880 
  46   2.0000     -10.278334      -279.6877 
  47   2.0000     -10.278330      -279.6876 
  48   2.0000     -10.278329      -279.6875 
  49   2.0000     -10.277591      -279.6675 
  50   2.0000     -10.277580      -279.6672 
  51   2.0000     -10.277576      -279.6671 
  52   2.0000     -10.277575      -279.6670 
  53   2.0000      -4.900691      -133.3546 
  54   2.0000      -3.296422       -89.7002 
  55   2.0000      -3.285220       -89.3954 
  56   2.0000      -3.285215       -89.3952 
  57   2.0000      -1.086195       -29.5569 
  58   2.0000      -1.076799       -29.3012 
  59   2.0000      -1.076796       -29.3011 
  60   2.0000      -1.066533       -29.0218 
  61   2.0000      -0.990568       -26.9547 
  62   2.0000      -0.986682       -26.8490 
  63   2.0000      -0.986676       -26.8488 
  64   2.0000      -0.984929       -26.8013 
  65   2.0000      -0.944296       -25.6956 
  66   2.0000      -0.926188       -25.2029 
  67   2.0000      -0.926182       -25.2027 
  68   2.0000      -0.907480       -24.6938 
  69   2.0000      -0.886597       -24.1255 
  70   2.0000      -0.885688       -24.1008 
  71   2.0000      -0.885682       -24.1006 
  72   2.0000      -0.879372       -23.9289 
  73   2.0000      -0.866344       -23.5744 
  74   2.0000      -0.866234       -23.5714 
  75   2.0000      -0.866229       -23.5713 
  76   2.0000      -0.866174       -23.5698 
  77   2.0000      -0.859389       -23.3852 
  78   2.0000      -0.851800       -23.1787 
  79   2.0000      -0.851797       -23.1786 
  80   2.0000      -0.834541       -22.7090 
  81   2.0000      -0.825359       -22.4592 
  82   2.0000      -0.773308       -21.0428 
  83   2.0000      -0.773307       -21.0428 
  84   2.0000      -0.731337       -19.9007 
  85   2.0000      -0.718930       -19.5631 
  86   2.0000      -0.718644       -19.5553 
  87   2.0000      -0.718638       -19.5551 
  88   2.0000      -0.718419       -19.5492 
  89   2.0000      -0.712029       -19.3753 
  90   2.0000      -0.712007       -19.3747 
  91   2.0000      -0.705097       -19.1867 
  92   2.0000      -0.704993       -19.1838 
  93   2.0000      -0.692780       -18.8515 
  94   2.0000      -0.671325       -18.2677 
  95   2.0000      -0.671318       -18.2675 
  96   2.0000      -0.660823       -17.9819 
  97   2.0000      -0.656501       -17.8643 
  98   2.0000      -0.653905       -17.7937 
  99   2.0000      -0.634984       -17.2788 
 100   2.0000      -0.634978       -17.2786 
 101   2.0000      -0.632365       -17.2075 
 102   2.0000      -0.628045       -17.0900 
 103   2.0000      -0.622146       -16.9295 
 104   2.0000      -0.622137       -16.9292 
 105   2.0000      -0.607073       -16.5193 
 106   2.0000      -0.593503       -16.1500 
 107   2.0000      -0.593491       -16.1497 
 108   2.0000      -0.572028       -15.5657 
 109   2.0000      -0.572011       -15.5652 
 110   2.0000      -0.571505       -15.5514 
 111   2.0000      -0.567852       -15.4520 
 112   2.0000      -0.564788       -15.3687 
 113   2.0000      -0.562992       -15.3198 
 114   2.0000      -0.560190       -15.2436 
 115   2.0000      -0.560184       -15.2434 
 116   2.0000      -0.559583       -15.2270 
 117   2.0000      -0.559090       -15.2136 
 118   2.0000      -0.552443       -15.0327 
 119   2.0000      -0.552439       -15.0326 
 120   2.0000      -0.547102       -14.8874 
 121   2.0000      -0.544632       -14.8202 
 122   2.0000      -0.530860       -14.4454 
 123   2.0000      -0.524062       -14.2604 
 124   2.0000      -0.521652       -14.1949 
 125   2.0000      -0.521645       -14.1947 
 126   2.0000      -0.521146       -14.1811 
 127   2.0000      -0.520914       -14.1748 
 128   2.0000      -0.520908       -14.1746 
 129   2.0000      -0.520610       -14.1665 
 130   2.0000      -0.519477       -14.1357 
 131   2.0000      -0.512861       -13.9557 
 132   2.0000      -0.512852       -13.9554 
 133   2.0000      -0.509359       -13.8604 
 134   2.0000      -0.499232       -13.5848 
 135   2.0000      -0.499227       -13.5847 
 136   2.0000      -0.498885       -13.5753 
 137   2.0000      -0.485101       -13.2003 
 138   2.0000      -0.484955       -13.1963 
 139   2.0000      -0.480999       -13.0886 
 140   2.0000      -0.479535       -13.0488 
 141   2.0000      -0.477938       -13.0054 
 142   2.0000      -0.477931       -13.0052 
 143   2.0000      -0.469462       -12.7747 
 144   2.0000      -0.465745       -12.6736 
 145   2.0000      -0.465743       -12.6735 
 146   2.0000      -0.452815       -12.3217 
 147   2.0000      -0.444405       -12.0929 
 148   2.0000      -0.444135       -12.0855 
 149   2.0000      -0.440044       -11.9742 
 150   2.0000      -0.440038       -11.9740 
 151   2.0000      -0.439677       -11.9642 
 152   2.0000      -0.439672       -11.9641 
 153   2.0000      -0.438965       -11.9449 
 154   2.0000      -0.429291       -11.6816 
 155   2.0000      -0.417852       -11.3703 
 156   2.0000      -0.417826       -11.3696 
 157   2.0000      -0.413804       -11.2602 
 158   2.0000      -0.372054       -10.1241 
 159   2.0000      -0.372001       -10.1227 
 160   2.0000      -0.356405        -9.6983 
 161   2.0000      -0.348586        -9.4855 
 162   2.0000      -0.346915        -9.4400 
 163   2.0000      -0.345943        -9.4136 
 164   2.0000      -0.345919        -9.4129 
 165   2.0000      -0.343101        -9.3363 
 166   2.0000      -0.341325        -9.2879 
 167   2.0000      -0.341303        -9.2873 
 168   2.0000      -0.340570        -9.2674 
 169   2.0000      -0.338156        -9.2017 
 170   2.0000      -0.338118        -9.2007 
 171   2.0000      -0.336239        -9.1495 
 172   2.0000      -0.335484        -9.1290 
 173   2.0000      -0.258595        -7.0367 
 174   2.0000      -0.256268        -6.9734 
 175   0.0000      -0.041548        -1.1306 
 176   0.0000      -0.041535        -1.1302 
 177   0.0000       0.040751         1.1089 
 178   0.0000       0.056772         1.5449 
 179   0.0000       0.058002         1.5783 
 180   0.0000       0.058018         1.5787 
 181   0.0000       0.058204         1.5838 
 182   0.0000       0.059322         1.6142 
 183   0.0000       0.059938         1.6310 
 184   0.0000       0.061039         1.6609 
 185   0.0000       0.061055         1.6614 
*Only the first 10 virtual orbitals were printed.

                    ********************************
                    * MULLIKEN POPULATION ANALYSIS *
                    ********************************

-----------------------
MULLIKEN ATOMIC CHARGES
-----------------------
   0 N :   -0.230372
   1 H :    0.177495
   2 C :   -0.248227
   3 C :   -0.248419
   4 N :   -0.231576
   5 C :   -0.248487
   6 H :    0.177613
   7 C :    0.195408
   8 N :   -0.231522
   9 C :   -0.248593
  10 C :    0.047505
  11 C :    0.195212
  12 N :   -0.230397
  13 C :   -0.248386
  14 C :    0.193683
  15 C :    0.196181
  16 C :    0.194248
  17 C :    0.195339
  18 C :   -0.248213
  19 C :    0.050973
  20 C :    0.046000
  21 C :   -0.248286
  22 C :    0.197203
  23 C :   -0.248075
  24 C :    0.047423
  25 C :    0.195025
  26 H :    0.177360
  27 H :    0.177568
  28 H :    0.177425
  29 H :    0.177428
  30 H :    0.177429
  31 H :    0.177391
  32 Zn:    0.262144
  33 C :   -0.028922
  34 C :   -0.202194
  35 C :   -0.154326
  36 C :   -0.120437
  37 C :   -0.154186
  38 C :   -0.202628
  39 H :    0.149764
  40 H :    0.143139
  41 H :    0.145297
  42 H :    0.143271
  43 H :    0.149817
  44 C :   -0.026800
  45 C :   -0.204094
  46 C :   -0.153567
  47 C :   -0.120847
  48 C :   -0.153468
  49 C :   -0.204803
  50 H :    0.149863
  51 H :    0.143202
  52 H :    0.145304
  53 H :    0.143288
  54 H :    0.149788
  55 C :   -0.029913
  56 C :   -0.201568
  57 C :   -0.154800
  58 C :   -0.120009
  59 C :   -0.154925
  60 C :   -0.200833
  61 H :    0.149671
  62 H :    0.143181
  63 H :    0.145274
  64 H :    0.143179
  65 H :    0.149654
  66 C :   -0.030022
  67 C :   -0.201390
  68 C :   -0.154958
  69 C :   -0.120027
  70 C :   -0.154696
  71 C :   -0.200833
  72 H :    0.149698
  73 H :    0.143204
  74 H :    0.145285
  75 H :    0.143184
  76 H :    0.149688
Sum of atomic charges:   -0.0000000

--------------------------------
MULLIKEN REDUCED ORBITAL CHARGES
--------------------------------
  0 N s       :     3.650003  s :     3.650003
      pz      :     1.362826  p :     3.512885
      px      :     1.127104
      py      :     1.022955
      dz2     :     0.005033  d :     0.063792
      dxz     :     0.006549
      dyz     :     0.014257
      dx2y2   :     0.018048
      dxy     :     0.019906
      f0      :     0.000670  f :     0.003692
      f+1     :     0.000326
      f-1     :     0.000441
      f+2     :     0.000117
      f-2     :     0.000602
      f+3     :     0.000604
      f-3     :     0.000933

  1 H s       :     0.799957  s :     0.799957
      pz      :     0.004561  p :     0.022548
      px      :     0.008676
      py      :     0.009312

  2 C s       :     3.241830  s :     3.241830
      pz      :     0.986649  p :     2.913957
      px      :     0.944120
      py      :     0.983187
      dz2     :     0.005572  d :     0.084741
      dxz     :     0.009234
      dyz     :     0.019643
      dx2y2   :     0.019540
      dxy     :     0.030753
      f0      :     0.001499  f :     0.007698
      f+1     :     0.000765
      f-1     :     0.000660
      f+2     :     0.000919
      f-2     :     0.000424
      f+3     :     0.002253
      f-3     :     0.001178

  3 C s       :     3.241604  s :     3.241604
      pz      :     0.985184  p :     2.914390
      px      :     0.985141
      py      :     0.944065
      dz2     :     0.005181  d :     0.084727
      dxz     :     0.020158
      dyz     :     0.009116
      dx2y2   :     0.019464
      dxy     :     0.030808
      f0      :     0.001539  f :     0.007698
      f+1     :     0.000570
      f-1     :     0.000783
      f+2     :     0.000965
      f-2     :     0.000415
      f+3     :     0.001158
      f-3     :     0.002268

  4 N s       :     3.650940  s :     3.650940
      pz      :     1.363262  p :     3.513145
      px      :     1.020084
      py      :     1.129798
      dz2     :     0.004906  d :     0.063800
      dxz     :     0.014440
      dyz     :     0.006443
      dx2y2   :     0.018028
      dxy     :     0.019983
      f0      :     0.000673  f :     0.003692
      f+1     :     0.000431
      f-1     :     0.000333
      f+2     :     0.000113
      f-2     :     0.000598
      f+3     :     0.000941
      f-3     :     0.000604

  5 C s       :     3.241936  s :     3.241936
      pz      :     0.983420  p :     2.914124
      px      :     1.000571
      py      :     0.930133
      dz2     :     0.005419  d :     0.084729
      dxz     :     0.018040
      dyz     :     0.010948
      dx2y2   :     0.021164
      dxy     :     0.029158
      f0      :     0.001526  f :     0.007699
      f+1     :     0.000610
      f-1     :     0.000763
      f+2     :     0.001237
      f-2     :     0.000134
      f+3     :     0.001287
      f-3     :     0.002142

  6 H s       :     0.799831  s :     0.799831
      pz      :     0.004594  p :     0.022556
      px      :     0.006919
      py      :     0.011043

  7 C s       :     3.183751  s :     3.183751
      pz      :     0.933515  p :     2.443147
      px      :     0.858778
      py      :     0.650854
      dz2     :     0.003921  d :     0.163137
      dxz     :     0.029563
      dyz     :     0.035510
      dx2y2   :     0.051732
      dxy     :     0.042411
      f0      :     0.002202  f :     0.014557
      f+1     :     0.000955
      f-1     :     0.001138
      f+2     :     0.000702
      f-2     :     0.002266
      f+3     :     0.003531
      f-3     :     0.003764

  8 N s       :     3.650913  s :     3.650913
      pz      :     1.363372  p :     3.513117
      px      :     1.020032
      py      :     1.129713
      dz2     :     0.004901  d :     0.063800
      dxz     :     0.014447
      dyz     :     0.006445
      dx2y2   :     0.018024
      dxy     :     0.019982
      f0      :     0.000673  f :     0.003692
      f+1     :     0.000431
      f-1     :     0.000332
      f+2     :     0.000113
      f-2     :     0.000598
      f+3     :     0.000941
      f-3     :     0.000604

  9 C s       :     3.242273  s :     3.242273
      pz      :     0.985609  p :     2.913846
      px      :     0.999858
      py      :     0.928380
      dz2     :     0.005359  d :     0.084774
      dxz     :     0.018055
      dyz     :     0.011031
      dx2y2   :     0.021169
      dxy     :     0.029160
      f0      :     0.001528  f :     0.007699
      f+1     :     0.000613
      f-1     :     0.000760
      f+2     :     0.001236
      f-2     :     0.000133
      f+3     :     0.001286
      f-3     :     0.002143

 10 C s       :     3.373844  s :     3.373844
      pz      :     0.972989  p :     2.445086
      px      :     0.715524
      py      :     0.756573
      dz2     :     0.003036  d :     0.123901
      dxz     :     0.022478
      dyz     :     0.023760
      dx2y2   :     0.027815
      dxy     :     0.046811
      f0      :     0.001625  f :     0.009664
      f+1     :     0.000801
      f-1     :     0.000832
      f+2     :     0.000820
      f-2     :     0.001147
      f+3     :     0.002661
      f-3     :     0.001778

 11 C s       :     3.184425  s :     3.184425
      pz      :     0.932353  p :     2.442699
      px      :     0.863068
      py      :     0.647278
      dz2     :     0.004013  d :     0.163107
      dxz     :     0.028087
      dyz     :     0.036929
      dx2y2   :     0.050744
      dxy     :     0.043333
[...]
  0-1A  -> 16-1A    5.135082   41417.2   241.4   0.201319312   0.05699   0.21316  -0.10725   0.00690
  0-1A  -> 17-1A    5.137760   41438.8   241.3   0.030209929   0.00856  -0.01470  -0.09088   0.00894
  0-1A  -> 18-1A    5.170574   41703.5   239.8   0.000033180   0.00001  -0.00275  -0.00137   0.00019
  0-1A  -> 19-1A    5.181465   41791.3   239.3   0.045092526   0.01288  -0.08576   0.07410  -0.00587
  0-1A  -> 20-1A    5.181916   41795.0   239.3   0.045511630   0.01300  -0.07487  -0.08546   0.00954
  0-1A  -> 21-1A    5.201375   41951.9   238.4   0.001247063   0.00036   0.00122  -0.00366  -0.01851
  0-1A  -> 22-1A    5.358878   43222.3   231.4   0.000069756   0.00002   0.00261  -0.00362   0.00084
  0-1A  -> 23-1A    5.367299   43290.2   231.0   0.002139339   0.00063   0.02018  -0.01490   0.00187
  0-1A  -> 24-1A    5.367861   43294.7   231.0   0.002182067   0.00065   0.01530   0.02021  -0.00182
  0-1A  -> 25-1A    5.425012   43755.7   228.5   0.001147656   0.00034  -0.00042  -0.00195  -0.01842
  0-1A  -> 26-1A    5.455020   43997.7   227.3   0.000001866   0.00000   0.00032   0.00067  -0.00009
  0-1A  -> 27-1A    5.537835   44665.7   223.9   0.000016219   0.00000   0.00060  -0.00188  -0.00102
  0-1A  -> 28-1A    5.618693   45317.8   220.7   0.039177879   0.01213  -0.10864  -0.01480   0.01062
  0-1A  -> 29-1A    5.618770   45318.4   220.7   0.039047281   0.01209   0.01581  -0.10862   0.00672
  0-1A  -> 30-1A    5.629218   45402.7   220.3   0.021290287   0.00661  -0.00930  -0.00581  -0.08054

------------------------------------------------------------------------------------------
                     CD SPECTRUM VIA TRANSITION ELECTRIC DIPOLE MOMENTS    
------------------------------------------------------------------------------------------
     Transition      Energy     Energy  Wavelength    R        MX        MY        MZ   
                      (eV)      (cm-1)    (nm)   (1e40*cgs)   (au)      (au)      (au)  
------------------------------------------------------------------------------------------
  0-1A  ->  1-1A    2.128856   17170.4   582.4   -0.32135   0.00513   0.00544  -0.00026
  0-1A  ->  2-1A    2.129069   17172.1   582.3   -0.32359  -0.00574   0.00510  -0.00058
  0-1A  ->  3-1A    3.207517   25870.4   386.5  -10.11928  -0.00271  -0.00366   0.00019
  0-1A  ->  4-1A    3.207718   25872.0   386.5  -12.61884  -0.00525   0.00146  -0.00021
  0-1A  ->  5-1A    3.936757   31752.1   314.9    0.13897  -0.01848   0.21281  -0.01910
  0-1A  ->  6-1A    3.936966   31753.8   314.9   -0.04329   0.21372   0.01827  -0.00367
  0-1A  ->  7-1A    4.217961   34020.2   293.9    2.12636  -0.02267  -0.13429  -1.41159
  0-1A  ->  8-1A    4.280749   34526.6   289.6    0.00116   0.00002   0.00067   0.00490
  0-1A  ->  9-1A    4.403358   35515.5   281.6   -3.47762  -0.00749  -0.00019  -0.00030
  0-1A  -> 10-1A    4.403722   35518.4   281.5   -2.61405  -0.00096  -0.00557   0.00052
  0-1A  -> 11-1A    4.527406   36516.0   273.9   -0.00017  -0.00003   0.00010  -0.00014
  0-1A  -> 12-1A    4.796199   38684.0   258.5   -0.00047  -0.00005   0.00035   0.00003
  0-1A  -> 13-1A    4.887788   39422.7   253.7   -0.00211  -0.00016  -0.00080  -0.00023
  0-1A  -> 14-1A    5.026233   40539.3   246.7   -0.00018  -0.00013   0.00008  -0.00030
  0-1A  -> 15-1A    5.134048   41408.9   241.5  -31.97514  -0.02834  -0.04898   0.00739
  0-1A  -> 16-1A    5.135082   41417.2   241.4  -36.27483  -0.05433   0.02735   0.00048
  0-1A  -> 17-1A    5.137760   41438.8   241.3   -5.16484   0.00408   0.02160  -0.00497
  0-1A  -> 18-1A    5.170574   41703.5   239.8    0.02911  -0.00302  -0.00195   0.00413
  0-1A  -> 19-1A    5.181465   41791.3   239.3   16.26745  -0.04392   0.03773  -0.00496
  0-1A  -> 20-1A    5.181916   41795.0   239.3   16.32690  -0.03752  -0.04276   0.01605
  0-1A  -> 21-1A    5.201375   41951.9   238.4   27.27935  -0.00735  -0.05869  -0.58863
  0-1A  -> 22-1A    5.358878   43222.3   231.4    0.28499   0.01616  -0.01993   0.00606
  0-1A  -> 23-1A    5.367299   43290.2   231.0    9.66456   0.12855  -0.09616   0.01530
  0-1A  -> 24-1A    5.367861   43294.7   231.0   10.03096   0.10087   0.13081  -0.01255
  0-1A  -> 25-1A    5.425012   43755.7   228.5  -14.95758   0.00326   0.03403   0.34400
  0-1A  -> 26-1A    5.455020   43997.7   227.3   -0.00063   0.00009  -0.00045  -0.00009
  0-1A  -> 27-1A    5.537835   44665.7   223.9    0.05554   0.00716  -0.01196   0.00320
  0-1A  -> 28-1A    5.618693   45317.8   220.7   87.33508  -0.33971  -0.04566  -0.00835
  0-1A  -> 29-1A    5.618770   45318.4   220.7   88.07835   0.05379  -0.33783   0.03975
  0-1A  -> 30-1A    5.629218   45402.7   220.3  -42.21311  -0.01350   0.02667   0.22843

------------------------------------------------------------------------------------------
                     CD SPECTRUM VIA TRANSITION VELOCITY DIPOLE MOMENTS    
------------------------------------------------------------------------------------------
     Transition      Energy     Energy  Wavelength    R        MX        MY        MZ   
                      (eV)      (cm-1)    (nm)   (1e40*cgs)   (au)      (au)      (au)  
------------------------------------------------------------------------------------------
  0-1A  ->  1-1A    2.128856   17170.4   582.4   -0.31944   0.00513   0.00544  -0.00026
  0-1A  ->  2-1A    2.129069   17172.1   582.3   -0.32177  -0.00574   0.00510  -0.00058
  0-1A  ->  3-1A    3.207517   25870.4   386.5  -10.08762  -0.00271  -0.00366   0.00019
  0-1A  ->  4-1A    3.207718   25872.0   386.5  -12.57943  -0.00525   0.00146  -0.00021
  0-1A  ->  5-1A    3.936757   31752.1   314.9    0.14362  -0.01848   0.21281  -0.01910
  0-1A  ->  6-1A    3.936966   31753.8   314.9   -0.04267   0.21372   0.01827  -0.00367
  0-1A  ->  7-1A    4.217961   34020.2   293.9    1.30500  -0.02267  -0.13429  -1.41159
  0-1A  ->  8-1A    4.280749   34526.6   289.6    0.00114   0.00002   0.00067   0.00490
  0-1A  ->  9-1A    4.403358   35515.5   281.6   -3.46827  -0.00749  -0.00019  -0.00030
  0-1A  -> 10-1A    4.403722   35518.4   281.5   -2.60703  -0.00096  -0.00557   0.00052
  0-1A  -> 11-1A    4.527406   36516.0   273.9   -0.00016  -0.00003   0.00010  -0.00014
  0-1A  -> 12-1A    4.796199   38684.0   258.5   -0.00046  -0.00005   0.00035   0.00003
  0-1A  -> 13-1A    4.887788   39422.7   253.7   -0.00210  -0.00016  -0.00080  -0.00023
  0-1A  -> 14-1A    5.026233   40539.3   246.7   -0.00018  -0.00013   0.00008  -0.00030
  0-1A  -> 15-1A    5.134048   41408.9   241.5  -31.94983  -0.02834  -0.04898   0.00739
  0-1A  -> 16-1A    5.135082   41417.2   241.4  -36.24849  -0.05433   0.02735   0.00048
  0-1A  -> 17-1A    5.137760   41438.8   241.3   -5.16208   0.00408   0.02160  -0.00497
  0-1A  -> 18-1A    5.170574   41703.5   239.8    0.02916  -0.00302  -0.00195   0.00413
  0-1A  -> 19-1A    5.181465   41791.3   239.3   16.31848  -0.04392   0.03773  -0.00496
  0-1A  -> 20-1A    5.181916   41795.0   239.3   16.37945  -0.03752  -0.04276   0.01605
  0-1A  -> 21-1A    5.201375   41951.9   238.4   27.38249  -0.00735  -0.05869  -0.58863
  0-1A  -> 22-1A    5.358878   43222.3   231.4    0.28581   0.01616  -0.01993   0.00606
  0-1A  -> 23-1A    5.367299   43290.2   231.0    9.69513   0.12855  -0.09616   0.01530
  0-1A  -> 24-1A    5.367861   43294.7   231.0   10.05975   0.10087   0.13081  -0.01255
  0-1A  -> 25-1A    5.425012   43755.7   228.5  -15.14295   0.00326   0.03403   0.34400
  0-1A  -> 26-1A    5.455020   43997.7   227.3   -0.00062   0.00009  -0.00045  -0.00009
  0-1A  -> 27-1A    5.537835   44665.7   223.9    0.05448   0.00716  -0.01196   0.00320
  0-1A  -> 28-1A    5.618693   45317.8   220.7   85.60438  -0.33971  -0.04566  -0.00835
  0-1A  -> 29-1A    5.618770   45318.4   220.7   86.33743   0.05379  -0.33783   0.03975
  0-1A  -> 30-1A    5.629218   45402.7   220.3  -41.99315  -0.01350   0.02667   0.22843

Total run time:    11011.265 sec

           *** ORCA-CIS/TD-DFT FINISHED WITHOUT ERROR ***
-----------------------
CIS/TD-DFT TOTAL ENERGY
-----------------------

    E(SCF)  =  -3692.167844978 Eh
    DE(CIS) =      0.078234041 Eh (Root  1)
    ----------------------------- ---------
    E(tot)  =  -3692.089610936 Eh


Maximum memory used throughout the entire CIS-calculation: 2479.5 MB
=> NOW LEAVING ORCA_CIS


-------------------------------------------------------------------------------
                          DFT DISPERSION CORRECTION                            
                                                                               
                              DFTD3 V3.1  Rev 1                                
                              USING zero damping                               
-------------------------------------------------------------------------------
The omegaB97X-D3 functional is recognized. Fit by Chai et al.
Active option DFTDOPT                   ...         3   

molecular C6(AA) [au] = 86927.450083 


            DFT-D V3
 parameters
 s6 scaling factor         :     1.0000 
 rs6 scaling factor        :     1.2810 
 s8 scaling factor         :     1.0000 
 rs8 scaling factor        :     1.0940 
 Damping factor alpha6     :    14.0000 
 Damping factor alpha8     :    16.0000 
 ad hoc parameters k1-k3   :    16.0000     1.3333    -4.0000 

 Edisp/kcal,au: -29.130973168183  -0.046423155769 
 E6   /kcal   : -14.236495106 
 E8   /kcal   : -14.894478062 
 % E8         :  51.129352859 

-------------------------   ----------------
Dispersion correction           -0.046423156
-------------------------   ----------------


-------------------------   --------------------
FINAL SINGLE POINT ENERGY     -3692.136034091917
-------------------------   --------------------



           ************************************************************
           *        Program running with 8 parallel MPI-processes     *
           *              working on a common directory               *
           ************************************************************

------------------------------------------------------------------------------
                              ORCA PROPERTY CALCULATIONS
------------------------------------------------------------------------------

GBWName                                 ... tddft.gbw
Number of atoms                         ...     77
Number of basis functions               ...   1704
Max core memory                         ...   3000 MB

Electric properties:
Dipole moment                           ... YES
Quadrupole moment                       ...  NO
Static polarizability (Dipole/Dipole)   ...  NO
Static polarizability (Dipole/Quad.)    ...  NO
Static polarizability (Quad./Quad.)     ...  NO
Static polarizability (Velocity)        ...  NO
Static hyperpolarizability              ...  NO

Atomic electric properties:
Dipole moment                           ...  NO
Quadrupole moment                       ...  NO
Static polarizability                   ...  NO

Choice of electric origin               ... Center of mass
Position of electric origin             ...    -0.159900     5.089041     6.548333

General magnetic properties:
Magnetizability                         ...  NO

EPR properties:
g-Tensor (aka g-matrix)                 ...  NO
Zero-Field splitting spin-orbit         ...  NO
Zero-field splitting spin-spin          ...  NO
Hyperfine couplings                     ...  NO (   0 nuclei)
Quadrupole couplings                    ...  NO (   0 nuclei)
Contact density                         ...  NO (   0 nuclei)

NMR properties:
Chemical shifts                         ...  NO (   0 nuclei)
Spin-rotation constants                 ...  NO (   0 nuclei)
Spin-spin couplings                     ...  NO (   0 nuclei,    0 pairs)

Choice of magnetic origin               ... GIAO
Position of magnetic origin             ...     0.000000     0.000000     0.000000

Properties with geometric perturbations:
SCF Hessian                             ...  NO
IR spectrum                             ...  NO
VCD spectrum                            ...  NO
X-ray spectroscopy properties:
SCF XES/XAS/RIXS spectra                ...  NO

SCF SOC stabilization energy            ...  NO
Diagonal Born-Oppenheimer correction    ...  NO

-------------
DIPOLE MOMENT
-------------

Method             : SCF
Type of density    : Electron Density
Multiplicity       :   1
Irrep              :   0
Energy             : -3692.1678449776100024 Eh
Basis              : AO
                                X                 Y                 Z
Electronic contribution:     -0.008504980       0.002562763       0.018562921
Nuclear contribution   :      0.009078313      -0.003119452      -0.019187423
                        -----------------------------------------
Total Dipole Moment    :      0.000573334      -0.000556689      -0.000624502
                        -----------------------------------------
Magnitude (a.u.)       :      0.001014207
Magnitude (Debye)      :      0.002577910



--------------------
Rotational spectrum 
--------------------
 
Rotational constants in cm-1:             0.001946             0.001946             0.001013 
Rotational constants in MHz :            58.342005            58.333325            30.369733 

Dipole components along the rotational axes: 
x,y,z [a.u.] :     0.000597    -0.000479    -0.000666 
x,y,z [Debye]:     0.001516    -0.001218    -0.001692 

 

Dipole moment calculation done in   0.1 sec 

Maximum memory used throughout the entire PROP-calculation: 234.8 MB

--------------------------------
SUGGESTED CITATIONS FOR THIS RUN
--------------------------------

Below you find a list of papers that are relevant to this ORCA run
We neither can nor want to force you to cite these papers, but we appreciate if you do
You receive ORCA, which is the product of decades of hard work by many enthusiastic individuals, for free
The only thing we kindly ask in return is that you cite our papers,
We deeply appreciate it, if you show your appreciation for ORCA by not just citing the generic ORCA reference.

Please note that relegating all ORCA citations to the supporting information does *not* help us.
SI sections are not indexed - citations you put there will not count into any citation statistics
But we need these citations in order to attract the funding resources that allow us to do what we are doing

Therefore, if you are a happy ORCA user, please consider citing a few of the papers listed below in the main body of your paper

In addition to the list printed below, the program has created the file tddft.bibtex that contains the list in bibtex format
You can import this file easily into all common literature databanks and citation aid programs

It goes without saying that in many instances, there are alternative algorithms to achieve similar
results as the ones you have gotten from ORCA. It is, of course, also the case that in some instances
ORCA just re-implements algorithms worked out by others. We are fully aware of that and we are also
fully appreciative of our colleagues work. Hence this citation list should not be read as indicating
that the listed papers, which are focused on our own work, are the only ones worth citing. It simply
meant to make it easier for users to cite ORCA specific papers. It is not a substitute for doing your
own literature research and citing the relevant literature in a scientifically appropriate manner.

List of essential papers. We consider these as the minimum necessary citations

  1. Neese, F.
     Software update: the ORCA program system, version 6.0
     WIRES Comput. Molec. Sci. 2025 15(1), e70019
     doi.org/10.1002/wcms.70019

List of papers to cite with high priority. The work reported in these papers was absolutely
necessary for this run to complete.
Our perspective: the developers of density functionals and basis sets usually get cited in chemistry papers
Good! But without the algorithms to do something with them, the functionals or basis sets would not do anything.
Hence, in our opinion, the algorithm design and method developments papers are equally worthy of getting cited

  1. Neese, F.; Olbrich, G.
     Efficient use of the resolution of the identity approximation in time-dependent density functional calculations with hybrid density functionals
     Chem. Phys. Lett. 2002 362 , 170-178
     doi.org/10.1016/s0009-2614(02)01053-9
  2. Neese, F.
     An improvement of the resolution of the identity approximation for the formation of the Coulomb matrix
     J. Comp. Chem. 2003 24(14), 1740-1747
     doi.org/10.1002/jcc.10318
  3. Neese, F.; Wennmohs, F.; Hansen, A.; Becker, U.
     Efficient, approximate and parallel Hartree-Fock and hybrid DFT calculations. A 'chain-of-spheres' algorithm for the Hartree-Fock exchange
     Chem. Phys. 2009 356(1-3), 98-109
     doi.org/10.1016/j.chemphys.2008.10.036
  4. Grimme, S.; Antony, J.; Ehrlich, S.; Krieg, H.
     A consistent and accurate ab initio parametrization of density functional dispersion correction (DFT-D) for the 94 elements H-Pu
     J. Chem. Phys. 2010 132 , 154104
     doi.org/10.1063/1.3382344
  5. Garcia-Rates, M.; Neese, F.
     Effect of the Solute Cavity on the Solvation Energy and its Derivatives within the Framework of the Gaussian Charge Scheme
     J. Comput. Chem. 2020 41 , 922-939
     doi.org/10.1002/jcc.26139
  6. Helmich-Paris, B.; de Souza, B.; Neese, F.; Izsák, R.
     An improved chain of spheres for exchange algorithm
     J. Chem. Phys. 2021 155(10), 104109
     doi.org/10.1063/5.0058766
  7. Neese, F.
     The SHARK Integral Generation and Digestion System
     J. Comp. Chem. 2022 44(3), 381
     doi.org/10.1002/jcc.26942

List of suggested additional citations. These are papers that are important in the 'surrounding' of 
of this run, or papers that preceded the highly important papers. If you like your results we are grateful for a citation.

  1. Izsak, R.; Neese, F.
     An overlap fitted chain of spheres exchange method
     J. Chem. Phys. 2011 135 , 144105
     doi.org/10.1063/1.3646921
  2. Izsak, R.; Hansen, A.; Neese, F.
     The resolution of identity and chain of spheres approximations for the LPNO-CCSD singles Fock term
     Molec. Phys. 2012 110 , 2413-2417
     doi.org/10.1080/00268976.2012.687466
  3. Neese, F.
     The ORCA program system
     WIRES Comput. Molec. Sci. 2012 2(1), 73-78
     doi.org/10.1002/wcms.81
  4. Izsak, R.; Neese, F.; Klopper, W.
     Robust fitting techniques in the chain of spheres approximation to the Fock exchange: The role of the complementary space
     J. Chem. Phys. 2013 139 , 
     doi.org/10.1063/1.4819264
  5. Neese, F.
     Software update: the ORCA program system, version 4.0
     WIRES Comput. Molec. Sci. 2018 8(1), 1-6
     doi.org/10.1002/wcms.1327
  6. Neese, F.; Wennmohs, F.; Becker, U.; Riplinger, C.
     The ORCA quantum chemistry program package
     J. Chem. Phys. 2020 152(22), 224108
     doi.org/10.1063/5.0004608
  7. Neese, F.
     Software update: The ORCA program system—Version 5.0
     WIRES Comput. Molec. Sci. 2022 12(1), e1606
     doi.org/10.1002/wcms.1606

List of optional additional citations

  1. Neese, F.
     Approximate second-order SCF convergence for spin unrestricted wavefunctions
     Chem. Phys. Lett. 2000 325(1-3), 93-98
     doi.org/10.1016/s0009-2614(00)00662-x

Timings for individual modules:

Sum of individual times          ...    16322.268 sec (= 272.038 min)
Startup calculation              ...       89.375 sec (=   1.490 min)   0.5 %
SCF iterations                   ...     5217.500 sec (=  86.958 min)  32.0 %
Property integrals               ...        2.293 sec (=   0.038 min)   0.0 %
Property calculations            ...        1.120 sec (=   0.019 min)   0.0 %
CIS module                       ...    11011.981 sec (= 183.533 min)  67.5 %
                             ****ORCA TERMINATED NORMALLY****
TOTAL RUN TIME: 0 days 4 hours 32 minutes 2 seconds 768 msec
