
                                 *****************
                                 * O   R   C   A *
                                 *****************

                                            #,                                       
                                            ###                                      
                                            ####                                     
                                            #####                                    
                                            ######                                   
                                           ########,                                 
                                     ,,################,,,,,                         
                               ,,#################################,,                 
                          ,,##########################################,,             
                       ,#########################################, ''#####,          
                    ,#############################################,,   '####,        
                  ,##################################################,,,,####,       
                ,###########''''           ''''###############################       
              ,#####''   ,,,,##########,,,,          '''####'''          '####       
            ,##' ,,,,###########################,,,                        '##       
           ' ,,###''''                  '''############,,,                           
         ,,##''                                '''############,,,,        ,,,,,,###''
      ,#''                                            '''#######################'''  
     '                                                          ''''####''''         
             ,#######,   #######,   ,#######,      ##                                
            ,#'     '#,  ##    ##  ,#'     '#,    #''#        ,####,    ,#,          
            ##       ##  ##   ,#'  ##            #'  '#       #'       ,# #          
            ##       ##  #######   ##           ,######,      #####,      #          
            '#,     ,#'  ##    ##  '#,     ,#' ,#      #,     #,   #      #          
             '#######'   ##     ##  '#######'  #'      '#     '####' #    #          



                #########################################################
                #                        -***-                          #
                #          Department of theory and spectroscopy        #
                #                                                       #
                #                      Frank Neese                      #
                #                                                       #
                #     Directorship, Architecture, Infrastructure        #
                #                    SHARK, DRIVERS                     #
                #        Core code/Algorithms in most modules           #
                #                                                       #
                #        Max Planck Institute fuer Kohlenforschung      #
                #                Kaiser Wilhelm Platz 1                 #
                #                 D-45470 Muelheim/Ruhr                 #
                #                      Germany                          #
                #                                                       #
                #                  All rights reserved                  #
                #                        -***-                          #
                #########################################################


                         Program Version 6.1.1  -  RELEASE   -
                                (GIT: $487d211c$)
                          ($2025-11-21 10:33:24 +0100$)


 With contributions from (in alphabetic order):
[Max-Planck-Institut fuer Kohlenforschung]                               
  Daniel Aravena         : Magnetic Suceptibility                        
  Michael Atanasov       : Ab Initio Ligand Field Theory (pilot matlab implementation)
  Alexander A. Auer      : GIAO ZORA, VPT2 properties, NMR spectrum      
  Ute Becker             : All parallelization in ORCA, NUMFREQ, NUMCALC 
  Giovanni Bistoni       : ED, misc. LED, open-shell LED, HFLD           
  Dmytro Bykov           : pre 5.0 version of the SCF Hessian            
  Marcos Casanova-Páez   : Triplet and SCS-CIS(D). UHF-(DLPNO)-IP/EA/STEOM-CCSD. UHF-CVS-IP/STEOM-CCSD   
  Vijay G. Chilkuri      : MRCI spin determinant printing, contributions to CSF-ICE 
  Pauline Colinet        : FMM embedding                                 
  Dipayan Datta          : RHF DLPNO-CCSD density                        
  Achintya Kumar Dutta   : EOM-CC, STEOM-CC                              
  Nicolas Foglia         : Exact transition moments, OPA infrastructure, MCD improvements    
  Dmitry Ganyushin       : Spin-Orbit,Spin-Spin,Magnetic field MRCI      
  Miquel Garcia-Rates    : C-PCM and meta-GGA Hessian, CCSD/C-PCM, Gaussian charge scheme 
  Tiago L. C. Gouveia    : GS-ROHF, GS-ROCIS                             
  Yang Guo               : DLPNO-NEVPT2, F12-NEVPT2, CIM, IAO-localization        
  Andreas Hansen         : Spin unrestricted coupled pair/coupled cluster methods 
  Ingolf Harden          : AUTO-CI MPn and infrastructure                
  Benjamin Helmich-Paris : MC-RPA, TRAH-(SCF,CASSCF), AVAS, COSX integrals, SCF dyn. polar., MC-PDFT, srDFT 
  Lee Huntington         : MR-EOM, pCC                                   
  Robert Izsak           : Overlap fitted RIJCOSX, COSX-SCS-MP3, EOM     
  Riya Kayal             : Wick's Theorem for AUTO-CI, AUTO-CI UHF-CCSDT 
  Emily Kempfer          : AUTO-CI RHF CISDT and CCSDT, approximate NEVPT4
  Christian Kollmar      : KDIIS, OOCD, Brueckner-CCSD(T), CCSD density, CASPT2, CASPT2-K, improved NEVPT2 
  Axel Koslowski         : Symmetry handling                             
  Simone Kossmann        : meta-GGA functionals, TD-DFT gradient, OOMP2, (MP2 Hessian; deprecated post 5.0) 
  Lucas Lang             : DCDCAS, Hyperfine gauge corrections, ICE-SOC+SSC
  Marvin Lechner         : AUTO-CI (C++ implementation), FIC-MRCC        
  Spencer Leger          : CASSCF response                               
  Dagmar Lenk            : GEPOL surface, SMD, ORCA-2-JSON               
  Dimitrios Liakos       : Extrapolation schemes; Compound Job, Property file
  Dimitrios Manganas     : Further ROCIS development; embedding schemes. LFT, Crystal Embedding 
  Dimitrios Pantazis     : SARC Basis sets                               
  Anastasios Papadopoulos: AUTO-CI, single reference methods and gradients 
  Taras Petrenko         : pre 6.0 DFT Hessian and TD-DFT gradient,  ECA, NRVS 
  Petra Pikulova         : Analytic Raman intensities                    
  Peter Pinski           : DLPNO-MP2, DLPNO-MP2 Gradient                 
  Shashank Vittal Rao    : ES-AILFT, MagRelax                            
  Christoph Reimann      : Effective Core Potentials                     
  Marius Retegan         : Local ZFS, SOC                                
  Christoph Riplinger    : Optimizer, TS searches, QM/MM, DLPNO-CCSD(T), (RO)-DLPNO pert. Triples 
  Michael Roemelt        : Original ROCIS implementation, recursive CI coupling coefficients
  Masaaki Saitow         : Open-shell DLPNO-CCSD energy and density      
  Barbara Sandhoefer     : DKH picture change effects                    
  Yorick L. A. Schmerwitz: GMF and freeze-and-release deltaSCF, NEB S-IDPP initial path                    
  Kantharuban Sivalingam : CASSCF convergence/infrastructure, NEVPT2, NEVPT3, NEVPT4(SD), FIC-MRCI and CEPA variants
  Bernardo de Souza      : ESD, SOC TD-DFT                               
  Georgi L. Stoychev     : AutoAux, RI-MP2 NMR, DLPNO-MP2 response, X2C  
  Van Anh Tran           : RI-MP2 g-tensors                              
  Willem Van den Heuvel  : Paramagnetic NMR                              
  Zikuan Wang            : NOTCH, Electric field optimization            
  Frank Wennmohs         : Technical directorship and infrastructure     
  Hang Xu                : AUTO-CI-Response properties                   
                                                                         
[FACCTs GmbH]                                                            
  Markus Bursch, Nicolas Foglia, Miquel Garcia-Rates, Ingolf Harden, Hagen Neugebauer, Anastasios Papadopoulos, 
  Christoph Riplinger, Bernardo de Souza, Georgi L. Stoychev                                                    
                                                                 
  APM, various basis sets, CI-OPT, improved COSX, DLPNO-Multilevel,           
  DOCKER, DRACO, updates on ESD, Fragmentator, GOAT, IRC, LR-CPCM, L-BFGS, MBIS, meta-GGA TD-DFT gradient, ML-optimized integration grids, 
  MM, NACMEs, nearIR, NEB, NEB-TS, NL-DFT gradient (VV10), 2- and 3-layer-ONIOM, interface openCOSMO-RS, QMMM,   
  Crystal-QMMM, RESP, rigid body optimization, SF, symmetry and pop. for TD-DFT, various functionals, SOLVATOR                                   
                                                                         
[Other institutions]                                                     
  V. Asgeirsson          : NEB                                           
  Christoph Bannwarth    : sTDA-DFT, sTD-DFT, PBEh-3c, B97-3c, D3        
  Giovanni Bistoni       : ETS/NOCV, ADLD/ADEX, COVALED                  
  Martin Brehm           : Molecular dynamics                            
  Ronald Cardenas        : ETS/NOCV                                      
  Martina Colucci        : COVALED                                       
  Sebastian Ehlert       : rSCAN, r2SCAN, r2SCAN-3c, D4, dhf basis sets  
  Marvin Friede          : D4 for Fr, Ra, Ac-Lr                          
  Lars Goerigk           : TD-DFT with DH, B97 family of functionals     
  Stefan Grimme          : VdW corrections, initial TS optimization, DFT functionals, gCP, sTDA/sTD-DF 
  Waldemar Hujo          : DFT-NL                                        
  H. Jonsson             : NEB                                           
  Holger Kruse           : gCP                                           
  Marcel Mueller         : wB97X-3c, vDZP basis set                      
  Hagen Neugebauer       : wr2SCAN, Native XTB                           
  Gianluca Regni         : ADLD/ADEX                                     
  Tobias Risthaus        : pre 6.0 range-separated hybrid DFT and stability analysis
  Lukas Wittmann         : regularized MP2, r2SCAN double-hybrids, wr2SCAN        
                                                                         
We gratefully acknowledge several colleagues who have allowed us to      
interface, adapt or use parts of their codes:                            
  Ed Valeev, F. Pavosevic, A. Kumar             : LibInt (2-el integral package), F12 methods 
  Garnet Chan, S. Sharma, J. Yang, R. Olivares  : DMRG                   
  Ulf Ekstrom                                   : XCFun DFT Library      
  Mihaly Kallay                                 : mrcc  (arbitrary order and MRCC methods)
  Frank Weinhold                                : gennbo (NPA and NBO analysis)           
  Simon Mueller                                 : openCOSMO-RS                            
  Christopher J. Cramer and Donald G. Truhlar   : smd solvation model                     
  S Lehtola, MJT Oliveira, MAL Marques          : LibXC Library                           
  Liviu Ungur et al                             : ANISO software                          


 Your calculation uses the libint2 library for the computation of 2-el integrals
 For citations please refer to: http://libint.valeyev.net

 Your ORCA version has been built with support for libXC version: 7.0.0
 For citations please refer to: https://libxc.gitlab.io

 This ORCA versions uses:
   CBLAS   interface :  Fast vector & matrix operations
   LAPACKE interface :  Fast linear algebra routines
   SCALAPACK package :  Parallel linear algebra routines
   Shared memory     :  Shared parallel matrices
   BLAS/LAPACK       :  OpenBLAS 0.3.29  USE64BITINT DYNAMIC_ARCH NO_AFFINITY Haswell SINGLE_THREADED
        Core in use  :  Haswell
   Copyright (c) 2011-2014, The OpenBLAS Project


  ***********************************
  * Starting time: Sun Jun  7 07:28:58 2026
  * Host name:     steezy
  * Process ID:    1804195
  * Working dir.:  /home/jannes/zntpp/04_tddft/tpss
  ***********************************

NOTE: MaxCore=3000 MB was set to SCF,MP2,MDCI,CIPSI,MRCI,RASCI and CIS
      => If you want to overwrite this, your respective input block should be placed after the MaxCore statement


***************************************
The coordinates will be read from file: /home/jannes/zntpp/01_opt/zntpp_opt_b3lyp_tzvp.xyz
***************************************


================================================================================

----- Orbital basis set information -----
Your calculation utilizes the basis: def2-TZVP
   F. Weigend and R. Ahlrichs, Phys. Chem. Chem. Phys. 7, 3297 (2005).

----- AuxJ basis set information -----
Your calculation utilizes the auxiliary basis: def2/J
   H-Rn: F. Weigend, Phys. Chem. Chem. Phys. 8, 1057 (2006).
   Fr-Lr: K. Eichkorn, F. Weigend, O. Treutler, R. Ahlrichs; Theor. Chem. Acc. 97, 119 (1997).

================================================================================
                                        WARNINGS
                       Please study these warnings very carefully!
================================================================================



WARNING: Found flag for RIJCOSX approximation but no HF exchange needed!
  ===> : RIJCOSX  will be disabled and Split-RI-J is turned on

WARNING: CIS/ROCIS methods need fully converged wavefunctions
  ===> : Setting SCFConvForced true
         You can overwrite this default with %scf ConvForced false 


================================================================================
                                       INPUT FILE
================================================================================
NAME = tddft.inp
|  1> %pal nprocs 8 end
|  2> %maxcore 3000
|  3> ! TPSS def2-TZVP def2/J RIJCOSX DefGrid3 TightSCF CPCM(Toluene)
|  4> %tddft
|  5>   nroots 30
|  6>   triplets false
|  7>   tda false
|  8> end
|  9> * xyzfile 0 1 /home/jannes/zntpp/01_opt/zntpp_opt_b3lyp_tzvp.xyz
| 10> 
| 11>                          ****END OF INPUT****
================================================================================

                       ****************************
                       * Single Point Calculation *
                       ****************************

---------------------------------
CARTESIAN COORDINATES (ANGSTROEM)
---------------------------------
  N     -2.128555    2.521821    3.514445
  H      1.679246   -2.252277    3.911258
  C     -4.369984    3.012164    3.505335
  C     -0.398585   -1.573233    3.873891
  N      0.090194    0.658016    3.656874
  C      0.952938   -1.459784    3.844538
  H     -0.979263   -2.475782    3.964403
  C      2.863231    1.837944    3.504098
  N     -0.259990    4.728225    3.275318
  C     -1.122589    6.846120    3.087833
  C      2.554364    0.476189    3.636610
  C      2.674824    4.026514    3.291953
  N      1.958667    2.864378    3.417427
  C      4.084464    3.720155    3.302156
  C     -0.939698   -0.240836    3.759905
  C      1.258819   -0.056992    3.704356
  C     -2.844886    1.359138    3.633884
  C     -3.032921    3.549045    3.434948
  C     -4.254377    1.666475    3.632131
  C     -2.307798    0.068574    3.749698
  C     -2.724065    4.910402    3.298449
  C      4.200194    2.374421    3.428341
  C     -1.428614    5.442928    3.224110
  C      0.228839    6.958922    3.052384
  C      2.137843    5.317243    3.178366
  C      0.769957    5.627222    3.173980
  H     -5.276937    3.591548    3.463276
  H     -5.049608    0.945070    3.716870
  H      5.107132    1.794799    3.467075
  H      4.879663    4.442261    3.223116
  H      0.809563    7.860555    2.953271
  H     -1.848755    7.639233    3.027240
  Zn    -0.084939    2.693116    3.466029
  C      3.700933   -0.486388    3.712454
  C      4.108108   -1.201821    2.584245
  C      5.172729   -2.094184    2.653906
  C      5.846616   -2.285840    3.855097
  C      5.449547   -1.579336    4.985093
  C      4.385461   -0.686546    4.913199
  H      3.586791   -1.054134    1.646319
  H      5.476059   -2.638197    1.767767
  H      6.675289   -2.980820    3.910163
  H      5.966790   -1.723515    5.925774
  H      4.078223   -0.139324    5.796054
  C     -3.273085   -1.071472    3.872955
  C     -3.904249   -1.597407    2.743545
  C     -4.799157   -2.656094    2.857020
  C     -5.078087   -3.204960    4.103867
  C     -4.456253   -2.688836    5.235517
  C     -3.560665   -1.630988    5.119913
  H     -3.688530   -1.174051    1.770133
  H     -5.276922   -3.052614    1.969493
  H     -5.775165   -4.028894    4.193026
  H     -4.668895   -3.107985    6.211378
  H     -3.079623   -1.230870    6.004100
  C     -3.870369    5.873458    3.224899
  C     -4.316851    6.357914    1.993460
  C     -5.380713    7.251143    1.923794
  C     -6.014648    7.675094    3.086596
  C     -5.578392    7.199678    4.318409
  C     -4.515144    6.305553    4.385999
  H     -3.826760    6.029067    1.085176
  H     -5.714634    7.614108    0.959461
  H     -6.842757    8.370883    3.033211
  H     -6.064513    7.525507    5.229848
  H     -4.177530    5.938797    5.347664
  C      3.103506    6.456495    3.050290
  C      3.681960    6.765339    1.817145
  C      4.578273    7.821990    1.696512
  C      4.911261    8.586480    2.809338
  C      4.341889    8.287884    4.042364
  C      3.444819    7.231565    4.160802
  H      3.424173    6.173246    0.947507
  H      5.014892    8.048106    0.731401
  H      5.609397    9.409102    2.716387
  H      4.596585    8.876241    4.915382
  H      3.004811    7.001338    5.123468

----------------------------
CARTESIAN COORDINATES (A.U.)
----------------------------
  NO LB      ZA    FRAG     MASS         X           Y           Z
   0 N     7.0000    0    14.007   -4.022387    4.765551    6.641339
   1 H     1.0000    0     1.008    3.173315   -4.256187    7.391206
   2 C     6.0000    0    12.011   -8.258072    5.692164    6.624123
   3 C     6.0000    0    12.011   -0.753217   -2.972979    7.320593
   4 N     7.0000    0    14.007    0.170443    1.243470    6.910491
   5 C     6.0000    0    12.011    1.800792   -2.758593    7.265124
   6 H     1.0000    0     1.008   -1.850539   -4.678550    7.491636
   7 C     6.0000    0    12.011    5.410722    3.473212    6.621786
   8 N     7.0000    0    14.007   -0.491309    8.935051    6.189453
   9 C     6.0000    0    12.011   -2.121387   12.937293    5.835159
  10 C     6.0000    0    12.011    4.827048    0.899866    6.872197
  11 C     6.0000    0    12.011    5.054685    7.609008    6.220890
  12 N     7.0000    0    14.007    3.701344    5.412889    6.458002
  13 C     6.0000    0    12.011    7.718518    7.030075    6.240171
  14 C     6.0000    0    12.011   -1.775772   -0.455114    7.105191
  15 C     6.0000    0    12.011    2.378823   -0.107699    7.000218
  16 C     6.0000    0    12.011   -5.376055    2.568398    6.867046
  17 C     6.0000    0    12.011   -5.731390    6.706722    6.491111
  18 C     6.0000    0    12.011   -8.039608    3.149181    6.863732
  19 C     6.0000    0    12.011   -4.361106    0.129586    7.085902
  20 C     6.0000    0    12.011   -5.147736    9.279315    6.233166
  21 C     6.0000    0    12.011    7.937216    4.487005    6.478625
  22 C     6.0000    0    12.011   -2.699689   10.285644    6.092686
  23 C     6.0000    0    12.011    0.432443   13.150456    5.768170
  24 C     6.0000    0    12.011    4.039938   10.048134    6.006241
  25 C     6.0000    0    12.011    1.455009   10.633908    5.997954
  26 H     1.0000    0     1.008   -9.971966    6.787043    6.544643
  27 H     1.0000    0     1.008   -9.542376    1.785924    7.023866
  28 H     1.0000    0     1.008    9.651080    3.391678    6.551822
  29 H     1.0000    0     1.008    9.221226    8.394656    6.090807
  30 H     1.0000    0     1.008    1.529852   14.854296    5.580874
  31 H     1.0000    0     1.008   -3.493641   14.436059    5.720654
  32 Zn   30.0000    0    65.380   -0.160511    5.089252    6.549846
  33 C     6.0000    0    12.011    6.993749   -0.919139    7.015521
  34 C     6.0000    0    12.011    7.763199   -2.271113    4.883516
  35 C     6.0000    0    12.011    9.775042   -3.957434    5.015155
  36 C     6.0000    0    12.011   11.048503   -4.319612    7.285078
  37 C     6.0000    0    12.011   10.298150   -2.984512    9.420461
  38 C     6.0000    0    12.011    8.287321   -1.297384    9.284601
  39 H     1.0000    0     1.008    6.778052   -1.992024    3.111092
  40 H     1.0000    0     1.008   10.348252   -4.985469    3.340596
  41 H     1.0000    0     1.008   12.614468   -5.632934    7.389137
  42 H     1.0000    0     1.008   11.275599   -3.256971   11.198090
  43 H     1.0000    0     1.008    7.706724   -0.263284   10.952955
  44 C     6.0000    0    12.011   -6.185235   -2.024788    7.318825
  45 C     6.0000    0    12.011   -7.377961   -3.018662    5.184549
  46 C     6.0000    0    12.011   -9.069092   -5.019291    5.398985
  47 C     6.0000    0    12.011   -9.596194   -6.056498    7.755184
  48 C     6.0000    0    12.011   -8.421097   -5.081163    9.893693
  49 C     6.0000    0    12.011   -6.728682   -3.082121    9.675233
  50 H     1.0000    0     1.008   -6.970311   -2.218636    3.345067
  51 H     1.0000    0     1.008   -9.971937   -5.768605    3.721803
  52 H     1.0000    0     1.008  -10.913481   -7.613507    7.923671
  53 H     1.0000    0     1.008   -8.822933   -5.873241   11.737804
  54 H     1.0000    0     1.008   -5.819644   -2.326007   11.346104
  55 C     6.0000    0    12.011   -7.313938   11.099227    6.094176
  56 C     6.0000    0    12.011   -8.157666   12.014716    3.767093
  57 C     6.0000    0    12.011  -10.168074   13.702674    3.635443
  58 C     6.0000    0    12.011  -11.366038   14.503826    5.832822
  59 C     6.0000    0    12.011  -10.541634   13.605420    8.160611
  60 C     6.0000    0    12.011   -8.532386   11.915768    8.288337
  61 H     1.0000    0     1.008   -7.231528   11.393285    2.050685
  62 H     1.0000    0     1.008  -10.799093   14.388579    1.813119
  63 H     1.0000    0     1.008  -12.930936   15.818676    5.731938
  64 H     1.0000    0     1.008  -11.460269   14.221147    9.882980
  65 H     1.0000    0     1.008   -7.894387   11.222699   10.105620
  66 C     6.0000    0    12.011    5.864777   12.201007    5.764212
  67 C     6.0000    0    12.011    6.957897   12.784638    3.433906
  68 C     6.0000    0    12.011    8.651682   14.781419    3.205944
  69 C     6.0000    0    12.011    9.280939   16.226096    5.308880
  70 C     6.0000    0    12.011    8.204982   15.661831    7.638960
  71 C     6.0000    0    12.011    6.509765   13.665678    7.862776
  72 H     1.0000    0     1.008    6.470749   11.665745    1.790528
  73 H     1.0000    0     1.008    9.476772   15.208716    1.382147
  74 H     1.0000    0     1.008   10.600223   17.780626    5.133228
  75 H     1.0000    0     1.008    8.686286   16.773664    9.288725
  76 H     1.0000    0     1.008    5.678270   13.230612    9.681952

--------------------------------
INTERNAL COORDINATES (ANGSTROEM)
--------------------------------
 N      0   0   0     0.000000000000     0.00000000     0.00000000
 H      1   0   0     6.119544609553     0.00000000     0.00000000
 C      1   2   0     2.294454011207   140.79010051     0.00000000
 C      2   1   3     2.186293848341    33.40707509     0.34106114
 N      4   2   1     2.294443978057    95.80796136     0.08486163
 C      2   1   3     1.077042165850     3.92469267     1.90384846
 H      4   2   1     1.077021274757   104.51838878   179.96426994
 C      5   4   2     3.017499182404   125.50798452     0.13061668
 N      1   2   6     2.901196304498   101.41364134   181.77715198
 C      9   1   2     2.294495465089   117.81272053   180.03507050
 C      8   5   4     1.402617980696    54.07062945     0.00000000
 C      8   5   4     2.206884295453   108.31219866   179.74476543
 N     12   8   5     1.370833715702    36.39735210     0.13465003
 C     12   8   5     1.442582406246    72.85996634   180.04197634
 C      5   4   2     1.370849417385    36.41075581   180.34190992
 C      5   4   2     1.370829614730    70.79837857     0.21995082
 C      1   2   6     1.370849005387    69.99043058     1.66869440
 C      1   2   6     1.370906814200   177.19264341     5.66720204
 C      3   1   2     1.356583829775    72.80577004   359.93688133
 C     17   1   2     1.402651632840   125.97826882     0.08625359
 C     18   1  17     1.402611239747   125.98998775   180.28256348
 C     14  12   8     1.356582980699   107.13889860     0.18750469
 C      9   1   2     1.370804714242    81.40314079   179.95801682
 C     10   9   1     1.356590912637    72.80488243   180.14705619
 C     12   8   5     1.402580997285   162.38014338     0.78404173
 C      9   1   2     1.370859177061   171.38959537   359.93854590
 H      3   1   2     1.077042372642   159.67446324   180.23012340
 H     19   3   1     1.077031692090   127.50718792   179.84585378
 H     22  14  12     1.077032466449   127.52044500   179.72372799
 H     14  12   8     1.077044478741   125.34893106   180.19721276
 H     24  10   9     1.077036063129   127.52799022   179.86496916
 H     10   9   1     1.077040772020   159.68056758     0.49314505
 Zn    13  12   8     2.051345186941   126.39861605   180.01176353
 C     11   8   5     1.498975002703   117.37364575   180.12231805
 C     34  11   8     1.396599935545   120.73632797   260.81551720
 C     35  34  11     1.390892457345   120.75428931   179.94132756
 C     36  35  34     1.390581203293   120.17332090     0.05878968
 C     37  36  35     1.390576738799   119.57323724   359.97035164
 C     38  37  36     1.390870129530   120.17050613   359.97317460
 H     35  34  11     1.083185036027   119.29663277     0.09915726
 H     36  35  34     1.083143891364   119.71019389   180.16833060
 H     37  36  35     1.082925347053   120.21223093   179.97018105
 H     38  37  36     1.083147890456   120.11518343   179.85977205
 H     39  38  37     1.083181015268   119.94417075   179.90157384
 C     20  17   1     1.498891322754   117.38766669   179.87846531
 C     45  20  17     1.396618301307   120.72790326    80.31698157
 C     46  45  20     1.390883017252   120.75931779   179.94064434
 C     47  46  45     1.390569495532   120.17530433     0.06871198
 C     48  47  46     1.390573492617   119.57043939   359.97534587
 C     49  48  47     1.390856522021   120.17190858   359.96242902
 H     46  45  20     1.083187714850   119.31007218     0.11809285
 H     47  46  45     1.083139294676   119.70943531   180.17217182
 H     48  47  46     1.082928842322   120.21506749   179.96593587
 H     49  48  47     1.083147786706   120.11748509   179.84687948
 H     50  49  48     1.083181818228   119.93804654   179.90374115
 C     21  18   1     1.498966613937   117.38477927   179.77788255
 C     56  21  18     1.396597916529   120.70436538   261.16713757
 C     57  56  21     1.390867761343   120.76155285   179.97461334
 C     58  57  56     1.390582407448   120.17252421     0.05374361
 C     59  58  57     1.390576502422   119.56944005   359.96659070
 C     60  59  58     1.390872249240   120.17565657   359.97513983
 H     57  56  21     1.083194334658   119.30159898     0.11782789
 H     58  57  56     1.083136238093   119.71008709   180.15439003
 H     59  58  57     1.082929025331   120.21640663   179.97293344
 H     60  59  58     1.083142601943   120.11639336   179.88210610
 H     61  60  59     1.083186648078   119.93877736   179.91030740
 C     25  12   8     1.498934038660   117.36800041   179.52270751
 C     67  25  12     1.396653150260   120.68608494    81.09904729
 C     68  67  25     1.390841400961   120.76286134   180.00642566
 C     69  68  67     1.390578103786   120.17054410     0.05654456
 C     70  69  68     1.390573869412   119.57064401   359.96777865
 C     71  70  69     1.390888841300   120.17630173   359.97413960
 H     68  67  25     1.083189189182   119.30217305     0.15139686
 H     69  68  67     1.083145817904   119.71294294   180.15434617
 H     70  69  68     1.082931006480   120.21854136   179.97246096
 H     71  70  69     1.083140727035   120.11703831   179.87054230
 H     72  71  70     1.083207787092   119.93930250   179.90074954

---------------------------
INTERNAL COORDINATES (A.U.)
---------------------------
 N      0   0   0     0.000000000000     0.00000000     0.00000000
 H      1   0   0    11.564263376369     0.00000000     0.00000000
 C      1   2   0     4.335889708059   140.79010051     0.00000000
 C      2   1   3     4.131496621641    33.40707509     0.34106114
 N      4   2   1     4.335870748152    95.80796136     0.08486163
 C      2   1   3     2.035314728142     3.92469267     1.90384846
 H      4   2   1     2.035275249697   104.51838878   179.96426994
 C      5   4   2     5.702247064074   125.50798452     0.13061668
 N      1   2   6     5.482466476246   101.41364134   181.77715198
 C      9   1   2     4.335968044542   117.81272053   180.03507050
 C      8   5   4     2.650563854029    54.07062945     0.00000000
 C      8   5   4     4.170406927659   108.31219866   179.74476543
 N     12   8   5     2.590500297822    36.39735210     0.13465003
 C     12   8   5     2.726085673418    72.85996634   180.04197634
 C      5   4   2     2.590529969703    36.41075581   180.34190992
 C      5   4   2     2.590492548109    70.79837857     0.21995082
 C      1   2   6     2.590529191139    69.99043058     1.66869440
 C      1   2   6     2.590638433964   177.19264341     5.66720204
 C      3   1   2     2.563571915982    72.80577004   359.93688133
 C     17   1   2     2.650627447364   125.97826882     0.08625359
 C     18   1  17     2.650551115482   125.98998775   180.28256348
 C     14  12   8     2.563570311459   107.13889860     0.18750469
 C      9   1   2     2.590445493005    81.40314079   179.95801682
 C     10   9   1     2.563585300650    72.80488243   180.14705619
 C     12   8   5     2.650493965511   162.38014338     0.78404173
 C      9   1   2     2.590548412818   171.38959537   359.93854590
 H      3   1   2     2.035315118921   159.67446324   180.23012340
 H     19   3   1     2.035294935605   127.50718792   179.84585378
 H     22  14  12     2.035296398930   127.52044500   179.72372799
 H     14  12   8     2.035319098873   125.34893106   180.19721276
 H     24  10   9     2.035303195671   127.52799022   179.86496916
 H     10   9   1     2.035312094185   159.68056758     0.49314505
 Zn    13  12   8     3.876480609456   126.39861605   180.01176353
 C     11   8   5     2.832652236702   117.37364575   180.12231805
 C     34  11   8     2.639191396832   120.73632797   260.81551720
 C     35  34  11     2.628405826120   120.75428931   179.94132756
 C     36  35  34     2.627817641202   120.17332090     0.05878968
 C     37  36  35     2.627809204532   119.57323724   359.97035164
 C     38  37  36     2.628363632663   120.17050613   359.97317460
 H     35  34  11     2.046923070452   119.29663277     0.09915726
 H     36  35  34     2.046845318308   119.71019389   180.16833060
 H     37  36  35     2.046432329411   120.21223093   179.97018105
 H     38  37  36     2.046852875496   120.11518343   179.85977205
 H     39  38  37     2.046915472320   119.94417075   179.90157384
 C     20  17   1     2.832494104516   117.38766669   179.87846531
 C     45  20  17     2.639226103092   120.72790326    80.31698157
 C     46  45  20     2.628387986927   120.75931779   179.94064434
 C     47  46  45     2.627795516741   120.17530433     0.06871198
 C     48  47  46     2.627803070137   119.57043939   359.97534587
 C     49  48  47     2.628337918197   120.17190858   359.96242902
 H     46  45  20     2.046928132695   119.31007218     0.11809285
 H     47  46  45     2.046836631826   119.70943531   180.17217182
 H     48  47  46     2.046438934513   120.21506749   179.96593587
 H     49  48  47     2.046852679437   120.11748509   179.84687948
 H     50  49  48     2.046916989694   119.93804654   179.90374115
 C     21  18   1     2.832636384232   117.38477927   179.77788255
 C     56  21  18     2.639187581444   120.70436538   261.16713757
 C     57  56  21     2.628359157438   120.76155285   179.97461334
 C     58  57  56     2.627819916726   120.17252421     0.05374361
 C     59  58  57     2.627808757843   119.56944005   359.96659070
 C     60  59  58     2.628367638335   120.17565657   359.97513983
 H     57  56  21     2.046940642318   119.30159898     0.11782789
 H     58  57  56     2.046830855722   119.71008709   180.15439003
 H     59  58  57     2.046439280351   120.21640663   179.97293344
 H     60  59  58     2.046842881654   120.11639336   179.88210610
 H     61  60  59     2.046926116788   119.93877736   179.91030740
 C     25  12   8     2.832574825879   117.36800041   179.52270751
 C     67  25  12     2.639291958070   120.68608494    81.09904729
 C     68  67  25     2.628309343536   120.76286134   180.00642566
 C     69  68  67     2.627811783983   120.17054410     0.05654456
 C     70  69  68     2.627803782176   119.57064401   359.96777865
 C     71  70  69     2.628398992784   120.17630173   359.97413960
 H     68  67  25     2.046930918777   119.30217305     0.15139686
 H     69  68  67     2.046848958941   119.71294294   180.15434617
 H     70  69  68     2.046443024179   120.21854136   179.97246096
 H     71  70  69     2.046839338592   120.11703831   179.87054230
 H     72  71  70     2.046966063735   119.93930250   179.90074954

---------------------
BASIS SET INFORMATION
---------------------
There are 4 groups of distinct atoms

 Group   1 Type N   : 11s6p2d1f contracted to 5s3p2d1f pattern {62111/411/11/1}
 Group   2 Type H   : 5s1p contracted to 3s1p pattern {311/1}
 Group   3 Type C   : 11s6p2d1f contracted to 5s3p2d1f pattern {62111/411/11/1}
 Group   4 Type Zn  : 17s12p7d1f contracted to 6s5p4d1f pattern {842111/63111/4111/1}

Atom   0N    basis set group =>   1
Atom   1H    basis set group =>   2
Atom   2C    basis set group =>   3
Atom   3C    basis set group =>   3
Atom   4N    basis set group =>   1
Atom   5C    basis set group =>   3
Atom   6H    basis set group =>   2
Atom   7C    basis set group =>   3
Atom   8N    basis set group =>   1
Atom   9C    basis set group =>   3
Atom  10C    basis set group =>   3
Atom  11C    basis set group =>   3
Atom  12N    basis set group =>   1
Atom  13C    basis set group =>   3
Atom  14C    basis set group =>   3
Atom  15C    basis set group =>   3
Atom  16C    basis set group =>   3
Atom  17C    basis set group =>   3
Atom  18C    basis set group =>   3
Atom  19C    basis set group =>   3
Atom  20C    basis set group =>   3
Atom  21C    basis set group =>   3
Atom  22C    basis set group =>   3
Atom  23C    basis set group =>   3
Atom  24C    basis set group =>   3
Atom  25C    basis set group =>   3
Atom  26H    basis set group =>   2
Atom  27H    basis set group =>   2
Atom  28H    basis set group =>   2
Atom  29H    basis set group =>   2
Atom  30H    basis set group =>   2
Atom  31H    basis set group =>   2
Atom  32Zn   basis set group =>   4
Atom  33C    basis set group =>   3
Atom  34C    basis set group =>   3
Atom  35C    basis set group =>   3
Atom  36C    basis set group =>   3
Atom  37C    basis set group =>   3
Atom  38C    basis set group =>   3
Atom  39H    basis set group =>   2
Atom  40H    basis set group =>   2
Atom  41H    basis set group =>   2
Atom  42H    basis set group =>   2
Atom  43H    basis set group =>   2
Atom  44C    basis set group =>   3
Atom  45C    basis set group =>   3
Atom  46C    basis set group =>   3
Atom  47C    basis set group =>   3
Atom  48C    basis set group =>   3
Atom  49C    basis set group =>   3
Atom  50H    basis set group =>   2
Atom  51H    basis set group =>   2
Atom  52H    basis set group =>   2
Atom  53H    basis set group =>   2
Atom  54H    basis set group =>   2
Atom  55C    basis set group =>   3
Atom  56C    basis set group =>   3
Atom  57C    basis set group =>   3
Atom  58C    basis set group =>   3
Atom  59C    basis set group =>   3
Atom  60C    basis set group =>   3
Atom  61H    basis set group =>   2
Atom  62H    basis set group =>   2
Atom  63H    basis set group =>   2
Atom  64H    basis set group =>   2
Atom  65H    basis set group =>   2
Atom  66C    basis set group =>   3
Atom  67C    basis set group =>   3
Atom  68C    basis set group =>   3
Atom  69C    basis set group =>   3
Atom  70C    basis set group =>   3
Atom  71C    basis set group =>   3
Atom  72H    basis set group =>   2
Atom  73H    basis set group =>   2
Atom  74H    basis set group =>   2
Atom  75H    basis set group =>   2
Atom  76H    basis set group =>   2
---------------------------------
AUXILIARY/J BASIS SET INFORMATION
---------------------------------
There are 4 groups of distinct atoms

 Group   1 Type N   : 12s5p4d2f1g contracted to 6s4p3d1f1g pattern {711111/2111/211/2/1}
 Group   2 Type H   : 5s2p1d contracted to 3s1p1d pattern {311/2/1}
 Group   3 Type C   : 12s5p4d2f1g contracted to 6s4p3d1f1g pattern {711111/2111/211/2/1}
 Group   4 Type Zn  : 19s5p5d3f3g contracted to 8s5p5d2f3g pattern {121111111/11111/11111/21/111}

Atom   0N    basis set group =>   1
Atom   1H    basis set group =>   2
Atom   2C    basis set group =>   3
Atom   3C    basis set group =>   3
Atom   4N    basis set group =>   1
Atom   5C    basis set group =>   3
Atom   6H    basis set group =>   2
Atom   7C    basis set group =>   3
Atom   8N    basis set group =>   1
Atom   9C    basis set group =>   3
Atom  10C    basis set group =>   3
Atom  11C    basis set group =>   3
Atom  12N    basis set group =>   1
Atom  13C    basis set group =>   3
Atom  14C    basis set group =>   3
Atom  15C    basis set group =>   3
Atom  16C    basis set group =>   3
Atom  17C    basis set group =>   3
Atom  18C    basis set group =>   3
Atom  19C    basis set group =>   3
Atom  20C    basis set group =>   3
Atom  21C    basis set group =>   3
Atom  22C    basis set group =>   3
Atom  23C    basis set group =>   3
Atom  24C    basis set group =>   3
Atom  25C    basis set group =>   3
Atom  26H    basis set group =>   2
Atom  27H    basis set group =>   2
Atom  28H    basis set group =>   2
Atom  29H    basis set group =>   2
Atom  30H    basis set group =>   2
Atom  31H    basis set group =>   2
Atom  32Zn   basis set group =>   4
Atom  33C    basis set group =>   3
Atom  34C    basis set group =>   3
Atom  35C    basis set group =>   3
Atom  36C    basis set group =>   3
Atom  37C    basis set group =>   3
Atom  38C    basis set group =>   3
Atom  39H    basis set group =>   2
Atom  40H    basis set group =>   2
Atom  41H    basis set group =>   2
Atom  42H    basis set group =>   2
Atom  43H    basis set group =>   2
Atom  44C    basis set group =>   3
Atom  45C    basis set group =>   3
Atom  46C    basis set group =>   3
Atom  47C    basis set group =>   3
Atom  48C    basis set group =>   3
Atom  49C    basis set group =>   3
Atom  50H    basis set group =>   2
Atom  51H    basis set group =>   2
Atom  52H    basis set group =>   2
Atom  53H    basis set group =>   2
Atom  54H    basis set group =>   2
Atom  55C    basis set group =>   3
Atom  56C    basis set group =>   3
Atom  57C    basis set group =>   3
Atom  58C    basis set group =>   3
Atom  59C    basis set group =>   3
Atom  60C    basis set group =>   3
Atom  61H    basis set group =>   2
Atom  62H    basis set group =>   2
Atom  63H    basis set group =>   2
Atom  64H    basis set group =>   2
Atom  65H    basis set group =>   2
Atom  66C    basis set group =>   3
Atom  67C    basis set group =>   3
Atom  68C    basis set group =>   3
Atom  69C    basis set group =>   3
Atom  70C    basis set group =>   3
Atom  71C    basis set group =>   3
Atom  72H    basis set group =>   2
Atom  73H    basis set group =>   2
Atom  74H    basis set group =>   2
Atom  75H    basis set group =>   2
Atom  76H    basis set group =>   2


           ************************************************************
           *        Program running with 8 parallel MPI-processes     *
           *              working on a common directory               *
           ************************************************************
------------------------------------------------------------------------------
                             ORCA STARTUP CALCULATIONS
                           -- RI-GTO INTEGRALS CHOSEN --
------------------------------------------------------------------------------
------------------------------------------------------------------------------
                   ___                                                        
                  /   \      - P O W E R E D   B Y -                         
                 /     \                                                     
                 |  |  |   _    _      __       _____    __    __             
                 |  |  |  | |  | |    /  \     |  _  \  |  |  /  |          
                  \  \/   | |  | |   /    \    | | | |  |  | /  /          
                 / \  \   | |__| |  /  /\  \   | |_| |  |  |/  /          
                |  |  |   |  __  | /  /__\  \  |    /   |      \           
                |  |  |   | |  | | |   __   |  |    \   |  |\   \          
                \     /   | |  | | |  |  |  |  | |\  \  |  | \   \       
                 \___/    |_|  |_| |__|  |__|  |_| \__\ |__|  \__/        
                                                                              
                      - O R C A' S   B I G   F R I E N D -                    
                                      &                                       
                       - I N T E G R A L  F E E D E R -                       
                                                                              
 v1 FN, 2020, v2 2021, v3 2022-2024                                           
------------------------------------------------------------------------------


----------------------
SHARK INTEGRAL PACKAGE
----------------------

Number of atoms                             ...     77
Number of basis functions                   ...   1704
Number of shells                            ...    656
Maximum angular momentum                    ...      3
Integral batch strategy                     ... SHARK/LIBINT Hybrid
RI-J (if used) integral strategy            ... SPLIT-RIJ (Revised 2003 algorithm where possible)
Printlevel                                  ...      1
Contraction scheme used                     ... SEGMENTED contraction
Prescreening option                         ... SCHWARTZ
   Thresh                                   ... 2.500e-11
   Tcut                                     ... 2.500e-12
   Tpresel                                  ... 2.500e-12 
Coulomb Range Separation                    ... NOT USED
Exchange Range Separation                   ... NOT USED
Multipole approximations                    ... NOT USED
Finite Nucleus Model                        ... NOT USED
CABS basis                                  ... NOT available
Auxiliary Coulomb fitting basis             ... AVAILABLE
   # of basis functions in Aux-J            ...   2749
   # of shells in Aux-J                     ...    883
   Maximum angular momentum in Aux-J        ...      4
Auxiliary J/K fitting basis                 ... NOT available
Auxiliary Correlation fitting basis         ... NOT available
Auxiliary 'external' fitting basis          ... NOT available

Checking pre-screening integrals            ... done (  0.0 sec) Dimension = 656
   => SHARK Basis and OBASIS are compatible. Storing Pre-screening
Shell pair information
Shell pair cut-off parameter TPreSel        ...   2.5e-12
Total number of shell pairs                 ...    215496
Shell pairs after pre-screening             ...    104313
Total number of primitive shell pairs       ...    680394
Primitive shell pairs kept                  ...    202009
          la=0 lb=0:  24656 shell pairs
          la=1 lb=0:  30604 shell pairs
          la=1 lb=1:   9373 shell pairs
          la=2 lb=0:  14863 shell pairs
          la=2 lb=1:   9372 shell pairs
          la=2 lb=2:   2256 shell pairs
          la=3 lb=0:   6615 shell pairs
          la=3 lb=1:   4225 shell pairs
          la=3 lb=2:   1902 shell pairs
          la=3 lb=3:    447 shell pairs

Checking whether 4 symmetric matrices of dimension 1704 fit in memory
:Max Core in MB      =   3000.00
 MB in use           =    127.60
 MB left             =   2872.40
 MB needed           =     44.33
 Data fit in memory  = YES
Calculating RI/J V-Matrix + Cholesky decomp.... done (  1.2 sec)
Calculating Nuclear repulsion               ... done (  0.0 sec) ENN=   6465.853143938957 Eh

Diagonalization of the overlap matrix:
Smallest eigenvalue                        ... 2.950e-06
Time for diagonalization                   ...    0.953 sec
Threshold for overlap eigenvalues          ... 1.000e-07
Number of eigenvalues below threshold      ... 0
Time for construction of square roots      ...    1.628 sec
Total time needed                          ...    2.669 sec

-------------------
DFT GRID GENERATION
-------------------

General Integration Accuracy     IntAcc      ... 4.959
Radial Grid Type                 RadialGrid  ... OptM3 with GC (2021)
Angular Grid (max. ang.)         AngularGrid ... 6 (Lebedev-590)
Angular grid pruning method      GridPruning ... 4 (adaptive)
Weight generation scheme         WeightScheme... mBecke (2022)
Basis function cutoff            BFCut       ... 1.0000e-11
Integration weight cutoff        WCut        ... 1.0000e-14
Partially contracted basis set               ... off
Rotationally invariant grid construction     ... off
Angular grids for H and He will be reduced by one unit
Core-polarized basis detected: some atoms will have their core
                               angular grid increased.

Total number of grid points                  ...   939385
Total number of batches                      ...    14718
Average number of points per batch           ...       63
Average number of grid points per atom       ...    12200
Grids setup in  26.9 sec
Initializing property integral containers    ... done (  0.0 sec)

SHARK setup successfully completed in  40.3 seconds

Maximum memory used throughout the entire STARTUP-calculation: 343.3 MB


           ************************************************************
           *        Program running with 8 parallel MPI-processes     *
           *              working on a common directory               *
           ************************************************************
-------------------------------------------------------------------------------
                                 ORCA GUESS
                   Start orbitals & Density for SCF / CASSCF
-------------------------------------------------------------------------------

------------
SCF SETTINGS
------------
Hamiltonian:
 Density Functional     Method          .... DFT(GTOs)
 Exchange Functional    Exchange        .... TPSS
 Correlation Functional Correlation     .... TPSS
 LDA part of GGA corr.  LDAOpt          .... PW91-LDA
 Gradients option       PostSCFGGA      .... off
   NL short-range parameter             ....  5.000000
 RI-approximation to the Coulomb term is turned on
   Number of AuxJ basis functions       .... 2749


General Settings:
 Integral files         IntName         .... tddft
 Hartree-Fock type      HFTyp           .... RHF
 Total Charge           Charge          ....    0
 Multiplicity           Mult            ....    1
 Number of Electrons    NEL             ....  350
 Basis Dimension        Dim             .... 1704
 Nuclear Repulsion      ENuc            ....   6465.8531439390 Eh

Convergence Acceleration:
 AO-DIIS                CNVDIIS         .... on
   Start iteration      DIISMaxIt       ....    12
   Startup error        DIISStart       ....  0.200000
   # of expansion vecs  DIISMaxEq       ....     5
   Bias factor          DIISBfac        ....   1.050
   Max. coefficient     DIISMaxC        ....  10.000
 MO-DIIS                CNVKDIIS        .... off
 Trust-Rad. Augm. Hess. CNVTRAH         .... auto
   Auto Start mean grad. ratio tolernc. ....  1.125000
   Auto Start start iteration           ....    50
   Auto Start num. interpolation iter.  ....    10
   Max. Number of Micro iterations      ....    24
   Max. Number of Macro iterations      .... Maxiter - #DIIS iter
   Number of Davidson start vectors     ....     2
   Converg. threshold    (grad. norm)   ....   1.000e-05
   Grad. Scal. Fac. for Micro threshold ....   0.100
   Minimum threshold for Micro iter.    ....   1.000e-02
   NR start threshold (gradient norm)   ....   1.000e-04
   Initial trust radius                 ....   0.400
   Minimum AH scaling param. (alpha)    ....   1.000
   Maximum AH scaling param. (alpha)    .... 1000.000
   Quad. conv. algorithm                .... NR
   White noise on init. David. guess    .... on
   Maximum white noise                  ....   0.010
   Pseudo random numbers                .... off
   Inactive MOs                         .... canonical
   Orbital update algorithm             .... Taylor
   Preconditioner                       .... Diag
   Full preconditioner red. dimension   ....   250
 SOSCF                 CNVSOSCF           .... on
   Start iteration     SOSCFMaxIt         ....   150
   Startup grad/error  SOSCFStart         ....  0.003300
   Hessian update      SOSCFHessUp        .... L-BFGS
   Autom. constraints  SOSCFAutoConstrain .... off
 Level Shifting         CNVShift        .... on
   Level shift para.    LevelShift      ....    0.2500
   Turn off err/grad.   ShiftErr        ....    0.0010
 Zerner damping         CNVZerner       .... off
 Static damping         CNVDamp         .... on
   Fraction old density DampFac         ....    0.7000
   Max. Damping (<1)    DampMax         ....    0.9800
   Min. Damping (>=0)   DampMin         ....    0.0000
   Turn off err/grad.   DampErr         ....    0.1000

SCF Procedure:
 Maximum # iterations   MaxIter         ....   125
 SCF integral mode      SCFMode         .... Direct
   Integral package                     .... SHARK and LIBINT hybrid scheme
 Reset frequency        DirectResetFreq ....    20
 Integral Threshold     Thresh          ....  2.500e-11 Eh
 Primitive CutOff       TCut            ....  2.500e-12 Eh

Convergence Tolerance:
 Convergence Check Mode ConvCheckMode   .... Total+1el-Energy
 Convergence forced     ConvForced      .... 1
 Energy Change          TolE            ....  1.000e-08 Eh
 1-El. energy change                    ....  1.000e-05 Eh
 Orbital Gradient       TolG            ....  1.000e-05
 Orbital Rotation angle TolX            ....  1.000e-05
 DIIS Error             TolErr          ....  5.000e-07

------------------------------
INITIAL GUESS: MODEL POTENTIAL
------------------------------
Loading Hartree-Fock densities                     ... done
Calculating cut-offs                               ... done
Initializing the effective Hamiltonian             ... done
Setting up the integral package (SHARK)            ... done
Starting the Coulomb interaction                   ... done (   8.3 sec)
Making the grid                                    ... done (   1.8 sec)
Mapping shells                                     ... done
Starting the XC term evaluation                    ... done (   2.4 sec)
  promolecular density results
     # of electrons  =    349.984735077
     EX              =   -329.213710840
     EC              =    -12.231181830
     EX+EC           =   -341.444892670
Transforming the Hamiltonian                       ... done (   3.0 sec)
Diagonalizing the Hamiltonian                      ... done (   4.8 sec)
Back transforming the eigenvectors                 ... done (   0.7 sec)
Now organizing SCF variables                       ... done
                      ------------------
                      INITIAL GUESS DONE (  21.9 sec)
                      ------------------
             **** ENERGY FILE WAS UPDATED (tddft.en.tmp) ****
Finished Guess after  31.4 sec
Maximum memory used throughout the entire GUESS-calculation: 208.9 MB


           ************************************************************
           *        Program running with 8 parallel MPI-processes     *
           *              working on a common directory               *
           ************************************************************

-------------------------------------------------------------------------------------------
                                      ORCA LEAN-SCF
                              memory conserving SCF solver
-------------------------------------------------------------------------------------------

--------------------
CPCM SOLVATION MODEL
--------------------
CPCM parameters:
  Epsilon                                         ...       2.3870
  Refrac                                          ...       1.4961
  Rsolv                                           ...       1.3000
  Surface type                                    ... GAUSSIAN VDW
  Discretization scheme                           ... Constant charge density
    Threshold for H atoms                         ...       5.0000 (charges/Ang^2)
    Threshold for non-H atoms                     ...       5.0000 (charges/Ang^2)
  Epsilon function type                           ...         CPCM
Solvent:                                          ... TOLUENE
Radii:
  Scheme                                          ... Element-dependent radii
  Radius for N  used is    3.5149 Bohr (=   1.8600 Ang.)
  Radius for H  used is    2.4944 Bohr (=   1.3200 Ang.)
  Radius for C  used is    3.8550 Bohr (=   2.0400 Ang.)
  Radius for Zn used is    3.1521 Bohr (=   1.6680 Ang.)
Calculating surface                               ...        done! (  0.1s)
Cavity surface points                             ...         6832
Cavity Volume                                     ...    4920.2253
Cavity Surface-area                               ...    2294.3185
Calculating surface distance matrix               ...        done! (  1.9s)
Performing Cholesky decomposition & store         ...        done! ( 13.6s)
Overall time for CPCM initialization              ...                15.6s

----------------------------------------D-I-I-S--------------------------------------------
Iteration    Energy (Eh)           Delta-E    RMSDP     MaxDP     DIISErr   Damp  Time(sec)
-------------------------------------------------------------------------------------------
               ***  Starting incremental Fock matrix formation  ***
    1    -3692.1586051755984954     0.00e+00  2.76e-03  1.60e-01  3.14e-01  0.700 127.6
Warning: op=0 Small HOMO/LUMO gap (   0.072) - skipping pre-diagonalization
         Will do a full diagonalization
    2    -3692.5940425834160123    -4.35e-01  2.15e-03  6.31e-02  7.84e-02  0.700 107.4
                               ***Turning on AO-DIIS***
    3    -3692.7655289432459540    -1.71e-01  1.07e-03  4.62e-02  3.70e-02  0.700  91.6
    4    -3692.8662160110689001    -1.01e-01  2.25e-03  1.31e-01  1.40e-02  0.000  92.0
    5    -3693.0873842664750555    -2.21e-01  5.92e-04  1.92e-02  2.30e-02  0.000  77.1
    6    -3693.0886553539894521    -1.27e-03  2.47e-04  5.74e-03  2.73e-02  0.000  77.1
    7    -3693.0892633966213907    -6.08e-04  1.01e-04  2.84e-03  5.48e-03  0.000  87.8
                              *** Initializing SOSCF ***
---------------------------------------S-O-S-C-F--------------------------------------
Iteration    Energy (Eh)           Delta-E    RMSDP     MaxDP     MaxGrad    Time(sec)
--------------------------------------------------------------------------------------
    8    -3693.0892974079142732    -3.40e-05  3.85e-05  1.24e-03  7.71e-04    96.9
               *** Restarting incremental Fock matrix formation ***
    9    -3693.0893033052707324    -5.90e-06  4.53e-05  1.20e-03  2.09e-04   109.2
   10    -3693.0893041258950689    -8.21e-07  3.67e-05  1.22e-03  1.25e-04    74.1
   11    -3693.0893045270004222    -4.01e-07  1.90e-05  4.94e-04  9.53e-05    77.7
   12    -3693.0893046027395030    -7.57e-08  2.42e-05  1.02e-03  2.52e-05    77.2
   13    -3693.0893046029850666    -2.46e-10  1.45e-05  3.69e-04  1.64e-05    64.9
                 **** Energy Check signals convergence ****

               *****************************************************
               *                     SUCCESS                       *
               *           SCF CONVERGED AFTER  13 CYCLES          *
               *****************************************************

             **** ENERGY FILE WAS UPDATED (tddft.en.tmp) ****

----------------
TOTAL SCF ENERGY
----------------

Total Energy       :      -3693.08930464749756 Eh         -100494.06900 eV

Components:
Nuclear Repulsion  :       6465.85314393895715 Eh          175944.80891 eV
Electronic Energy  :     -10158.92998303701825 Eh         -276438.53870 eV
One Electron Energy:     -17955.72420561552281 Eh         -488600.09558 eV
Two Electron Energy:       7796.79422257850365 Eh          212161.55688 eV
CPCM Dielectric    :         -0.01246554943580 Eh              -0.33920 eV

Virial components:
Potential Energy   :      -7375.31523643789842 Eh         -200692.53059 eV
Kinetic Energy     :       3682.22593179040132 Eh          100198.46160 eV
Virial Ratio       :          2.00295021898665

DFT components:
N(Alpha)           :      174.999976240393 electrons
N(Beta)            :      174.999976240393 electrons
N(Total)           :      349.999952480786 electrons
E(X)               :     -336.969459292898 Eh       
E(C)               :      -12.251079014621 Eh       
E(XC)              :     -349.220538307518 Eh       

CPCM Solvation Model Properties:
Surface-charge          :         -0.04906612834268
Corrected charge        :          0.00000000000000
Outlying charge corr.   :          0.00005488727804 Eh               0.00149 eV
Free-energy (cav+disp)  :  This term is not implemented in the current solvation scheme

---------------
SCF CONVERGENCE
---------------

  Last Energy change         ...    2.4556e-10  Tolerance :   1.0000e-08
  Last MAX-Density change    ...    3.6944e-04  Tolerance :   1.0000e-07
  Last RMS-Density change    ...    1.4514e-05  Tolerance :   5.0000e-09
  Last DIIS Error            ...    7.7073e-04  Tolerance :   5.0000e-07
  Last Orbital Gradient      ...    1.6449e-05  Tolerance :   1.0000e-05
  Last Orbital Rotation      ...    8.6663e-05  Tolerance :   1.0000e-05


----------------
ORBITAL ENERGIES
----------------

  NO   OCC          E(Eh)            E(eV) 
   0   2.0000    -346.278876     -9422.7273 
   1   2.0000     -41.730690     -1135.5498 
   2   2.0000     -36.730882      -999.4981 
   3   2.0000     -36.721789      -999.2507 
   4   2.0000     -36.721788      -999.2506 
   5   2.0000     -14.098977      -383.6527 
   6   2.0000     -14.098964      -383.6523 
   7   2.0000     -14.098952      -383.6520 
   8   2.0000     -14.098936      -383.6516 
   9   2.0000     -10.019658      -272.6488 
  10   2.0000     -10.019641      -272.6483 
  11   2.0000     -10.019636      -272.6482 
  12   2.0000     -10.019634      -272.6481 
  13   2.0000     -10.019625      -272.6479 
  14   2.0000     -10.019621      -272.6477 
  15   2.0000     -10.019619      -272.6477 
  16   2.0000     -10.019613      -272.6475 
  17   2.0000     -10.006629      -272.2942 
  18   2.0000     -10.006600      -272.2934 
  19   2.0000     -10.006593      -272.2932 
  20   2.0000     -10.006580      -272.2929 
  21   2.0000     -10.000611      -272.1305 
  22   2.0000     -10.000597      -272.1301 
  23   2.0000     -10.000594      -272.1300 
  24   2.0000     -10.000583      -272.1297 
  25   2.0000      -9.989452      -271.8268 
  26   2.0000      -9.989448      -271.8267 
  27   2.0000      -9.989446      -271.8266 
  28   2.0000      -9.989442      -271.8265 
  29   2.0000      -9.989413      -271.8258 
  30   2.0000      -9.989410      -271.8257 
  31   2.0000      -9.989410      -271.8257 
  32   2.0000      -9.989404      -271.8255 
  33   2.0000      -9.989093      -271.8170 
  34   2.0000      -9.989090      -271.8169 
  35   2.0000      -9.989089      -271.8169 
  36   2.0000      -9.989084      -271.8168 
  37   2.0000      -9.988999      -271.8145 
  38   2.0000      -9.988996      -271.8144 
  39   2.0000      -9.988994      -271.8143 
  40   2.0000      -9.988990      -271.8142 
  41   2.0000      -9.988550      -271.8023 
  42   2.0000      -9.988547      -271.8022 
  43   2.0000      -9.988543      -271.8021 
  44   2.0000      -9.988542      -271.8021 
  45   2.0000      -9.982792      -271.6456 
  46   2.0000      -9.982787      -271.6455 
  47   2.0000      -9.982783      -271.6453 
  48   2.0000      -9.982781      -271.6453 
  49   2.0000      -9.982245      -271.6307 
  50   2.0000      -9.982240      -271.6305 
  51   2.0000      -9.982236      -271.6304 
  52   2.0000      -9.982233      -271.6304 
  53   2.0000      -4.630906      -126.0133 
  54   2.0000      -3.047165       -82.9176 
  55   2.0000      -3.034724       -82.5790 
  56   2.0000      -3.034718       -82.5789 
  57   2.0000      -0.899023       -24.4637 
  58   2.0000      -0.890309       -24.2265 
  59   2.0000      -0.890306       -24.2265 
  60   2.0000      -0.880849       -23.9691 
  61   2.0000      -0.807672       -21.9779 
  62   2.0000      -0.804336       -21.8871 
  63   2.0000      -0.804329       -21.8869 
  64   2.0000      -0.802801       -21.8453 
  65   2.0000      -0.764039       -20.7906 
  66   2.0000      -0.747361       -20.3367 
  67   2.0000      -0.747354       -20.3365 
  68   2.0000      -0.730638       -19.8817 
  69   2.0000      -0.710222       -19.3261 
  70   2.0000      -0.709955       -19.3189 
  71   2.0000      -0.709948       -19.3187 
  72   2.0000      -0.704415       -19.1681 
  73   2.0000      -0.693064       -18.8592 
  74   2.0000      -0.692973       -18.8567 
  75   2.0000      -0.692967       -18.8566 
  76   2.0000      -0.692919       -18.8553 
  77   2.0000      -0.686027       -18.6677 
  78   2.0000      -0.679096       -18.4791 
  79   2.0000      -0.679094       -18.4791 
  80   2.0000      -0.662037       -18.0149 
  81   2.0000      -0.655059       -17.8251 
  82   2.0000      -0.606874       -16.5139 
  83   2.0000      -0.606874       -16.5139 
  84   2.0000      -0.569593       -15.4994 
  85   2.0000      -0.559295       -15.2192 
  86   2.0000      -0.559058       -15.2128 
  87   2.0000      -0.559054       -15.2126 
  88   2.0000      -0.558898       -15.2084 
  89   2.0000      -0.552399       -15.0316 
  90   2.0000      -0.552381       -15.0311 
  91   2.0000      -0.546269       -14.8647 
  92   2.0000      -0.545390       -14.8408 
  93   2.0000      -0.532893       -14.5008 
  94   2.0000      -0.515281       -14.0215 
  95   2.0000      -0.515275       -14.0214 
  96   2.0000      -0.505822       -13.7641 
  97   2.0000      -0.500321       -13.6144 
  98   2.0000      -0.498159       -13.5556 
  99   2.0000      -0.482489       -13.1292 
 100   2.0000      -0.482483       -13.1290 
 101   2.0000      -0.477218       -12.9858 
 102   2.0000      -0.472495       -12.8572 
 103   2.0000      -0.470726       -12.8091 
 104   2.0000      -0.470716       -12.8088 
 105   2.0000      -0.457882       -12.4596 
 106   2.0000      -0.445299       -12.1172 
 107   2.0000      -0.445288       -12.1169 
 108   2.0000      -0.421376       -11.4662 
 109   2.0000      -0.415566       -11.3081 
 110   2.0000      -0.413417       -11.2496 
 111   2.0000      -0.413411       -11.2495 
 112   2.0000      -0.411365       -11.1938 
 113   2.0000      -0.409692       -11.1483 
 114   2.0000      -0.409682       -11.1480 
 115   2.0000      -0.408712       -11.1216 
 116   2.0000      -0.401261       -10.9189 
 117   2.0000      -0.390701       -10.6315 
 118   2.0000      -0.390089       -10.6149 
 119   2.0000      -0.387586       -10.5467 
 120   2.0000      -0.387567       -10.5462 
 121   2.0000      -0.384154       -10.4533 
 122   2.0000      -0.382487       -10.4080 
 123   2.0000      -0.380598       -10.3566 
 124   2.0000      -0.380492       -10.3537 
 125   2.0000      -0.380490       -10.3537 
 126   2.0000      -0.378969       -10.3123 
 127   2.0000      -0.378960       -10.3120 
 128   2.0000      -0.378925       -10.3111 
 129   2.0000      -0.375906       -10.2289 
 130   2.0000      -0.372038       -10.1237 
 131   2.0000      -0.369243       -10.0476 
 132   2.0000      -0.361742        -9.8435 
 133   2.0000      -0.361737        -9.8434 
 134   2.0000      -0.360504        -9.8098 
 135   2.0000      -0.360500        -9.8097 
 136   2.0000      -0.356537        -9.7019 
 137   2.0000      -0.344947        -9.3865 
 138   2.0000      -0.343873        -9.3573 
 139   2.0000      -0.338927        -9.2227 
 140   2.0000      -0.338166        -9.2020 
 141   2.0000      -0.338160        -9.2018 
 142   2.0000      -0.332847        -9.0572 
 143   2.0000      -0.330242        -8.9863 
 144   2.0000      -0.328576        -8.9410 
 145   2.0000      -0.328571        -8.9409 
 146   2.0000      -0.317487        -8.6393 
 147   2.0000      -0.312046        -8.4912 
 148   2.0000      -0.311588        -8.4787 
 149   2.0000      -0.308420        -8.3925 
 150   2.0000      -0.308418        -8.3925 
 151   2.0000      -0.307611        -8.3705 
 152   2.0000      -0.307329        -8.3629 
 153   2.0000      -0.307323        -8.3627 
 154   2.0000      -0.297685        -8.1004 
 155   2.0000      -0.284196        -7.7334 
 156   2.0000      -0.283670        -7.7191 
 157   2.0000      -0.283642        -7.7183 
 158   2.0000      -0.254628        -6.9288 
 159   2.0000      -0.254587        -6.9277 
 160   2.0000      -0.234905        -6.3921 
 161   2.0000      -0.234880        -6.3914 
 162   2.0000      -0.234649        -6.3851 
 163   2.0000      -0.233659        -6.3582 
 164   2.0000      -0.233648        -6.3579 
 165   2.0000      -0.231994        -6.3129 
 166   2.0000      -0.230006        -6.2588 
 167   2.0000      -0.229979        -6.2581 
 168   2.0000      -0.229301        -6.2396 
 169   2.0000      -0.220057        -5.9880 
 170   2.0000      -0.220048        -5.9878 
 171   2.0000      -0.219240        -5.9658 
 172   2.0000      -0.199760        -5.4357 
 173   2.0000      -0.185961        -5.0603 
 174   2.0000      -0.178347        -4.8531 
 175   0.0000      -0.104818        -2.8523 
 176   0.0000      -0.104812        -2.8521 
 177   0.0000      -0.055021        -1.4972 
 178   0.0000      -0.040645        -1.1060 
 179   0.0000      -0.039500        -1.0748 
 180   0.0000      -0.039490        -1.0746 
 181   0.0000      -0.038596        -1.0502 
 182   0.0000      -0.037775        -1.0279 
 183   0.0000      -0.037535        -1.0214 
 184   0.0000      -0.036579        -0.9954 
 185   0.0000      -0.036566        -0.9950 
*Only the first 10 virtual orbitals were printed.

                    ********************************
                    * MULLIKEN POPULATION ANALYSIS *
                    ********************************

-----------------------
MULLIKEN ATOMIC CHARGES
-----------------------
   0 N :   -0.210722
   1 H :    0.136806
   2 C :   -0.210705
   3 C :   -0.210827
   4 N :   -0.211848
   5 C :   -0.210938
   6 H :    0.136867
   7 C :    0.219878
   8 N :   -0.211800
   9 C :   -0.210664
  10 C :   -0.016218
  11 C :    0.220611
  12 N :   -0.210769
  13 C :   -0.210677
  14 C :    0.219695
  15 C :    0.220144
  16 C :    0.220434
  17 C :    0.219863
  18 C :   -0.210810
  19 C :   -0.016033
  20 C :   -0.017021
  21 C :   -0.210633
  22 C :    0.220714
  23 C :   -0.210754
  24 C :   -0.017446
  25 C :    0.220644
  26 H :    0.136761
  27 H :    0.136846
  28 H :    0.136739
  29 H :    0.136728
  30 H :    0.136727
  31 H :    0.136787
  32 Zn:    0.174176
  33 C :   -0.013903
  34 C :   -0.146662
  35 C :   -0.143181
  36 C :   -0.083872
  37 C :   -0.143113
  38 C :   -0.146846
  39 H :    0.110681
  40 H :    0.114903
  41 H :    0.118312
  42 H :    0.114891
  43 H :    0.110700
  44 C :   -0.011998
  45 C :   -0.148479
  46 C :   -0.142263
  47 C :   -0.084443
  48 C :   -0.142095
  49 C :   -0.148592
  50 H :    0.110690
  51 H :    0.114942
  52 H :    0.118315
  53 H :    0.114952
  54 H :    0.110674
  55 C :   -0.015177
  56 C :   -0.145868
  57 C :   -0.143509
  58 C :   -0.083563
  59 C :   -0.143728
  60 C :   -0.145592
  61 H :    0.110705
  62 H :    0.114860
  63 H :    0.118294
  64 H :    0.114886
  65 H :    0.110650
  66 C :   -0.015493
  67 C :   -0.145622
  68 C :   -0.143668
  69 C :   -0.083506
  70 C :   -0.143665
  71 C :   -0.145529
  72 H :    0.110665
  73 H :    0.114875
  74 H :    0.118313
  75 H :    0.114856
  76 H :    0.110651
Sum of atomic charges:   -0.0000000

--------------------------------
MULLIKEN REDUCED ORBITAL CHARGES
--------------------------------
  0 N s       :     3.683182  s :     3.683182
      pz      :     1.339254  p :     3.461897
      px      :     1.099690
      py      :     1.022953
      dz2     :     0.004617  d :     0.061870
      dxz     :     0.006901
      dyz     :     0.014361
      dx2y2   :     0.017885
      dxy     :     0.018105
      f0      :     0.000652  f :     0.003774
      f+1     :     0.000307
      f-1     :     0.000427
      f+2     :     0.000120
      f-2     :     0.000626
      f+3     :     0.000679
      f-3     :     0.000965

  1 H s       :     0.842768  s :     0.842768
      pz      :     0.004793  p :     0.020426
      px      :     0.007663
      py      :     0.007969

  2 C s       :     3.302963  s :     3.302963
      pz      :     0.990061  p :     2.809755
      px      :     0.902756
      py      :     0.916938
      dz2     :     0.005814  d :     0.089947
      dxz     :     0.009771
      dyz     :     0.018803
      dx2y2   :     0.019939
      dxy     :     0.035620
      f0      :     0.001324  f :     0.008040
      f+1     :     0.000840
      f-1     :     0.000585
      f+2     :     0.001021
      f-2     :     0.000447
      f+3     :     0.002370
      f-3     :     0.001454

  3 C s       :     3.302973  s :     3.302973
      pz      :     0.989934  p :     2.809887
      px      :     0.917758
      py      :     0.902194
      dz2     :     0.005383  d :     0.089928
      dxz     :     0.019379
      dyz     :     0.009647
      dx2y2   :     0.019877
      dxy     :     0.035642
      f0      :     0.001372  f :     0.008040
      f+1     :     0.000498
      f-1     :     0.000848
      f+2     :     0.001065
      f-2     :     0.000436
      f+3     :     0.001432
      f-3     :     0.002389

  4 N s       :     3.683954  s :     3.683954
      pz      :     1.339551  p :     3.462243
      px      :     1.020227
      py      :     1.102465
      dz2     :     0.004491  d :     0.061876
      dxz     :     0.014557
      dyz     :     0.006790
      dx2y2   :     0.017867
      dxy     :     0.018172
      f0      :     0.000655  f :     0.003774
      f+1     :     0.000417
      f-1     :     0.000314
      f+2     :     0.000116
      f-2     :     0.000622
      f+3     :     0.000973
      f-3     :     0.000679

  5 C s       :     3.303185  s :     3.303185
      pz      :     0.986422  p :     2.809780
      px      :     0.918734
      py      :     0.904624
      dz2     :     0.005660  d :     0.089934
      dxz     :     0.017323
      dyz     :     0.011411
      dx2y2   :     0.019302
      dxy     :     0.036238
      f0      :     0.001357  f :     0.008039
      f+1     :     0.000561
      f-1     :     0.000806
      f+2     :     0.001337
      f-2     :     0.000156
      f+3     :     0.001546
      f-3     :     0.002276

  6 H s       :     0.842702  s :     0.842702
      pz      :     0.004817  p :     0.020431
      px      :     0.006341
      py      :     0.009273

  7 C s       :     3.189995  s :     3.189995
      pz      :     0.941201  p :     2.404019
      px      :     0.775082
      py      :     0.687736
      dz2     :     0.005993  d :     0.171375
      dxz     :     0.029611
      dyz     :     0.036179
      dx2y2   :     0.056469
      dxy     :     0.043122
      f0      :     0.002008  f :     0.014734
      f+1     :     0.000911
      f-1     :     0.001096
      f+2     :     0.000744
      f-2     :     0.002327
      f+3     :     0.003732
      f-3     :     0.003915

  8 N s       :     3.683898  s :     3.683898
      pz      :     1.339638  p :     3.462253
      px      :     1.020214
      py      :     1.102400
      dz2     :     0.004490  d :     0.061875
      dxz     :     0.014560
      dyz     :     0.006788
      dx2y2   :     0.017865
      dxy     :     0.018172
      f0      :     0.000655  f :     0.003774
      f+1     :     0.000417
      f-1     :     0.000314
      f+2     :     0.000116
      f-2     :     0.000622
      f+3     :     0.000973
      f-3     :     0.000679

  9 C s       :     3.303168  s :     3.303168
      pz      :     0.990378  p :     2.809495
      px      :     0.918209
      py      :     0.900908
      dz2     :     0.005589  d :     0.089962
      dxz     :     0.017335
      dyz     :     0.011458
      dx2y2   :     0.019365
      dxy     :     0.036215
      f0      :     0.001357  f :     0.008039
      f+1     :     0.000564
      f-1     :     0.000805
      f+2     :     0.001335
      f-2     :     0.000155
      f+3     :     0.001545
      f-3     :     0.002277

 10 C s       :     3.345568  s :     3.345568
      pz      :     0.967343  p :     2.533727
      px      :     0.770543
      py      :     0.795841
      dz2     :     0.003175  d :     0.127103
      dxz     :     0.022960
      dyz     :     0.024314
      dx2y2   :     0.032285
      dxy     :     0.044368
      f0      :     0.001486  f :     0.009820
      f+1     :     0.000745
      f-1     :     0.000765
      f+2     :     0.000900
      f-2     :     0.001157
      f+3     :     0.002779
      f-3     :     0.001988

 11 C s       :     3.190909  s :     3.190909
      pz      :     0.940633  p :     2.402329
      px      :     0.775459
      py      :     0.686236
      dz2     :     0.006064  d :     0.171416
      dxz     :     0.028357
      dyz     :     0.037379
      dx2y2   :     0.052160
      dxy     :     0.047456
      f0      :     0.002010  f :     0.014736
      f+1     :     0.000839
      f-1     :     0.001167
      f+2     :     0.001188
      f-2     :     0.001893
      f+3     :     0.002608
      f-3     :     0.005032

 12 N s       :     3.683233  s :     3.683233
      pz      :     1.338894  p :     3.461891
      px      :     1.099658
      py      :     1.023338
      dz2     :     0.004647  d :     0.061871
      dxz     :     0.006911
      dyz     :     0.014332
      dx2y2   :     0.017886
      dxy     :     0.018095
      f0      :     0.000650  f :     0.003774
      f+1     :     0.000307
      f-1     :     0.000429
      f+2     :     0.000121
      f-2     :     0.000626
      f+3     :     0.000678
      f-3     :     0.000963

 13 C s       :     3.303378  s :     3.303378
      pz      :     0.987909  p :     2.809300
      px      :     0.901603
      py      :     0.919789
      dz2     :     0.005614  d :     0.089959
      dxz     :     0.011809
      dyz     :     0.016986
      dx2y2   :     0.019430
      dxy     :     0.036120
      f0      :     0.001337  f :     0.008040
      f+1     :     0.000752
      f-1     :     0.000653
      f+2     :     0.001303
      f-2     :     0.000174
      f+3     :     0.002254
      f-3     :     0.001566

 14 C s       :     3.190185  s :     3.190185
      pz      :     0.940096  p :     2.403993
      px      :     0.686776
      py      :     0.777120
      dz2     :     0.005602  d :     0.171392
      dxz     :     0.036988
      dyz     :     0.029313
      dx2y2   :     0.056331
      dxy     :     0.043159
      f0      :     0.002040  f :     0.014734
      f+1     :     0.001051
      f-1     :     0.000912
      f+2     :     0.000764
      f-2     :     0.002300
      f+3     :     0.003935
      f-3     :     0.003731

 15 C s       :     3.191031  s :     3.191031
      pz      :     0.941474  p :     2.402660
      px      :     0.684975
      py      :     0.776210
      dz2     :     0.005726  d :     0.171430
      dxz     :     0.038469
      dyz     :     0.027891
      dx2y2   :     0.051921
      dxy     :     0.047422
      f0      :     0.002038  f :     0.014736
      f+1     :     0.001089
      f-1     :     0.000873
      f+2     :     0.001154
      f-2     :     0.001902
      f+3     :     0.005065
      f-3     :     0.002614

 16 C s       :     3.190735  s :     3.190735
      pz      :     0.938585  p :     2.402664
      px      :     0.775441
      py      :     0.688638
      dz2     :     0.006036  d :     0.171432
      dxz     :     0.028546
      dyz     :     0.037544
      dx2y2   :     0.052073
      dxy     :     0.047233
      f0      :     0.002012  f :     0.014735
      f+1     :     0.000836
      f-1     :     0.001160
      f+2     :     0.001190
      f-2     :     0.001892
      f+3     :     0.002614
      f-3     :     0.005031

 17 C s       :     3.190150  s :     3.190150
      pz      :     0.938422  p :     2.403881
      px      :     0.775205
      py      :     0.690254
      dz2     :     0.005881  d :     0.171372
      dxz     :     0.029792
      dyz     :     0.036343
      dx2y2   :     0.056393
      dxy     :     0.042964
      f0      :     0.002011  f :     0.014733
      f+1     :     0.000905
      f-1     :     0.001095
      f+2     :     0.000742
      f-2     :     0.002331
      f+3     :     0.003733
      f-3     :     0.003916

 18 C s       :     3.303169  s :     3.303169
      pz      :     0.989126  p :     2.809666
      px      :     0.902317
      py      :     0.918223
      dz2     :     0.005639  d :     0.089936
      dxz     :     0.011826
      dyz     :     0.016972
      dx2y2   :     0.019404
      dxy     :     0.036095
      f0      :     0.001338  f :     0.008040
      f+1     :     0.000749
      f-1     :     0.000652
      f+2     :     0.001305
      f-2     :     0.000178
      f+3     :     0.002254
      f-3     :     0.001564

 19 C s       :     3.346367  s :     3.346367
      pz      :     0.972329  p :     2.532757
      px      :     0.791255
      py      :     0.769174
      dz2     :     0.003210  d :     0.127090
      dxz     :     0.024971
      dyz     :     0.022156
      dx2y2   :     0.032527
      dxy     :     0.044227
      f0      :     0.001506  f :     0.009819
      f+1     :     0.000715
      f-1     :     0.000775
      f+2     :     0.000911
      f-2     :     0.001148
      f+3     :     0.001987
      f-3     :     0.002776

 20 C s       :     3.345627  s :     3.345627
      pz      :     0.974187  p :     2.534443
      px      :     0.769971
      py      :     0.790285
      dz2     :     0.003432  d :     0.127131
      dxz     :     0.022930
[...]
  0-1A  -> 26-1A    3.554886   28672.1   348.8   0.016917266   0.19424  -0.08456  -0.43047   0.04232
  0-1A  -> 27-1A    3.559478   28709.1   348.3   0.003717938   0.04263  -0.12196   0.16612  -0.01284
  0-1A  -> 28-1A    3.559657   28710.6   348.3   0.003618662   0.04149  -0.16752  -0.11507   0.01373
  0-1A  -> 29-1A    3.560976   28721.2   348.2   0.000013784   0.00016  -0.01243   0.00095  -0.00162
  0-1A  -> 30-1A    3.667826   29583.0   338.0   0.186180280   2.07189  -1.16509  -0.83941   0.09923

----------------------------------------------------------------------------------------------------
                     ABSORPTION SPECTRUM VIA TRANSITION VELOCITY DIPOLE MOMENTS    
----------------------------------------------------------------------------------------------------
     Transition      Energy     Energy  Wavelength fosc(P2)      P2        PX        PY        PZ   
                      (eV)      (cm-1)    (nm)                 (au**2)    (au)      (au)      (au)  
----------------------------------------------------------------------------------------------------
  0-1A  ->  1-1A    2.221419   17917.0   558.1   0.012618554   0.00155  -0.03773  -0.01090   0.00162
  0-1A  ->  2-1A    2.221506   17917.7   558.1   0.012535166   0.00154  -0.01071   0.03753  -0.00345
  0-1A  ->  3-1A    2.606566   21023.4   475.7   0.000000953   0.00000   0.00018  -0.00032   0.00003
  0-1A  ->  4-1A    2.606741   21024.8   475.6   0.000005338   0.00000   0.00058  -0.00065   0.00005
  0-1A  ->  5-1A    2.942255   23730.9   421.4   1.392681985   0.22588  -0.31758  -0.35147   0.03861
  0-1A  ->  6-1A    2.942368   23731.8   421.4   1.390483472   0.22553   0.35321  -0.31650   0.02454
  0-1A  ->  7-1A    3.222170   25988.6   384.8   0.000040430   0.00001  -0.00026   0.00026   0.00265
  0-1A  ->  8-1A    3.237848   26115.0   382.9   0.033434878   0.00597   0.05772  -0.05119   0.00395
  0-1A  ->  9-1A    3.238039   26116.5   382.9   0.033552339   0.00599   0.05169   0.05725  -0.00630
  0-1A  -> 10-1A    3.249525   26209.2   381.5   0.000004195   0.00000  -0.00058  -0.00064   0.00004
  0-1A  -> 11-1A    3.273008   26398.6   378.8   0.000004536   0.00000  -0.00037   0.00082  -0.00005
  0-1A  -> 12-1A    3.327505   26838.1   372.6   0.000000690   0.00000   0.00022   0.00028  -0.00003
  0-1A  -> 13-1A    3.401224   27432.7   364.5   0.012196893   0.00229   0.04385   0.01895  -0.00212
  0-1A  -> 14-1A    3.401339   27433.7   364.5   0.012207924   0.00229  -0.01946   0.04350  -0.00422
  0-1A  -> 15-1A    3.411344   27514.3   363.4   0.000022270   0.00000  -0.00127  -0.00160  -0.00001
  0-1A  -> 16-1A    3.413241   27529.6   363.2   0.001064525   0.00020   0.00304  -0.00251  -0.01359
  0-1A  -> 17-1A    3.415812   27550.4   363.0   0.000010634   0.00000   0.00058   0.00129  -0.00005
  0-1A  -> 18-1A    3.417328   27562.6   362.8   0.000052305   0.00001   0.00181  -0.00244   0.00080
  0-1A  -> 19-1A    3.466242   27957.1   357.7   0.005776052   0.00110   0.01158   0.03097  -0.00320
  0-1A  -> 20-1A    3.466378   27958.2   357.7   0.005923065   0.00113   0.03131  -0.01227   0.00098
  0-1A  -> 21-1A    3.485877   28115.5   355.7   0.000008078   0.00000   0.00096   0.00080  -0.00002
  0-1A  -> 22-1A    3.510562   28314.6   353.2   0.000731049   0.00014  -0.00062   0.00115   0.01182
  0-1A  -> 23-1A    3.516792   28364.8   352.5   0.000002973   0.00000  -0.00031   0.00067   0.00019
  0-1A  -> 24-1A    3.530007   28471.4   351.2   0.000000949   0.00000  -0.00042  -0.00011  -0.00002
  0-1A  -> 25-1A    3.554780   28671.2   348.8   0.015619428   0.00306  -0.05429   0.01063   0.00007
  0-1A  -> 26-1A    3.554886   28672.1   348.8   0.016046058   0.00314   0.01076   0.05477  -0.00539
  0-1A  -> 27-1A    3.559478   28709.1   348.3   0.003455040   0.00068   0.01538  -0.02095   0.00161
  0-1A  -> 28-1A    3.559657   28710.6   348.3   0.003365511   0.00066   0.02114   0.01451  -0.00173
  0-1A  -> 29-1A    3.560976   28721.2   348.2   0.000012911   0.00000   0.00157  -0.00012   0.00021
  0-1A  -> 30-1A    3.667826   29583.0   338.0   0.178192190   0.03603   0.15364   0.11069  -0.01308

------------------------------------------------------------------------------------------
                     CD SPECTRUM VIA TRANSITION ELECTRIC DIPOLE MOMENTS    
------------------------------------------------------------------------------------------
     Transition      Energy     Energy  Wavelength    R        MX        MY        MZ   
                      (eV)      (cm-1)    (nm)   (1e40*cgs)   (au)      (au)      (au)  
------------------------------------------------------------------------------------------
  0-1A  ->  1-1A    2.221419   17917.0   558.1   -2.86030   0.01193   0.00307  -0.00008
  0-1A  ->  2-1A    2.221506   17917.7   558.1   -2.86433   0.00366  -0.01175   0.00115
  0-1A  ->  3-1A    2.606566   21023.4   475.7   -0.14230   0.06297   0.12245  -0.01223
  0-1A  ->  4-1A    2.606741   21024.8   475.6   -0.56441  -0.12306   0.06283  -0.00451
  0-1A  ->  5-1A    2.942255   23730.9   421.4  -63.04790   0.02077   0.02123  -0.00205
  0-1A  ->  6-1A    2.942368   23731.8   421.4  -62.22729  -0.02216   0.01920  -0.00204
  0-1A  ->  7-1A    3.222170   25988.6   384.8  -10.54386  -0.01685  -0.09556  -1.00587
  0-1A  ->  8-1A    3.237848   26115.0   382.9   -0.28757  -0.00092   0.00091   0.00744
  0-1A  ->  9-1A    3.238039   26116.5   382.9   -0.48057  -0.00146  -0.00060   0.00127
  0-1A  -> 10-1A    3.249525   26209.2   381.5   -0.00108   0.00014   0.00054   0.00411
  0-1A  -> 11-1A    3.273008   26398.6   378.8    0.00041  -0.00006   0.00007  -0.00051
  0-1A  -> 12-1A    3.327505   26838.1   372.6   -0.00011   0.00005  -0.00015  -0.00011
  0-1A  -> 13-1A    3.401224   27432.7   364.5   19.09132   0.09443   0.04224  -0.00484
  0-1A  -> 14-1A    3.401339   27433.7   364.5   18.97640  -0.04122   0.09365  -0.01054
  0-1A  -> 15-1A    3.411344   27514.3   363.4    0.02920  -0.00230  -0.00291  -0.00343
  0-1A  -> 16-1A    3.413241   27529.6   363.2    8.62786  -0.00007  -0.01723  -0.16614
  0-1A  -> 17-1A    3.415812   27550.4   363.0    0.01718   0.00153   0.00282   0.00091
  0-1A  -> 18-1A    3.417328   27562.6   362.8    0.04883   0.00214  -0.00200   0.00504
  0-1A  -> 19-1A    3.466242   27957.1   357.7   11.22694   0.03165   0.08299  -0.00799
  0-1A  -> 20-1A    3.466378   27958.2   357.7   11.43773   0.08362  -0.03271  -0.00149
  0-1A  -> 21-1A    3.485877   28115.5   355.7    0.00937   0.00140   0.00140  -0.00140
  0-1A  -> 22-1A    3.510562   28314.6   353.2   -7.84662  -0.00589  -0.01604  -0.17797
  0-1A  -> 23-1A    3.516792   28364.8   352.5   -0.00528   0.00007  -0.00066  -0.00509
  0-1A  -> 24-1A    3.530007   28471.4   351.2    0.00081  -0.00049  -0.00014   0.00002
  0-1A  -> 25-1A    3.554780   28671.2   348.8    8.91540  -0.04254   0.00903   0.00151
  0-1A  -> 26-1A    3.554886   28672.1   348.8    8.98916   0.00771   0.04239  -0.00399
  0-1A  -> 27-1A    3.559478   28709.1   348.3    1.23173   0.00760  -0.01014   0.00009
  0-1A  -> 28-1A    3.559657   28710.6   348.3    1.13412   0.00990   0.00638  -0.00094
  0-1A  -> 29-1A    3.560976   28721.2   348.2    0.00392   0.00064  -0.00044  -0.00006
  0-1A  -> 30-1A    3.667826   29583.0   338.0    5.17987   0.00603   0.00463  -0.00080

------------------------------------------------------------------------------------------
                     CD SPECTRUM VIA TRANSITION VELOCITY DIPOLE MOMENTS    
------------------------------------------------------------------------------------------
     Transition      Energy     Energy  Wavelength    R        MX        MY        MZ   
                      (eV)      (cm-1)    (nm)   (1e40*cgs)   (au)      (au)      (au)  
------------------------------------------------------------------------------------------
  0-1A  ->  1-1A    2.221419   17917.0   558.1   -2.79369   0.01193   0.00307  -0.00008
  0-1A  ->  2-1A    2.221506   17917.7   558.1   -2.79642   0.00366  -0.01175   0.00115
  0-1A  ->  3-1A    2.606566   21023.4   475.7   -0.14254   0.06297   0.12245  -0.01223
  0-1A  ->  4-1A    2.606741   21024.8   475.6   -0.55586  -0.12306   0.06283  -0.00451
  0-1A  ->  5-1A    2.942255   23730.9   421.4  -61.63860   0.02077   0.02123  -0.00205
  0-1A  ->  6-1A    2.942368   23731.8   421.4  -60.83425  -0.02216   0.01920  -0.00204
  0-1A  ->  7-1A    3.222170   25988.6   384.8  -10.71066  -0.01685  -0.09556  -1.00587
  0-1A  ->  8-1A    3.237848   26115.0   382.9   -0.27971  -0.00092   0.00091   0.00744
  0-1A  ->  9-1A    3.238039   26116.5   382.9   -0.46729  -0.00146  -0.00060   0.00127
  0-1A  -> 10-1A    3.249525   26209.2   381.5   -0.00106   0.00014   0.00054   0.00411
  0-1A  -> 11-1A    3.273008   26398.6   378.8    0.00040  -0.00006   0.00007  -0.00051
  0-1A  -> 12-1A    3.327505   26838.1   372.6   -0.00011   0.00005  -0.00015  -0.00011
  0-1A  -> 13-1A    3.401224   27432.7   364.5   18.67712   0.09443   0.04224  -0.00484
  0-1A  -> 14-1A    3.401339   27433.7   364.5   18.55917  -0.04122   0.09365  -0.01054
  0-1A  -> 15-1A    3.411344   27514.3   363.4    0.02872  -0.00230  -0.00291  -0.00343
  0-1A  -> 16-1A    3.413241   27529.6   363.2    8.64896  -0.00007  -0.01723  -0.16614
  0-1A  -> 17-1A    3.415812   27550.4   363.0    0.01684   0.00153   0.00282   0.00091
  0-1A  -> 18-1A    3.417328   27562.6   362.8    0.04800   0.00214  -0.00200   0.00504
  0-1A  -> 19-1A    3.466242   27957.1   357.7   10.96400   0.03165   0.08299  -0.00799
  0-1A  -> 20-1A    3.466378   27958.2   357.7   11.16943   0.08362  -0.03271  -0.00149
  0-1A  -> 21-1A    3.485877   28115.5   355.7    0.00916   0.00140   0.00140  -0.00140
  0-1A  -> 22-1A    3.510562   28314.6   353.2   -7.74274  -0.00589  -0.01604  -0.17797
  0-1A  -> 23-1A    3.516792   28364.8   352.5   -0.00522   0.00007  -0.00066  -0.00509
  0-1A  -> 24-1A    3.530007   28471.4   351.2    0.00079  -0.00049  -0.00014   0.00002
  0-1A  -> 25-1A    3.554780   28671.2   348.8    8.68285  -0.04254   0.00903   0.00151
  0-1A  -> 26-1A    3.554886   28672.1   348.8    8.75463   0.00771   0.04239  -0.00399
  0-1A  -> 27-1A    3.559478   28709.1   348.3    1.18740   0.00760  -0.01014   0.00009
  0-1A  -> 28-1A    3.559657   28710.6   348.3    1.09374   0.00990   0.00638  -0.00094
  0-1A  -> 29-1A    3.560976   28721.2   348.2    0.00379   0.00064  -0.00044  -0.00006
  0-1A  -> 30-1A    3.667826   29583.0   338.0    5.06753   0.00603   0.00463  -0.00080

Total run time:     8905.817 sec

           *** ORCA-CIS/TD-DFT FINISHED WITHOUT ERROR ***
-----------------------
CIS/TD-DFT TOTAL ENERGY
-----------------------

    E(SCF)  =  -3693.089304647 Eh
    DE(CIS) =      0.081635659 Eh (Root  1)
    ----------------------------- ---------
    E(tot)  =  -3693.007668989 Eh


Maximum memory used throughout the entire CIS-calculation: 3010.3 MB
=> NOW LEAVING ORCA_CIS

-------------------------   --------------------
FINAL SINGLE POINT ENERGY     -3693.007668988523
-------------------------   --------------------



           ************************************************************
           *        Program running with 8 parallel MPI-processes     *
           *              working on a common directory               *
           ************************************************************

------------------------------------------------------------------------------
                              ORCA PROPERTY CALCULATIONS
------------------------------------------------------------------------------

GBWName                                 ... tddft.gbw
Number of atoms                         ...     77
Number of basis functions               ...   1704
Max core memory                         ...   3000 MB

Electric properties:
Dipole moment                           ... YES
Quadrupole moment                       ...  NO
Static polarizability (Dipole/Dipole)   ...  NO
Static polarizability (Dipole/Quad.)    ...  NO
Static polarizability (Quad./Quad.)     ...  NO
Static polarizability (Velocity)        ...  NO
Static hyperpolarizability              ...  NO

Atomic electric properties:
Dipole moment                           ...  NO
Quadrupole moment                       ...  NO
Static polarizability                   ...  NO

Choice of electric origin               ... Center of mass
Position of electric origin             ...    -0.159900     5.089041     6.548333

General magnetic properties:
Magnetizability                         ...  NO

EPR properties:
g-Tensor (aka g-matrix)                 ...  NO
Zero-Field splitting spin-orbit         ...  NO
Zero-field splitting spin-spin          ...  NO
Hyperfine couplings                     ...  NO (   0 nuclei)
Quadrupole couplings                    ...  NO (   0 nuclei)
Contact density                         ...  NO (   0 nuclei)

NMR properties:
Chemical shifts                         ...  NO (   0 nuclei)
Spin-rotation constants                 ...  NO (   0 nuclei)
Spin-spin couplings                     ...  NO (   0 nuclei,    0 pairs)

Choice of magnetic origin               ... GIAO
Position of magnetic origin             ...     0.000000     0.000000     0.000000

Properties with geometric perturbations:
SCF Hessian                             ...  NO
IR spectrum                             ...  NO
VCD spectrum                            ...  NO
X-ray spectroscopy properties:
SCF XES/XAS/RIXS spectra                ...  NO

SCF SOC stabilization energy            ...  NO
Diagonal Born-Oppenheimer correction    ...  NO

-------------
DIPOLE MOMENT
-------------

Method             : SCF
Type of density    : Electron Density
Multiplicity       :   1
Irrep              :   0
Energy             : -3693.0893046474975563 Eh
Basis              : AO
                                X                 Y                 Z
Electronic contribution:     -0.008657058       0.002370542       0.018591030
Nuclear contribution   :      0.009078313      -0.003119452      -0.019187423
                        -----------------------------------------
Total Dipole Moment    :      0.000421256      -0.000748910      -0.000596393
                        -----------------------------------------
Magnitude (a.u.)       :      0.001045948
Magnitude (Debye)      :      0.002658587



--------------------
Rotational spectrum 
--------------------
 
Rotational constants in cm-1:             0.001946             0.001946             0.001013 
Rotational constants in MHz :            58.342005            58.333325            30.369733 

Dipole components along the rotational axes: 
x,y,z [a.u.] :     0.000449    -0.000677    -0.000658 
x,y,z [Debye]:     0.001142    -0.001721    -0.001674 

 

Dipole moment calculation done in   1.8 sec 

Maximum memory used throughout the entire PROP-calculation: 234.8 MB

--------------------------------
SUGGESTED CITATIONS FOR THIS RUN
--------------------------------

Below you find a list of papers that are relevant to this ORCA run
We neither can nor want to force you to cite these papers, but we appreciate if you do
You receive ORCA, which is the product of decades of hard work by many enthusiastic individuals, for free
The only thing we kindly ask in return is that you cite our papers,
We deeply appreciate it, if you show your appreciation for ORCA by not just citing the generic ORCA reference.

Please note that relegating all ORCA citations to the supporting information does *not* help us.
SI sections are not indexed - citations you put there will not count into any citation statistics
But we need these citations in order to attract the funding resources that allow us to do what we are doing

Therefore, if you are a happy ORCA user, please consider citing a few of the papers listed below in the main body of your paper

In addition to the list printed below, the program has created the file tddft.bibtex that contains the list in bibtex format
You can import this file easily into all common literature databanks and citation aid programs

It goes without saying that in many instances, there are alternative algorithms to achieve similar
results as the ones you have gotten from ORCA. It is, of course, also the case that in some instances
ORCA just re-implements algorithms worked out by others. We are fully aware of that and we are also
fully appreciative of our colleagues work. Hence this citation list should not be read as indicating
that the listed papers, which are focused on our own work, are the only ones worth citing. It simply
meant to make it easier for users to cite ORCA specific papers. It is not a substitute for doing your
own literature research and citing the relevant literature in a scientifically appropriate manner.

List of essential papers. We consider these as the minimum necessary citations

  1. Neese, F.
     Software update: the ORCA program system, version 6.0
     WIRES Comput. Molec. Sci. 2025 15(1), e70019
     doi.org/10.1002/wcms.70019

List of papers to cite with high priority. The work reported in these papers was absolutely
necessary for this run to complete.
Our perspective: the developers of density functionals and basis sets usually get cited in chemistry papers
Good! But without the algorithms to do something with them, the functionals or basis sets would not do anything.
Hence, in our opinion, the algorithm design and method developments papers are equally worthy of getting cited

  1. Neese, F.; Olbrich, G.
     Efficient use of the resolution of the identity approximation in time-dependent density functional calculations with hybrid density functionals
     Chem. Phys. Lett. 2002 362 , 170-178
     doi.org/10.1016/s0009-2614(02)01053-9
  2. Neese, F.
     An improvement of the resolution of the identity approximation for the formation of the Coulomb matrix
     J. Comp. Chem. 2003 24(14), 1740-1747
     doi.org/10.1002/jcc.10318
  3. Garcia-Rates, M.; Neese, F.
     Effect of the Solute Cavity on the Solvation Energy and its Derivatives within the Framework of the Gaussian Charge Scheme
     J. Comput. Chem. 2020 41 , 922-939
     doi.org/10.1002/jcc.26139
  4. Neese, F.
     The SHARK Integral Generation and Digestion System
     J. Comp. Chem. 2022 44(3), 381
     doi.org/10.1002/jcc.26942

List of suggested additional citations. These are papers that are important in the 'surrounding' of 
of this run, or papers that preceded the highly important papers. If you like your results we are grateful for a citation.

  1. Neese, F.
     The ORCA program system
     WIRES Comput. Molec. Sci. 2012 2(1), 73-78
     doi.org/10.1002/wcms.81
  2. Neese, F.
     Software update: the ORCA program system, version 4.0
     WIRES Comput. Molec. Sci. 2018 8(1), 1-6
     doi.org/10.1002/wcms.1327
  3. Neese, F.; Wennmohs, F.; Becker, U.; Riplinger, C.
     The ORCA quantum chemistry program package
     J. Chem. Phys. 2020 152(22), 224108
     doi.org/10.1063/5.0004608
  4. Neese, F.
     Software update: The ORCA program system—Version 5.0
     WIRES Comput. Molec. Sci. 2022 12(1), e1606
     doi.org/10.1002/wcms.1606

List of optional additional citations

  1. Neese, F.
     Approximate second-order SCF convergence for spin unrestricted wavefunctions
     Chem. Phys. Lett. 2000 325(1-3), 93-98
     doi.org/10.1016/s0009-2614(00)00662-x

Timings for individual modules:

Sum of individual times          ...    10247.411 sec (= 170.790 min)
Startup calculation              ...       40.972 sec (=   0.683 min)   0.4 %
SCF iterations                   ...     1288.049 sec (=  21.467 min)  12.6 %
Property integrals               ...        4.870 sec (=   0.081 min)   0.0 %
Property calculations            ...        6.316 sec (=   0.105 min)   0.1 %
CIS module                       ...     8907.204 sec (= 148.453 min)  86.9 %
                             ****ORCA TERMINATED NORMALLY****
TOTAL RUN TIME: 0 days 2 hours 50 minutes 49 seconds 575 msec
