
                                 *****************
                                 * O   R   C   A *
                                 *****************

                                            #,                                       
                                            ###                                      
                                            ####                                     
                                            #####                                    
                                            ######                                   
                                           ########,                                 
                                     ,,################,,,,,                         
                               ,,#################################,,                 
                          ,,##########################################,,             
                       ,#########################################, ''#####,          
                    ,#############################################,,   '####,        
                  ,##################################################,,,,####,       
                ,###########''''           ''''###############################       
              ,#####''   ,,,,##########,,,,          '''####'''          '####       
            ,##' ,,,,###########################,,,                        '##       
           ' ,,###''''                  '''############,,,                           
         ,,##''                                '''############,,,,        ,,,,,,###''
      ,#''                                            '''#######################'''  
     '                                                          ''''####''''         
             ,#######,   #######,   ,#######,      ##                                
            ,#'     '#,  ##    ##  ,#'     '#,    #''#        ,####,    ,#,          
            ##       ##  ##   ,#'  ##            #'  '#       #'       ,# #          
            ##       ##  #######   ##           ,######,      #####,      #          
            '#,     ,#'  ##    ##  '#,     ,#' ,#      #,     #,   #      #          
             '#######'   ##     ##  '#######'  #'      '#     '####' #    #          



                #########################################################
                #                        -***-                          #
                #          Department of theory and spectroscopy        #
                #                                                       #
                #                      Frank Neese                      #
                #                                                       #
                #     Directorship, Architecture, Infrastructure        #
                #                    SHARK, DRIVERS                     #
                #        Core code/Algorithms in most modules           #
                #                                                       #
                #        Max Planck Institute fuer Kohlenforschung      #
                #                Kaiser Wilhelm Platz 1                 #
                #                 D-45470 Muelheim/Ruhr                 #
                #                      Germany                          #
                #                                                       #
                #                  All rights reserved                  #
                #                        -***-                          #
                #########################################################


                         Program Version 6.1.1  -  RELEASE   -
                                (GIT: $487d211c$)
                          ($2025-11-21 10:33:24 +0100$)


 With contributions from (in alphabetic order):
[Max-Planck-Institut fuer Kohlenforschung]                               
  Daniel Aravena         : Magnetic Suceptibility                        
  Michael Atanasov       : Ab Initio Ligand Field Theory (pilot matlab implementation)
  Alexander A. Auer      : GIAO ZORA, VPT2 properties, NMR spectrum      
  Ute Becker             : All parallelization in ORCA, NUMFREQ, NUMCALC 
  Giovanni Bistoni       : ED, misc. LED, open-shell LED, HFLD           
  Dmytro Bykov           : pre 5.0 version of the SCF Hessian            
  Marcos Casanova-Páez   : Triplet and SCS-CIS(D). UHF-(DLPNO)-IP/EA/STEOM-CCSD. UHF-CVS-IP/STEOM-CCSD   
  Vijay G. Chilkuri      : MRCI spin determinant printing, contributions to CSF-ICE 
  Pauline Colinet        : FMM embedding                                 
  Dipayan Datta          : RHF DLPNO-CCSD density                        
  Achintya Kumar Dutta   : EOM-CC, STEOM-CC                              
  Nicolas Foglia         : Exact transition moments, OPA infrastructure, MCD improvements    
  Dmitry Ganyushin       : Spin-Orbit,Spin-Spin,Magnetic field MRCI      
  Miquel Garcia-Rates    : C-PCM and meta-GGA Hessian, CCSD/C-PCM, Gaussian charge scheme 
  Tiago L. C. Gouveia    : GS-ROHF, GS-ROCIS                             
  Yang Guo               : DLPNO-NEVPT2, F12-NEVPT2, CIM, IAO-localization        
  Andreas Hansen         : Spin unrestricted coupled pair/coupled cluster methods 
  Ingolf Harden          : AUTO-CI MPn and infrastructure                
  Benjamin Helmich-Paris : MC-RPA, TRAH-(SCF,CASSCF), AVAS, COSX integrals, SCF dyn. polar., MC-PDFT, srDFT 
  Lee Huntington         : MR-EOM, pCC                                   
  Robert Izsak           : Overlap fitted RIJCOSX, COSX-SCS-MP3, EOM     
  Riya Kayal             : Wick's Theorem for AUTO-CI, AUTO-CI UHF-CCSDT 
  Emily Kempfer          : AUTO-CI RHF CISDT and CCSDT, approximate NEVPT4
  Christian Kollmar      : KDIIS, OOCD, Brueckner-CCSD(T), CCSD density, CASPT2, CASPT2-K, improved NEVPT2 
  Axel Koslowski         : Symmetry handling                             
  Simone Kossmann        : meta-GGA functionals, TD-DFT gradient, OOMP2, (MP2 Hessian; deprecated post 5.0) 
  Lucas Lang             : DCDCAS, Hyperfine gauge corrections, ICE-SOC+SSC
  Marvin Lechner         : AUTO-CI (C++ implementation), FIC-MRCC        
  Spencer Leger          : CASSCF response                               
  Dagmar Lenk            : GEPOL surface, SMD, ORCA-2-JSON               
  Dimitrios Liakos       : Extrapolation schemes; Compound Job, Property file
  Dimitrios Manganas     : Further ROCIS development; embedding schemes. LFT, Crystal Embedding 
  Dimitrios Pantazis     : SARC Basis sets                               
  Anastasios Papadopoulos: AUTO-CI, single reference methods and gradients 
  Taras Petrenko         : pre 6.0 DFT Hessian and TD-DFT gradient,  ECA, NRVS 
  Petra Pikulova         : Analytic Raman intensities                    
  Peter Pinski           : DLPNO-MP2, DLPNO-MP2 Gradient                 
  Shashank Vittal Rao    : ES-AILFT, MagRelax                            
  Christoph Reimann      : Effective Core Potentials                     
  Marius Retegan         : Local ZFS, SOC                                
  Christoph Riplinger    : Optimizer, TS searches, QM/MM, DLPNO-CCSD(T), (RO)-DLPNO pert. Triples 
  Michael Roemelt        : Original ROCIS implementation, recursive CI coupling coefficients
  Masaaki Saitow         : Open-shell DLPNO-CCSD energy and density      
  Barbara Sandhoefer     : DKH picture change effects                    
  Yorick L. A. Schmerwitz: GMF and freeze-and-release deltaSCF, NEB S-IDPP initial path                    
  Kantharuban Sivalingam : CASSCF convergence/infrastructure, NEVPT2, NEVPT3, NEVPT4(SD), FIC-MRCI and CEPA variants
  Bernardo de Souza      : ESD, SOC TD-DFT                               
  Georgi L. Stoychev     : AutoAux, RI-MP2 NMR, DLPNO-MP2 response, X2C  
  Van Anh Tran           : RI-MP2 g-tensors                              
  Willem Van den Heuvel  : Paramagnetic NMR                              
  Zikuan Wang            : NOTCH, Electric field optimization            
  Frank Wennmohs         : Technical directorship and infrastructure     
  Hang Xu                : AUTO-CI-Response properties                   
                                                                         
[FACCTs GmbH]                                                            
  Markus Bursch, Nicolas Foglia, Miquel Garcia-Rates, Ingolf Harden, Hagen Neugebauer, Anastasios Papadopoulos, 
  Christoph Riplinger, Bernardo de Souza, Georgi L. Stoychev                                                    
                                                                 
  APM, various basis sets, CI-OPT, improved COSX, DLPNO-Multilevel,           
  DOCKER, DRACO, updates on ESD, Fragmentator, GOAT, IRC, LR-CPCM, L-BFGS, MBIS, meta-GGA TD-DFT gradient, ML-optimized integration grids, 
  MM, NACMEs, nearIR, NEB, NEB-TS, NL-DFT gradient (VV10), 2- and 3-layer-ONIOM, interface openCOSMO-RS, QMMM,   
  Crystal-QMMM, RESP, rigid body optimization, SF, symmetry and pop. for TD-DFT, various functionals, SOLVATOR                                   
                                                                         
[Other institutions]                                                     
  V. Asgeirsson          : NEB                                           
  Christoph Bannwarth    : sTDA-DFT, sTD-DFT, PBEh-3c, B97-3c, D3        
  Giovanni Bistoni       : ETS/NOCV, ADLD/ADEX, COVALED                  
  Martin Brehm           : Molecular dynamics                            
  Ronald Cardenas        : ETS/NOCV                                      
  Martina Colucci        : COVALED                                       
  Sebastian Ehlert       : rSCAN, r2SCAN, r2SCAN-3c, D4, dhf basis sets  
  Marvin Friede          : D4 for Fr, Ra, Ac-Lr                          
  Lars Goerigk           : TD-DFT with DH, B97 family of functionals     
  Stefan Grimme          : VdW corrections, initial TS optimization, DFT functionals, gCP, sTDA/sTD-DF 
  Waldemar Hujo          : DFT-NL                                        
  H. Jonsson             : NEB                                           
  Holger Kruse           : gCP                                           
  Marcel Mueller         : wB97X-3c, vDZP basis set                      
  Hagen Neugebauer       : wr2SCAN, Native XTB                           
  Gianluca Regni         : ADLD/ADEX                                     
  Tobias Risthaus        : pre 6.0 range-separated hybrid DFT and stability analysis
  Lukas Wittmann         : regularized MP2, r2SCAN double-hybrids, wr2SCAN        
                                                                         
We gratefully acknowledge several colleagues who have allowed us to      
interface, adapt or use parts of their codes:                            
  Ed Valeev, F. Pavosevic, A. Kumar             : LibInt (2-el integral package), F12 methods 
  Garnet Chan, S. Sharma, J. Yang, R. Olivares  : DMRG                   
  Ulf Ekstrom                                   : XCFun DFT Library      
  Mihaly Kallay                                 : mrcc  (arbitrary order and MRCC methods)
  Frank Weinhold                                : gennbo (NPA and NBO analysis)           
  Simon Mueller                                 : openCOSMO-RS                            
  Christopher J. Cramer and Donald G. Truhlar   : smd solvation model                     
  S Lehtola, MJT Oliveira, MAL Marques          : LibXC Library                           
  Liviu Ungur et al                             : ANISO software                          


 Your calculation uses the libint2 library for the computation of 2-el integrals
 For citations please refer to: http://libint.valeyev.net

 Your ORCA version has been built with support for libXC version: 7.0.0
 For citations please refer to: https://libxc.gitlab.io

 This ORCA versions uses:
   CBLAS   interface :  Fast vector & matrix operations
   LAPACKE interface :  Fast linear algebra routines
   SCALAPACK package :  Parallel linear algebra routines
   Shared memory     :  Shared parallel matrices
   BLAS/LAPACK       :  OpenBLAS 0.3.29  USE64BITINT DYNAMIC_ARCH NO_AFFINITY Haswell SINGLE_THREADED
        Core in use  :  Haswell
   Copyright (c) 2011-2014, The OpenBLAS Project


  ***********************************
  * Starting time: Sun May 31 15:37:35 2026
  * Host name:     steezy
  * Process ID:    534007
  * Working dir.:  /home/jannes/porphin/bench_runs/nproc_022
  ***********************************

NOTE: MaxCore=3000 MB was set to SCF,MP2,MDCI,CIPSI,MRCI,RASCI and CIS
      => If you want to overwrite this, your respective input block should be placed after the MaxCore statement
================================================================================

----- Orbital basis set information -----
Your calculation utilizes the basis: def2-SVP
   F. Weigend and R. Ahlrichs, Phys. Chem. Chem. Phys. 7, 3297 (2005).

----- AuxJ basis set information -----
Your calculation utilizes the auxiliary basis: def2/J
   H-Rn: F. Weigend, Phys. Chem. Chem. Phys. 8, 1057 (2006).
   Fr-Lr: K. Eichkorn, F. Weigend, O. Treutler, R. Ahlrichs; Theor. Chem. Acc. 97, 119 (1997).

================================================================================
                                        WARNINGS
                       Please study these warnings very carefully!
================================================================================


WARNING: Geometry Optimization
  ===> : Switching off AutoStart
         For restart on a previous wavefunction, please use MOREAD

================================================================================
                                       INPUT FILE
================================================================================
NAME = /home/jannes/porphin/bench_runs/nproc_022/porphin.inp
|  1> %pal nprocs 22 end
|  2> %maxcore 3000
|  3> ! B3LYP def2-SVP def2/J RIJCOSX Opt TightOpt
|  4> %geom MaxIter 200 end
|  5> * xyz 0 1
|  6>   N       -2.168097      2.521032      3.543838
|  7>   H        1.685656     -2.223163      3.902709
|  8>   C       -4.349044      3.017980      3.546040
|  9>   C       -0.393357     -1.553812      3.884786
| 10>   N        0.087717      0.693081      3.663814
| 11>   C        0.945964     -1.442242      3.851034
| 12>   H       -0.989903     -2.446147      3.971672
| 13>   C        2.866310      1.822923      3.522080
| 14>   N       -0.255895      4.695657      3.297574
| 15>   C       -1.115517      6.823257      3.052972
| 16>   C        2.517244      0.492524      3.646105
| 17>   C        2.677278      4.045683      3.317988
| 18>   N        2.000829      2.870019      3.434701
| 19>   C        4.066451      3.722268      3.339443
| 20>   C       -0.918314     -0.204788      3.766993
| 21>   C        1.233569     -0.025774      3.711928
| 22>   C       -2.842982      1.345116      3.667806
| 23>   H       -1.163215      2.602668      3.499895
| 24>   H        0.995365      2.784021      3.437787
| 25>   C       -3.034768      3.567380      3.459534
| 26>   C       -4.232293      1.669573      3.671296
| 27>   C       -2.272985      0.092238      3.768816
| 28>   C       -2.686799      4.895014      3.309500
| 29>   C        4.180557      2.372888      3.462102
| 30>   C       -1.401220      5.410899      3.227334
| 31>   C        0.225038      6.935718      3.020625
| 32>   C        2.105652      5.297022      3.193895
| 33>   C        0.750260      5.591421      3.175487
| 34>   H       -5.252906      3.601209      3.510114
| 35>   H       -5.021944      0.943111      3.750310
| 36>   H       -2.959372     -0.737517      3.849457
| 37>   H        3.335278     -0.211026      3.690247
| 38>   H        5.082610      1.787851      3.500203
| 39>   H        4.858520      4.446862      3.262647
| 40>   H        2.791396      6.126169      3.097246
| 41>   H        0.820387      7.826404      2.906510
| 42>   H       -3.505156      5.597445      3.246763
| 43>   H       -1.855896      7.601723      2.971652
| 44> *
| 45> 
| 46>                          ****END OF INPUT****
================================================================================

                       *****************************
                       * Geometry Optimization Run *
                       *****************************

Geometry optimization settings:
Update method            Update   .... BFGS
Choice of coordinates    CoordSys .... (2022) Redundant Internals
Initial Hessian          InHess   .... Almloef's Model
Max. no of cycles        MaxIter  .... 200

Convergence Tolerances:
Energy Change            TolE     ....  1.0000e-06 Eh
Max. Gradient            TolMAXG  ....  1.0000e-04 Eh/bohr
RMS Gradient             TolRMSG  ....  3.0000e-05 Eh/bohr
Max. Displacement        TolMAXD  ....  1.0000e-03 bohr
RMS Displacement         TolRMSD  ....  6.0000e-04 bohr
Strict Convergence                .... False

------------------------------------------------------------------------------
                        ORCA OPTIMIZATION COORDINATE SETUP
------------------------------------------------------------------------------

The optimization will be done in redundant internal coordinates (2022)
Making redundant internal coordinates   ...  (2022 redundants) done
Evaluating the initial hessian          ...  (Almloef) done
Evaluating the coordinates              ...  done
Calculating the B-matrix                .... done
Calculating the G-matrix                .... done
The number of degrees of freedom        ....  218

    -----------------------------------------------------------------
                    Redundant Internal Coordinates


    -----------------------------------------------------------------
         Definition                    Initial Value    Approx d2E/dq
    -----------------------------------------------------------------
      1. B(C   5,C   3)                  1.3444         0.738782   
      2. B(C   5,H   1)                  1.0769         0.377893   
      3. B(H   6,C   3)                  1.0769         0.377876   
      4. B(C  10,C   7)                  1.3810         0.645774   
      5. B(N  12,C   7)                  1.3613         0.621849   
      6. B(N  12,C  11)                  1.3614         0.621607   
      7. B(C  13,C  11)                  1.4265         0.546423   
      8. B(C  14,C   3)                  1.4524         0.496893   
      9. B(C  14,N   4)                  1.3524         0.642550   
     10. B(C  15,C   5)                  1.4520         0.497441   
     11. B(C  15,C  10)                  1.3859         0.634221   
     12. B(C  15,N   4)                  1.3535         0.639824   
     13. B(C  16,N   0)                  1.3615         0.621418   
     14. B(H  17,N   0)                  1.0091         0.434062   
     15. B(H  17,N   4)                  2.2887         0.010000   
     16. B(H  17,N   8)                  2.2901         0.010000   
     17. B(H  18,N  12)                  1.0091         0.434078   
     18. B(H  18,N   8)                  2.2890         0.010000   
     19. B(H  18,N   4)                  2.2906         0.010000   
     20. B(C  19,C   2)                  1.4271         0.545168   
     21. B(C  19,N   0)                  1.3613         0.621877   
     22. B(C  20,C  16)                  1.4267         0.545994   
     23. B(C  20,C   2)                  1.3592         0.699554   
     24. B(C  21,C  16)                  1.3801         0.647828   
     25. B(C  21,C  14)                  1.3869         0.632062   
     26. B(C  22,C  19)                  1.3807         0.646621   
     27. B(C  23,C  13)                  1.3597         0.698260   
     28. B(C  23,C   7)                  1.4259         0.547519   
     29. B(C  24,C  22)                  1.3877         0.630189   
     30. B(C  24,C   9)                  1.4515         0.498491   
     31. B(C  24,N   8)                  1.3521         0.643108   
     32. B(C  25,C   9)                  1.3457         0.735346   
     33. B(C  26,C  11)                  1.3813         0.645075   
     34. B(C  27,C  25)                  1.4515         0.498370   
     35. B(C  27,N   8)                  1.3526         0.641910   
     36. B(C  27,C  26)                  1.3871         0.631446   
     37. B(H  28,C   2)                  1.0763         0.378693   
     38. B(H  29,C  20)                  1.0759         0.379258   
     39. B(H  30,C  21)                  1.0799         0.373750   
     40. B(H  31,C  10)                  1.0799         0.373759   
     41. B(H  32,C  23)                  1.0758         0.379335   
     42. B(H  33,C  13)                  1.0762         0.378761   
     43. B(H  34,C  26)                  1.0803         0.373149   
     44. B(H  35,C  25)                  1.0774         0.377164   
     45. B(H  36,C  22)                  1.0803         0.373160   
     46. B(H  37,C   9)                  1.0774         0.377165   
     47. A(C  16,N   0,C  19)          110.7283         0.428819   
     48. A(C  16,N   0,H  17)          124.5719         0.358999   
     49. A(H  17,N   0,C  19)          124.6869         0.359044   
     50. A(C  20,C   2,H  28)          127.7906         0.363328   
     51. A(C  19,C   2,C  20)          107.9622         0.433449   
     52. A(C  19,C   2,H  28)          124.2466         0.348274   
     53. A(C   5,C   3,H   6)          128.5109         0.366601   
     54. A(H   6,C   3,C  14)          125.1690         0.342766   
     55. A(C   5,C   3,C  14)          106.3181         0.430487   
     56. A(C  14,N   4,C  15)          105.9288         0.433612   
     57. A(H   1,C   5,C  15)          125.1663         0.342832   
     58. A(H   1,C   5,C   3)          128.5294         0.366603   
     59. A(C   3,C   5,C  15)          106.3010         0.430573   
     60. A(N  12,C   7,C  23)          106.6553         0.421955   
     61. A(C  10,C   7,N  12)          125.8786         0.434629   
     62. A(C  10,C   7,C  23)          127.4661         0.427599   
     63. A(C  24,N   8,C  27)          105.9668         0.433934   
     64. A(C  25,C   9,H  37)          128.4908         0.366190   
     65. A(C  24,C   9,C  25)          106.2781         0.430375   
     66. A(C  24,C   9,H  37)          125.2309         0.342842   
     67. A(C  15,C  10,H  31)          117.1327         0.356512   
     68. A(C   7,C  10,C  15)          126.7730         0.439054   
     69. A(C   7,C  10,H  31)          116.0934         0.357607   
     70. A(N  12,C  11,C  13)          106.6666         0.421775   
     71. A(C  13,C  11,C  26)          127.5712         0.427362   
     72. A(N  12,C  11,C  26)          125.7605         0.434514   
     73. A(C  11,N  12,H  18)          124.6753         0.359020   
     74. A(C   7,N  12,H  18)          124.5913         0.359044   
     75. A(C   7,N  12,C  11)          110.7232         0.428839   
     76. A(C  11,C  13,H  33)          124.2628         0.348420   
     77. A(C  23,C  13,H  33)          127.7928         0.363224   
     78. A(C  11,C  13,C  23)          107.9432         0.433484   
     79. A(N   4,C  14,C  21)          125.7708         0.435513   
     80. A(C   3,C  14,C  21)          123.4971         0.418639   
     81. A(C   3,C  14,N   4)          110.7315         0.417147   
     82. A(C   5,C  15,C  10)          123.5603         0.418976   
     83. A(N   4,C  15,C   5)          110.7205         0.416913   
     84. A(N   4,C  15,C  10)          125.7186         0.435447   
     85. A(C  20,C  16,C  21)          127.4770         0.427628   
     86. A(N   0,C  16,C  21)          125.8738         0.434823   
     87. A(N   0,C  16,C  20)          106.6492         0.421693   
     88. A(C   2,C  19,C  22)          127.5087         0.427370   
     89. A(N   0,C  19,C  22)          125.8317         0.434735   
     90. A(N   0,C  19,C   2)          106.6580         0.421635   
     91. A(C  16,C  20,H  29)          124.1485         0.348451   
     92. A(C   2,C  20,H  29)          127.8478         0.363420   
     93. A(C   2,C  20,C  16)          108.0005         0.433567   
     94. A(C  14,C  21,C  16)          126.7083         0.439035   
     95. A(C  16,C  21,H  30)          116.1348         0.357799   
     96. A(C  14,C  21,H  30)          117.1551         0.356304   
     97. A(C  19,C  22,C  24)          126.6850         0.438653   
     98. A(C  24,C  22,H  36)          117.1700         0.356029   
     99. A(C  19,C  22,H  36)          116.1446         0.357589   
    100. A(C  13,C  23,H  32)          127.8221         0.363318   
    101. A(C   7,C  23,H  32)          124.1642         0.348626   
    102. A(C   7,C  23,C  13)          108.0109         0.433641   
    103. A(C   9,C  24,C  22)          123.4505         0.418657   
    104. A(N   8,C  24,C  22)          125.8034         0.435348   
    105. A(N   8,C  24,C   9)          110.7460         0.417450   
    106. A(C   9,C  25,H  35)          128.4714         0.366189   
    107. A(C   9,C  25,C  27)          106.2902         0.430356   
    108. A(C  27,C  25,H  35)          125.2383         0.342828   
    109. A(C  27,C  26,H  34)          117.1400         0.356148   
    110. A(C  11,C  26,H  34)          116.1451         0.357442   
    111. A(C  11,C  26,C  27)          126.7143         0.438621   
    112. A(C  25,C  27,C  26)          123.4723         0.418788   
    113. A(N   8,C  27,C  26)          125.8087         0.435358   
    114. A(N   8,C  27,C  25)          110.7189         0.417293   
    115. D(C  15,C   5,C   3,C  14)     -0.0351         0.038812   
    116. D(H   1,C   5,C   3,C  14)   -179.3943         0.038812   
    117. D(C  15,C   5,C   3,H   6)    179.4627         0.038812   
    118. D(H   1,C   5,C   3,H   6)      0.1035         0.038812   
    119. D(C  15,C  10,C   7,N  12)     -0.3702         0.029010   
    120. D(H  31,C  10,C   7,C  23)     -0.8227         0.029010   
    121. D(C  15,C  10,C   7,C  23)    179.5393         0.029010   
    122. D(H  31,C  10,C   7,N  12)    179.2678         0.029010   
    123. D(H  18,N  12,C   7,C  23)    179.1302         0.031327   
    124. D(H  18,N  12,C  11,C  26)      0.3813         0.031301   
    125. D(H  18,N  12,C   7,C  10)     -0.9447         0.031327   
    126. D(C   7,N  12,C  11,C  13)     -0.2976         0.031301   
    127. D(C   7,N  12,C  11,C  26)    179.2647         0.031301   
    128. D(H  18,N  12,C  11,C  13)   -179.1811         0.031301   
    129. D(C  11,N  12,C   7,C  23)      0.2457         0.031327   
    130. D(C  11,N  12,C   7,C  10)   -179.8293         0.031327   
    131. D(H  33,C  13,C  11,C  26)      0.2990         0.020417   
    132. D(C  23,C  13,C  11,C  26)   -179.3192         0.020417   
    133. D(H  33,C  13,C  11,N  12)    179.8509         0.020417   
    134. D(C  23,C  13,C  11,N  12)      0.2327         0.020417   
    135. D(C  21,C  14,N   4,C  15)    179.6895         0.036578   
    136. D(C   3,C  14,N   4,C  15)     -0.0517         0.036578   
    137. D(C  21,C  14,C   3,H   6)      0.7885         0.016815   
    138. D(C  21,C  14,C   3,C   5)   -179.6921         0.016815   
    139. D(N   4,C  14,C   3,H   6)   -179.4633         0.016815   
    140. D(N   4,C  14,C   3,C   5)      0.0561         0.016815   
    141. D(C  10,C  15,C   5,H   1)     -0.8838         0.016853   
    142. D(N   4,C  15,C   5,C   3)      0.0053         0.016853   
    143. D(N   4,C  15,C   5,H   1)    179.3921         0.016853   
    144. D(C  10,C  15,N   4,C  14)   -179.6876         0.036241   
    145. D(C   5,C  15,N   4,C  14)      0.0293         0.036241   
    146. D(C   5,C  15,C  10,H  31)      0.7586         0.027913   
    147. D(C   5,C  15,C  10,C   7)   -179.6067         0.027913   
    148. D(N   4,C  15,C  10,H  31)   -179.5592         0.027913   
    149. D(N   4,C  15,C  10,C   7)      0.0755         0.027913   
    150. D(C  10,C  15,C   5,C   3)    179.7294         0.016853   
    151. D(C  21,C  16,N   0,C  19)    179.5806         0.031281   
    152. D(C  21,C  16,N   0,H  17)      0.8405         0.031281   
    153. D(C  20,C  16,N   0,C  19)     -0.4076         0.031281   
    154. D(C  20,C  16,N   0,H  17)   -179.1477         0.031281   
    155. D(C  22,C  19,C   2,H  28)     -0.5079         0.020320   
    156. D(N   0,C  19,C   2,H  28)    179.9347         0.020320   
    157. D(N   0,C  19,C   2,C  20)     -0.3201         0.020320   
    158. D(C  22,C  19,N   0,H  17)     -0.3747         0.031330   
    159. D(C   2,C  19,N   0,C  16)      0.4539         0.031330   
    160. D(C  22,C  19,C   2,C  20)    179.2373         0.020320   
    161. D(C   2,C  19,N   0,H  17)    179.1922         0.031330   
    162. D(C  22,C  19,N   0,C  16)   -179.1130         0.031330   
    163. D(H  29,C  20,C  16,C  21)     -0.4037         0.020383   
    164. D(C   2,C  20,C  16,C  21)   -179.7933         0.020383   
    165. D(C   2,C  20,C  16,N   0)      0.1947         0.020383   
    166. D(H  29,C  20,C   2,H  28)      0.4499         0.034463   
    167. D(H  29,C  20,C   2,C  19)   -179.2836         0.034463   
    168. D(H  29,C  20,C  16,N   0)    179.5843         0.020383   
    169. D(C  16,C  20,C   2,H  28)    179.8102         0.034463   
    170. D(C  16,C  20,C   2,C  19)      0.0767         0.034463   
    171. D(C  14,C  21,C  16,C  20)   -179.8282         0.029207   
    172. D(C  14,C  21,C  16,N   0)      0.1860         0.029207   
    173. D(H  30,C  21,C  14,N   4)    179.4344         0.027711   
    174. D(H  30,C  21,C  14,C   3)     -0.8558         0.027711   
    175. D(C  16,C  21,C  14,N   4)     -0.0468         0.027711   
    176. D(H  30,C  21,C  16,N   0)   -179.2998         0.029207   
    177. D(C  16,C  21,C  14,C   3)    179.6629         0.027711   
    178. D(H  30,C  21,C  16,C  20)      0.6860         0.029207   
    179. D(H  36,C  22,C  19,C   2)     -0.2510         0.029091   
    180. D(H  36,C  22,C  19,N   0)    179.2259         0.029091   
    181. D(C  24,C  22,C  19,C   2)    179.9930         0.029091   
    182. D(C  24,C  22,C  19,N   0)     -0.5301         0.029091   
    183. D(H  32,C  23,C  13,H  33)     -0.2792         0.034325   
    184. D(H  32,C  23,C  13,C  11)    179.3215         0.034325   
    185. D(C   7,C  23,C  13,H  33)   -179.6868         0.034325   
    186. D(C   7,C  23,C  13,C  11)     -0.0862         0.034325   
    187. D(H  32,C  23,C   7,N  12)   -179.5264         0.020501   
    188. D(H  32,C  23,C   7,C  10)      0.5501         0.020501   
    189. D(C  13,C  23,C   7,N  12)     -0.0919         0.020501   
    190. D(C  13,C  23,C   7,C  10)    179.9846         0.020501   
    191. D(C   9,C  24,C  22,H  36)     -0.5301         0.027537   
    192. D(C   9,C  24,C  22,C  19)    179.2237         0.027537   
    193. D(N   8,C  24,C  22,H  36)    179.3600         0.027537   
    194. D(N   8,C  24,C  22,C  19)     -0.8862         0.027537   
    195. D(C  22,C  24,C   9,H  37)      0.0478         0.016925   
    196. D(C  22,C  24,C   9,C  25)    179.9053         0.016925   
    197. D(N   8,C  24,C   9,H  37)   -179.8568         0.016925   
    198. D(N   8,C  24,C   9,C  25)      0.0006         0.016925   
    199. D(C  22,C  24,N   8,C  27)   -179.8998         0.036647   
    200. D(C   9,C  24,N   8,C  27)      0.0021         0.036647   
    201. D(H  35,C  25,C   9,H  37)     -0.0368         0.038419   
    202. D(H  35,C  25,C   9,C  24)   -179.8880         0.038419   
    203. D(C  27,C  25,C   9,H  37)    179.8483         0.038419   
    204. D(C  27,C  25,C   9,C  24)     -0.0029         0.038419   
    205. D(H  34,C  26,C  11,C  13)      0.3126         0.028943   
    206. D(H  34,C  26,C  11,N  12)   -179.1584         0.028943   
    207. D(C  27,C  26,C  11,C  13)   -179.9823         0.028943   
    208. D(C  27,C  26,C  11,N  12)      0.5467         0.028943   
    209. D(C  25,C  27,C  26,H  34)      0.6799         0.027654   
    210. D(N   8,C  27,C  26,H  34)   -179.2194         0.027654   
    211. D(N   8,C  27,C  26,C  11)      1.0781         0.027654   
    212. D(C  26,C  27,C  25,H  35)     -0.0184         0.016916   
    213. D(C  26,C  27,C  25,C   9)   -179.9083         0.016916   
    214. D(N   8,C  27,C  25,H  35)    179.8943         0.016916   
    215. D(N   8,C  27,C  25,C   9)      0.0044         0.016916   
    216. D(C  25,C  27,C  26,C  11)   -179.0226         0.027654   
    217. D(C  26,C  27,N   8,C  24)    179.9062         0.036499   
    218. D(C  25,C  27,N   8,C  24)     -0.0040         0.036499   
    -----------------------------------------------------------------

Number of atoms                         .... 38
Number of degrees of freedom            .... 218


         *************************************************************
         *                GEOMETRY OPTIMIZATION CYCLE   1            *
         *************************************************************
---------------------------------
CARTESIAN COORDINATES (ANGSTROEM)
---------------------------------
  N     -2.168097    2.521032    3.543838
  H      1.685656   -2.223163    3.902709
  C     -4.349044    3.017980    3.546040
  C     -0.393357   -1.553812    3.884786
  N      0.087717    0.693081    3.663814
  C      0.945964   -1.442242    3.851034
  H     -0.989903   -2.446147    3.971672
  C      2.866310    1.822923    3.522080
  N     -0.255895    4.695657    3.297574
  C     -1.115517    6.823257    3.052972
  C      2.517244    0.492524    3.646105
  C      2.677278    4.045683    3.317988
  N      2.000829    2.870019    3.434701
  C      4.066451    3.722268    3.339443
  C     -0.918314   -0.204788    3.766993
  C      1.233569   -0.025774    3.711928
  C     -2.842982    1.345116    3.667806
  H     -1.163215    2.602668    3.499895
  H      0.995365    2.784021    3.437787
  C     -3.034768    3.567380    3.459534
  C     -4.232293    1.669573    3.671296
  C     -2.272985    0.092238    3.768816
  C     -2.686799    4.895014    3.309500
  C      4.180557    2.372888    3.462102
  C     -1.401220    5.410899    3.227334
  C      0.225038    6.935718    3.020625
  C      2.105652    5.297022    3.193895
  C      0.750260    5.591421    3.175487
  H     -5.252906    3.601209    3.510114
  H     -5.021944    0.943111    3.750310
  H     -2.959372   -0.737517    3.849457
  H      3.335278   -0.211026    3.690247
  H      5.082610    1.787851    3.500203
  H      4.858520    4.446862    3.262647
  H      2.791396    6.126169    3.097246
  H      0.820387    7.826404    2.906510
  H     -3.505156    5.597445    3.246763
  H     -1.855896    7.601723    2.971652

----------------------------
CARTESIAN COORDINATES (A.U.)
----------------------------
  NO LB      ZA    FRAG     MASS         X           Y           Z
   0 N     7.0000    0    14.007   -4.097110    4.764060    6.696883
   1 H     1.0000    0     1.008    3.185428   -4.201169    7.375051
   2 C     6.0000    0    12.011   -8.218502    5.703156    6.701044
   3 C     6.0000    0    12.011   -0.743337   -2.936279    7.341182
   4 N     7.0000    0    14.007    0.165761    1.309733    6.923605
   5 C     6.0000    0    12.011    1.787613   -2.725442    7.277400
   6 H     1.0000    0     1.008   -1.870646   -4.622548    7.505372
   7 C     6.0000    0    12.011    5.416541    3.444825    6.655767
   8 N     7.0000    0    14.007   -0.483571    8.873506    6.231512
   9 C     6.0000    0    12.011   -2.108022   12.894087    5.769281
  10 C     6.0000    0    12.011    4.756902    0.930735    6.890140
  11 C     6.0000    0    12.011    5.059322    7.645233    6.270089
  12 N     7.0000    0    14.007    3.781019    5.423550    6.490644
  13 C     6.0000    0    12.011    7.684479    7.034067    6.310633
  14 C     6.0000    0    12.011   -1.735362   -0.386993    7.118585
  15 C     6.0000    0    12.011    2.331108   -0.048706    7.014527
  16 C     6.0000    0    12.011   -5.372457    2.541901    6.931149
  17 H     1.0000    0     1.008   -2.198158    4.918330    6.613843
  18 H     1.0000    0     1.008    1.880967    5.261037    6.496476
  19 C     6.0000    0    12.011   -5.734880    6.741371    6.537572
  20 C     6.0000    0    12.011   -7.997875    3.155036    6.937744
  21 C     6.0000    0    12.011   -4.295319    0.174305    7.122030
  22 C     6.0000    0    12.011   -5.077314    9.250236    6.254049
  23 C     6.0000    0    12.011    7.900108    4.484108    6.542425
  24 C     6.0000    0    12.011   -2.647922   10.225117    6.098777
  25 C     6.0000    0    12.011    0.425260   13.106608    5.708154
  26 C     6.0000    0    12.011    3.979106   10.009921    6.035587
  27 C     6.0000    0    12.011    1.417786   10.566254    6.000801
  28 H     1.0000    0     1.008   -9.926554    6.805299    6.633154
  29 H     1.0000    0     1.008   -9.490099    1.782222    7.087059
  30 H     1.0000    0     1.008   -5.592403   -1.393705    7.274419
  31 H     1.0000    0     1.008    6.302762   -0.398781    6.973556
  32 H     1.0000    0     1.008    9.604741    3.378549    6.614425
  33 H     1.0000    0     1.008    9.181272    8.403351    6.165509
  34 H     1.0000    0     1.008    5.274974   11.576782    5.852947
  35 H     1.0000    0     1.008    1.550307   14.789760    5.492508
  36 H     1.0000    0     1.008   -6.623785   10.577638    6.135493
  37 H     1.0000    0     1.008   -3.507135   14.365175    5.615608

--------------------------------
INTERNAL COORDINATES (ANGSTROEM)
--------------------------------
 N      0   0   0     0.000000000000     0.00000000     0.00000000
 H      1   0   0     6.122710737710     0.00000000     0.00000000
 C      1   2   0     2.236848671752   141.79252623     0.00000000
 C      2   1   3     2.184181093522    33.17005234     0.07949786
 N      4   2   1     2.308416983933    95.77984632     0.04650876
 C      2   1   3     1.076871472707     4.39589774   356.51645958
 H      4   2   1     1.076883493855   105.82409208   179.51738903
 C      5   4   2     3.002867051897   124.30373470   359.44675828
 N      1   2   6     2.906227165437    99.82405730   176.50451907
 C      9   1   2     2.307696228122   116.98489595   178.21497234
 C      8   5   4     1.381010779169    53.08801153     0.39196798
 C      8   5   4     2.240100144879   107.43112647   180.17292848
 N      8   5   4     1.361287068997    72.79123898   180.10725127
 C     12   8   5     1.426484911655    72.03022590   179.58986387
 C      5   4   2     1.352373106862    36.04468501   179.80902282
 C      5   4   2     1.353530300335    69.88411306   359.75608275
 C      1   2   6     1.361475768167    68.74138669   356.44988481
 H      1   2   6     1.009149769692    55.83881279   177.45789104
 H     13   8   5     1.009139749834   124.59132658   358.77431117
 C      1   2   6     1.361275109506   179.42169010   332.90826309
 C      3   1   2     1.359235556916    72.29887878     0.05930321
 C     17   1   2     1.380145964379   125.87382457   359.82757631
 C     20   1  18     1.380653708963   125.83167628   359.62531769
 C     14  12   8     1.359739605188   107.94317510     0.05485995
 C      9   1   2     1.352136876129    80.96036832   178.77502050
 C     10   9   1     1.345652820365    73.05271037   180.94098409
 C     12   8   5     1.381305414977   160.39090838   358.11142705
 C      9   1   2     1.352644174678   173.02378437     5.48997127
 H      3   1   2     1.076296083316   159.91041206   180.22184185
 H     21   3   1     1.075889841685   127.84777178   180.52054045
 H     22  17   1     1.079871957537   116.13475991   180.70016980
 H     11   8   5     1.079866076798   116.09336221   179.60341658
 H     24  14  12     1.075834370328   127.82213152   179.32147237
 H     14  12   8     1.076246900675   124.26275105   179.67301372
 H     27  12   8     1.080310423140   116.14507819   182.08703469
 H     26  10   9     1.077396962880   128.47140728   180.11236129
 H     23  20   1     1.080302467080   116.14455725   179.22591800
 H     10   9   1     1.077396546865   158.45606025     1.25885267

---------------------------
INTERNAL COORDINATES (A.U.)
---------------------------
 N      0   0   0     0.000000000000     0.00000000     0.00000000
 H      1   0   0    11.570246491492     0.00000000     0.00000000
 C      1   2   0     4.227031392636   141.79252623     0.00000000
 C      2   1   3     4.127504093645    33.17005234     0.07949786
 N      4   2   1     4.362275902525    95.77984632     0.04650876
 C      2   1   3     2.034992164849     4.39589774   356.51645958
 H      4   2   1     2.035014881526   105.82409208   179.51738903
 C      5   4   2     5.674596344661   124.30373470   359.44675828
 N      1   2   6     5.491973425639    99.82405730   176.50451907
 C      9   1   2     4.360913871433   116.98489595   178.21497234
 C      8   5   4     2.609732160623    53.08801153     0.39196798
 C      8   5   4     4.233175786379   107.43112647   180.17292848
 N      8   5   4     2.572459750052    72.79123898   180.10725127
 C     12   8   5     2.695665817199    72.03022590   179.58986387
 C      5   4   2     2.555614802849    36.04468501   179.80902282
 C      5   4   2     2.557801581597    69.88411306   359.75608275
 C      1   2   6     2.572816339805    68.74138669   356.44988481
 H      1   2   6     1.907016692827    55.83881279   177.45789104
 H     13   8   5     1.906997758041   124.59132658   358.77431117
 C      1   2   6     2.572437149890   179.42169010   332.90826309
 C      3   1   2     2.568582954060    72.29887878     0.05930321
 C     17   1   2     2.608097897514   125.87382457   359.82757631
 C     20   1  18     2.609057395722   125.83167628   359.62531769
 C     14  12   8     2.569535467252   107.94317510     0.05485995
 C      9   1   2     2.555168391460    80.96036832   178.77502050
 C     10   9   1     2.542915301828    73.05271037   180.94098409
 C     12   8   5     2.610288941610   160.39090838   358.11142705
 C      9   1   2     2.556127046785   173.02378437     5.48997127
 H      3   1   2     2.033904836479   159.91041206   180.22184185
 H     21   3   1     2.033137151053   127.84777178   180.52054045
 H     22  17   1     2.040662259447   116.13475991   180.70016980
 H     11   8   5     2.040651146461   116.09336221   179.60341658
 H     24  14  12     2.033032325379   127.82213152   179.32147237
 H     14  12   8     2.033811894758   124.26275105   179.67301372
 H     27  12   8     2.041490839356   116.14507819   182.08703469
 H     26  10   9     2.035985197361   128.47140728   180.11236129
 H     23  20   1     2.041475804581   116.14455725   179.22591800
 H     10   9   1     2.035984411208   158.45606025     1.25885267

---------------------
BASIS SET INFORMATION
---------------------
There are 3 groups of distinct atoms

 Group   1 Type N   : 7s4p1d contracted to 3s2p1d pattern {511/31/1}
 Group   2 Type H   : 4s1p contracted to 2s1p pattern {31/1}
 Group   3 Type C   : 7s4p1d contracted to 3s2p1d pattern {511/31/1}

Atom   0N    basis set group =>   1
Atom   1H    basis set group =>   2
Atom   2C    basis set group =>   3
Atom   3C    basis set group =>   3
Atom   4N    basis set group =>   1
Atom   5C    basis set group =>   3
Atom   6H    basis set group =>   2
Atom   7C    basis set group =>   3
Atom   8N    basis set group =>   1
Atom   9C    basis set group =>   3
Atom  10C    basis set group =>   3
Atom  11C    basis set group =>   3
Atom  12N    basis set group =>   1
Atom  13C    basis set group =>   3
Atom  14C    basis set group =>   3
Atom  15C    basis set group =>   3
Atom  16C    basis set group =>   3
Atom  17H    basis set group =>   2
Atom  18H    basis set group =>   2
Atom  19C    basis set group =>   3
Atom  20C    basis set group =>   3
Atom  21C    basis set group =>   3
Atom  22C    basis set group =>   3
Atom  23C    basis set group =>   3
Atom  24C    basis set group =>   3
Atom  25C    basis set group =>   3
Atom  26C    basis set group =>   3
Atom  27C    basis set group =>   3
Atom  28H    basis set group =>   2
Atom  29H    basis set group =>   2
Atom  30H    basis set group =>   2
Atom  31H    basis set group =>   2
Atom  32H    basis set group =>   2
Atom  33H    basis set group =>   2
Atom  34H    basis set group =>   2
Atom  35H    basis set group =>   2
Atom  36H    basis set group =>   2
Atom  37H    basis set group =>   2
---------------------------------
AUXILIARY/J BASIS SET INFORMATION
---------------------------------
There are 3 groups of distinct atoms

 Group   1 Type N   : 12s5p4d2f1g contracted to 6s4p3d1f1g pattern {711111/2111/211/2/1}
 Group   2 Type H   : 5s2p1d contracted to 3s1p1d pattern {311/2/1}
 Group   3 Type C   : 12s5p4d2f1g contracted to 6s4p3d1f1g pattern {711111/2111/211/2/1}

Atom   0N    basis set group =>   1
Atom   1H    basis set group =>   2
Atom   2C    basis set group =>   3
Atom   3C    basis set group =>   3
Atom   4N    basis set group =>   1
Atom   5C    basis set group =>   3
Atom   6H    basis set group =>   2
Atom   7C    basis set group =>   3
Atom   8N    basis set group =>   1
Atom   9C    basis set group =>   3
Atom  10C    basis set group =>   3
Atom  11C    basis set group =>   3
Atom  12N    basis set group =>   1
Atom  13C    basis set group =>   3
Atom  14C    basis set group =>   3
Atom  15C    basis set group =>   3
Atom  16C    basis set group =>   3
Atom  17H    basis set group =>   2
Atom  18H    basis set group =>   2
Atom  19C    basis set group =>   3
Atom  20C    basis set group =>   3
Atom  21C    basis set group =>   3
Atom  22C    basis set group =>   3
Atom  23C    basis set group =>   3
Atom  24C    basis set group =>   3
Atom  25C    basis set group =>   3
Atom  26C    basis set group =>   3
Atom  27C    basis set group =>   3
Atom  28H    basis set group =>   2
Atom  29H    basis set group =>   2
Atom  30H    basis set group =>   2
Atom  31H    basis set group =>   2
Atom  32H    basis set group =>   2
Atom  33H    basis set group =>   2
Atom  34H    basis set group =>   2
Atom  35H    basis set group =>   2
Atom  36H    basis set group =>   2
Atom  37H    basis set group =>   2


           ************************************************************
           *        Program running with 22 parallel MPI-processes    *
           *              working on a common directory               *
           ************************************************************
------------------------------------------------------------------------------
                             ORCA STARTUP CALCULATIONS
                           -- RI-GTO INTEGRALS CHOSEN --
------------------------------------------------------------------------------
------------------------------------------------------------------------------
                   ___                                                        
                  /   \      - P O W E R E D   B Y -                         
                 /     \                                                     
                 |  |  |   _    _      __       _____    __    __             
                 |  |  |  | |  | |    /  \     |  _  \  |  |  /  |          
                  \  \/   | |  | |   /    \    | | | |  |  | /  /          
                 / \  \   | |__| |  /  /\  \   | |_| |  |  |/  /          
                |  |  |   |  __  | /  /__\  \  |    /   |      \           
                |  |  |   | |  | | |   __   |  |    \   |  |\   \          
                \     /   | |  | | |  |  |  |  | |\  \  |  | \   \       
                 \___/    |_|  |_| |__|  |__|  |_| \__\ |__|  \__/        
                                                                              
                      - O R C A' S   B I G   F R I E N D -                    
                                      &                                       
                       - I N T E G R A L  F E E D E R -                       
                                                                              
 v1 FN, 2020, v2 2021, v3 2022-2024                                           
------------------------------------------------------------------------------


----------------------
SHARK INTEGRAL PACKAGE
----------------------

Number of atoms                             ...     38
Number of basis functions                   ...    406
Number of shells                            ...    186
Maximum angular momentum                    ...      2
Integral batch strategy                     ... SHARK/LIBINT Hybrid
RI-J (if used) integral strategy            ... SPLIT-RIJ (Revised 2003 algorithm where possible)
Printlevel                                  ...      1
Contraction scheme used                     ... SEGMENTED contraction
Prescreening option                         ... SCHWARTZ
   Thresh                                   ... 2.500e-11
   Tcut                                     ... 2.500e-12
   Tpresel                                  ... 2.500e-12 
Coulomb Range Separation                    ... NOT USED
Exchange Range Separation                   ... NOT USED
Multipole approximations                    ... NOT USED
Finite Nucleus Model                        ... NOT USED
CABS basis                                  ... NOT available
Auxiliary Coulomb fitting basis             ... AVAILABLE
   # of basis functions in Aux-J            ...   1330
   # of shells in Aux-J                     ...    430
   Maximum angular momentum in Aux-J        ...      4
Auxiliary J/K fitting basis                 ... NOT available
Auxiliary Correlation fitting basis         ... NOT available
Auxiliary 'external' fitting basis          ... NOT available

Checking pre-screening integrals            ... done (  0.0 sec) Dimension = 186
   => SHARK Basis and OBASIS are compatible. Storing Pre-screening
Shell pair information
Shell pair cut-off parameter TPreSel        ...   2.5e-12
Total number of shell pairs                 ...     17391
Shell pairs after pre-screening             ...     12951
Total number of primitive shell pairs       ...     64615
Primitive shell pairs kept                  ...     30431
          la=0 lb=0:   3830 shell pairs
          la=1 lb=0:   4790 shell pairs
          la=1 lb=1:   1531 shell pairs
          la=2 lb=0:   1602 shell pairs
          la=2 lb=1:   1032 shell pairs
          la=2 lb=2:    166 shell pairs

Checking whether 4 symmetric matrices of dimension 406 fit in memory
:Max Core in MB      =   3000.00
 MB in use           =     19.52
 MB left             =   2980.48
 MB needed           =      2.52
 Data fit in memory  = YES
Calculating RI/J V-Matrix + Cholesky decomp.... done (  0.1 sec)
Calculating Nuclear repulsion               ... done (  0.0 sec) ENN=   1868.106554108537 Eh

Diagonalization of the overlap matrix:
Smallest eigenvalue                        ... 3.885e-04
Time for diagonalization                   ...    0.032 sec
Threshold for overlap eigenvalues          ... 1.000e-07
Number of eigenvalues below threshold      ... 0
Time for construction of square roots      ...    0.013 sec
Total time needed                          ...    0.047 sec

-------------------
DFT GRID GENERATION
-------------------

General Integration Accuracy     IntAcc      ... 4.388
Radial Grid Type                 RadialGrid  ... OptM3 with GC (2021)
Angular Grid (max. ang.)         AngularGrid ... 4 (Lebedev-302)
Angular grid pruning method      GridPruning ... 4 (adaptive)
Weight generation scheme         WeightScheme... mBecke (2022)
Basis function cutoff            BFCut       ... 1.0000e-11
Integration weight cutoff        WCut        ... 1.0000e-14
Partially contracted basis set               ... off
Rotationally invariant grid construction     ... off
Angular grids for H and He will be reduced by one unit

Total number of grid points                  ...   187683
Total number of batches                      ...     2952
Average number of points per batch           ...       63
Average number of grid points per atom       ...     4939

--------------------
COSX GRID GENERATION
--------------------

GRIDX 1
-------
General Integration Accuracy     IntAcc      ... 3.816
Radial Grid Type                 RadialGrid  ... OptM3 with GC (2021)
Angular Grid (max. ang.)         AngularGrid ... 1 (Lebedev-50)
Angular grid pruning method      GridPruning ... 4 (adaptive)
Weight generation scheme         WeightScheme... mBecke (2022)
Basis function cutoff            BFCut       ... 1.0000e-11
Integration weight cutoff        WCut        ... 1.0000e-14
Partially contracted basis set               ... on
Rotationally invariant grid construction     ... off
Angular grids for H and He will be reduced by one unit

Total number of grid points                  ...    23848
Total number of batches                      ...      203
Average number of points per batch           ...      117
Average number of grid points per atom       ...      628
UseSFitting                                  ... on

GRIDX 2
-------
General Integration Accuracy     IntAcc      ... 4.020
Radial Grid Type                 RadialGrid  ... OptM3 with GC (2021)
Angular Grid (max. ang.)         AngularGrid ... 2 (Lebedev-110)
Angular grid pruning method      GridPruning ... 4 (adaptive)
Weight generation scheme         WeightScheme... mBecke (2022)
Basis function cutoff            BFCut       ... 1.0000e-11
Integration weight cutoff        WCut        ... 1.0000e-14
Partially contracted basis set               ... on
Rotationally invariant grid construction     ... off
Angular grids for H and He will be reduced by one unit

Total number of grid points                  ...    52397
Total number of batches                      ...      430
Average number of points per batch           ...      121
Average number of grid points per atom       ...     1379
UseSFitting                                  ... on

GRIDX 3
-------
General Integration Accuracy     IntAcc      ... 4.338
Radial Grid Type                 RadialGrid  ... OptM3 with GC (2021)
Angular Grid (max. ang.)         AngularGrid ... 3 (Lebedev-194)
Angular grid pruning method      GridPruning ... 4 (adaptive)
Weight generation scheme         WeightScheme... mBecke (2022)
Basis function cutoff            BFCut       ... 1.0000e-11
Integration weight cutoff        WCut        ... 1.0000e-14
Partially contracted basis set               ... on
Rotationally invariant grid construction     ... off
Angular grids for H and He will be reduced by one unit

Total number of grid points                  ...   114956
Total number of batches                      ...      923
Average number of points per batch           ...      124
Average number of grid points per atom       ...     3025
UseSFitting                                  ... on
Grids setup in   2.5 sec
Initializing property integral containers    ... done (  0.0 sec)

SHARK setup successfully completed in   2.8 seconds

Maximum memory used throughout the entire STARTUP-calculation: 50.0 MB


           ************************************************************
           *        Program running with 22 parallel MPI-processes    *
           *              working on a common directory               *
           ************************************************************
-------------------------------------------------------------------------------
                                 ORCA GUESS
                   Start orbitals & Density for SCF / CASSCF
-------------------------------------------------------------------------------

------------
SCF SETTINGS
------------
Hamiltonian:
 Density Functional     Method          .... DFT(GTOs)
 Exchange Functional    Exchange        .... B88
   X-Alpha parameter    XAlpha          ....  0.666667
   Becke's b parameter  XBeta           ....  0.004200
 Correlation Functional Correlation     .... LYP
 LDA part of GGA corr.  LDAOpt          .... VWN-5
 Gradients option       PostSCFGGA      .... off
 Hybrid DFT is turned on
   Fraction HF Exchange ScalHFX         ....  0.200000
   Scaling of DF-GGA-X  ScalDFX         ....  0.720000
   Scaling of DF-GGA-C  ScalDFC         ....  0.810000
   Scaling of DF-LDA-C  ScalLDAC        ....  1.000000
   Perturbative correction              ....  0.000000
   NL short-range parameter             ....  4.800000
 RI-approximation to the Coulomb term is turned on
   Number of AuxJ basis functions       .... 1330
   RIJ-COSX (HFX calculated with COS-X)).... on


General Settings:
 Integral files         IntName         .... /home/jannes/porphin/bench_runs/nproc_022/porphin
 Hartree-Fock type      HFTyp           .... RHF
 Total Charge           Charge          ....    0
 Multiplicity           Mult            ....    1
 Number of Electrons    NEL             ....  162
 Basis Dimension        Dim             ....  406
 Nuclear Repulsion      ENuc            ....   1868.1065541085 Eh

Convergence Acceleration:
 AO-DIIS                CNVDIIS         .... on
   Start iteration      DIISMaxIt       ....    12
   Startup error        DIISStart       ....  0.200000
   # of expansion vecs  DIISMaxEq       ....     5
   Bias factor          DIISBfac        ....   1.050
   Max. coefficient     DIISMaxC        ....  10.000
 MO-DIIS                CNVKDIIS        .... off
 Trust-Rad. Augm. Hess. CNVTRAH         .... auto
   Auto Start mean grad. ratio tolernc. ....  1.125000
   Auto Start start iteration           ....    50
   Auto Start num. interpolation iter.  ....    10
   Max. Number of Micro iterations      ....    24
   Max. Number of Macro iterations      .... Maxiter - #DIIS iter
   Number of Davidson start vectors     ....     2
   Converg. threshold    (grad. norm)   ....   1.000e-05
   Grad. Scal. Fac. for Micro threshold ....   0.100
   Minimum threshold for Micro iter.    ....   1.000e-02
   NR start threshold (gradient norm)   ....   1.000e-04
   Initial trust radius                 ....   0.400
   Minimum AH scaling param. (alpha)    ....   1.000
   Maximum AH scaling param. (alpha)    .... 1000.000
   Quad. conv. algorithm                .... NR
   White noise on init. David. guess    .... on
   Maximum white noise                  ....   0.010
   Pseudo random numbers                .... off
   Inactive MOs                         .... canonical
   Orbital update algorithm             .... Taylor
   Preconditioner                       .... Diag
   Full preconditioner red. dimension   ....   250
 SOSCF                 CNVSOSCF           .... on
   Start iteration     SOSCFMaxIt         ....   150
   Startup grad/error  SOSCFStart         ....  0.003300
   Hessian update      SOSCFHessUp        .... L-BFGS
   Autom. constraints  SOSCFAutoConstrain .... off
 Level Shifting         CNVShift        .... on
   Level shift para.    LevelShift      ....    0.2500
   Turn off err/grad.   ShiftErr        ....    0.0010
 Zerner damping         CNVZerner       .... off
 Static damping         CNVDamp         .... on
   Fraction old density DampFac         ....    0.7000
   Max. Damping (<1)    DampMax         ....    0.9800
   Min. Damping (>=0)   DampMin         ....    0.0000
   Turn off err/grad.   DampErr         ....    0.1000

SCF Procedure:
 Maximum # iterations   MaxIter         ....   125
 SCF integral mode      SCFMode         .... Direct
   Integral package                     .... SHARK and LIBINT hybrid scheme
 Reset frequency        DirectResetFreq ....    20
 Integral Threshold     Thresh          ....  2.500e-11 Eh
 Primitive CutOff       TCut            ....  2.500e-12 Eh

Convergence Tolerance:
 Convergence Check Mode ConvCheckMode   .... Total+1el-Energy
 Convergence forced     ConvForced      .... 0
 Energy Change          TolE            ....  1.000e-08 Eh
 1-El. energy change                    ....  1.000e-05 Eh
 Orbital Gradient       TolG            ....  1.000e-05
 Orbital Rotation angle TolX            ....  1.000e-05
 DIIS Error             TolErr          ....  5.000e-07

------------------------------
INITIAL GUESS: MODEL POTENTIAL
------------------------------
Loading Hartree-Fock densities                     ... done
Calculating cut-offs                               ... done
Initializing the effective Hamiltonian             ... done
Setting up the integral package (SHARK)            ... done
Starting the Coulomb interaction                   ... done (   0.1 sec)
Making the grid                                    ... done (   0.3 sec)
Mapping shells                                     ... done
Starting the XC term evaluation                    ... done (   0.1 sec)
  promolecular density results
     # of electrons  =    161.997286757
     EX              =   -133.491827089
     EC              =     -5.542562787
     EX+EC           =   -139.034389876
Transforming the Hamiltonian                       ... done (   0.0 sec)
Diagonalizing the Hamiltonian                      ... done (   0.0 sec)
Back transforming the eigenvectors                 ... done (   0.0 sec)
Now organizing SCF variables                       ... done
                      ------------------
                      INITIAL GUESS DONE (   0.6 sec)
                      ------------------
             **** ENERGY FILE WAS UPDATED (/home/jannes/porphin/bench_runs/nproc_022/porphin.en.tmp) ****
Finished Guess after   0.8 sec
Maximum memory used throughout the entire GUESS-calculation: 24.0 MB


           ************************************************************
           *        Program running with 22 parallel MPI-processes    *
           *              working on a common directory               *
           ************************************************************

-------------------------------------------------------------------------------------------
                                      ORCA LEAN-SCF
                              memory conserving SCF solver
-------------------------------------------------------------------------------------------

----------------------------------------D-I-I-S--------------------------------------------
Iteration    Energy (Eh)           Delta-E    RMSDP     MaxDP     DIISErr   Damp  Time(sec)
-------------------------------------------------------------------------------------------
               ***  Starting incremental Fock matrix formation  ***
    1    -987.7788942085796862     0.00e+00  1.13e-02  8.60e-02  2.00e-01  0.700   2.4
    2    -987.9850122206855758    -2.06e-01  7.87e-03  5.02e-02  9.25e-02  0.700   1.4
                               ***Turning on AO-DIIS***
    3    -988.0759872545052076    -9.10e-02  3.73e-03  1.79e-02  3.33e-02  0.700   1.3
    4    -988.1294342092135139    -5.34e-02  7.23e-03  4.09e-02  1.96e-02  0.000   1.3
    5    -988.2430022555593041    -1.14e-01  8.73e-04  3.88e-03  4.64e-03  0.000   1.3
                              *** Initializing SOSCF ***
---------------------------------------S-O-S-C-F--------------------------------------
Iteration    Energy (Eh)           Delta-E    RMSDP     MaxDP     MaxGrad    Time(sec)
--------------------------------------------------------------------------------------
    6    -988.2436586743199314    -6.56e-04  3.34e-04  1.95e-03  2.42e-03     1.3
               *** Restarting incremental Fock matrix formation ***
    7    -988.2438854264521524    -2.27e-04  1.80e-04  8.17e-04  2.34e-04     2.3
    8    -988.2438862196420359    -7.93e-07  7.20e-05  4.75e-04  2.56e-04     1.6
    9    -988.2438891595018049    -2.94e-06  5.62e-05  3.05e-04  1.24e-04     1.5
   10    -988.2438891930457885    -3.35e-08  2.34e-05  1.44e-04  7.38e-05     1.5
   11    -988.2438897272074882    -5.34e-07  8.14e-06  8.10e-05  1.33e-05     1.3
   12    -988.2438897159192948     1.13e-08  4.79e-06  4.81e-05  2.05e-05     1.2
   13    -988.2438897093086325     6.61e-09  2.22e-06  1.50e-05  3.71e-06     1.1
                 **** Energy Check signals convergence ****

               *****************************************************
               *                     SUCCESS                       *
               *           SCF CONVERGED AFTER  13 CYCLES          *
               *****************************************************

Recomputing exchange energy using gridx3       ... done (    3.581 sec)
Old exchange energy                            :    -27.018226677 Eh
New exchange energy                            :    -27.018314354 Eh
Exchange energy change after final integration :     -0.000087677 Eh
Total energy after final integration           :   -988.243977404 Eh
             **** ENERGY FILE WAS UPDATED (/home/jannes/porphin/bench_runs/nproc_022/porphin.en.tmp) ****

----------------
TOTAL SCF ENERGY
----------------

Total Energy       :       -988.24397740394215 Eh          -26891.48576 eV

Components:
Nuclear Repulsion  :       1868.10655410853747 Eh           50833.76368 eV
Electronic Energy  :      -2856.35044383557306 Eh          -77725.24705 eV
One Electron Energy:      -5049.62444976059669 Eh         -137407.26693 eV
Two Electron Energy:       2193.27400592502363 Eh           59682.01988 eV

Virial components:
Potential Energy   :      -1967.48591859118233 Eh          -53538.01366 eV
Kinetic Energy     :        979.24194118724006 Eh           26646.52790 eV
Virial Ratio       :          2.00919286219071

DFT components:
N(Alpha)           :       80.999847514777 electrons
N(Beta)            :       80.999847514777 electrons
N(Total)           :      161.999695029554 electrons
E(X)               :     -107.389119947153 Eh       
E(C)               :       -6.520760458632 Eh       
E(XC)              :     -113.909880405785 Eh       

---------------
SCF CONVERGENCE
---------------

  Last Energy change         ...   -6.6107e-09  Tolerance :   1.0000e-08
  Last MAX-Density change    ...    1.5000e-05  Tolerance :   1.0000e-07
  Last RMS-Density change    ...    2.2202e-06  Tolerance :   5.0000e-09
  Last DIIS Error            ...    2.4162e-03  Tolerance :   5.0000e-07
  Last Orbital Gradient      ...    3.7141e-06  Tolerance :   1.0000e-05
  Last Orbital Rotation      ...    2.7489e-05  Tolerance :   1.0000e-05


----------------
ORBITAL ENERGIES
----------------

  NO   OCC          E(Eh)            E(eV) 
   0   2.0000     -14.360888      -390.7796 
   1   2.0000     -14.360849      -390.7786 
   2   2.0000     -14.292131      -388.9086 
   3   2.0000     -14.291952      -388.9038 
   4   2.0000     -10.228338      -278.3272 
   5   2.0000     -10.228277      -278.3256 
   6   2.0000     -10.228230      -278.3243 
   7   2.0000     -10.228170      -278.3226 
   8   2.0000     -10.207685      -277.7652 
   9   2.0000     -10.207629      -277.7637 
  10   2.0000     -10.207623      -277.7636 
  11   2.0000     -10.207566      -277.7620 
  12   2.0000     -10.193232      -277.3719 
  13   2.0000     -10.193118      -277.3688 
  14   2.0000     -10.193082      -277.3679 
  15   2.0000     -10.193025      -277.3663 
  16   2.0000     -10.192952      -277.3643 
  17   2.0000     -10.192908      -277.3631 
  18   2.0000     -10.192464      -277.3510 
  19   2.0000     -10.192345      -277.3478 
  20   2.0000     -10.177191      -276.9355 
  21   2.0000     -10.177119      -276.9335 
  22   2.0000     -10.176554      -276.9181 
  23   2.0000     -10.176490      -276.9164 
  24   2.0000      -0.986157       -26.8347 
  25   2.0000      -0.984701       -26.7951 
  26   2.0000      -0.938041       -25.5254 
  27   2.0000      -0.935591       -25.4587 
  28   2.0000      -0.814353       -22.1597 
  29   2.0000      -0.793596       -21.5948 
  30   2.0000      -0.788086       -21.4449 
  31   2.0000      -0.786976       -21.4147 
  32   2.0000      -0.781131       -21.2556 
  33   2.0000      -0.749204       -20.3869 
  34   2.0000      -0.748845       -20.3771 
  35   2.0000      -0.738782       -20.1033 
  36   2.0000      -0.714004       -19.4290 
  37   2.0000      -0.657692       -17.8967 
  38   2.0000      -0.649918       -17.6852 
  39   2.0000      -0.600218       -16.3328 
  40   2.0000      -0.596203       -16.2235 
  41   2.0000      -0.592714       -16.1286 
  42   2.0000      -0.585771       -15.9396 
  43   2.0000      -0.576911       -15.6985 
  44   2.0000      -0.572813       -15.5870 
  45   2.0000      -0.555155       -15.1065 
  46   2.0000      -0.545621       -14.8471 
  47   2.0000      -0.515379       -14.0242 
  48   2.0000      -0.506334       -13.7780 
  49   2.0000      -0.500295       -13.6137 
  50   2.0000      -0.494455       -13.4548 
  51   2.0000      -0.461662       -12.5625 
  52   2.0000      -0.447727       -12.1833 
  53   2.0000      -0.445931       -12.1344 
  54   2.0000      -0.442261       -12.0345 
  55   2.0000      -0.439767       -11.9667 
  56   2.0000      -0.434867       -11.8333 
  57   2.0000      -0.429859       -11.6971 
  58   2.0000      -0.428337       -11.6556 
  59   2.0000      -0.418489       -11.3877 
  60   2.0000      -0.414056       -11.2670 
  61   2.0000      -0.405047       -11.0219 
  62   2.0000      -0.397598       -10.8192 
  63   2.0000      -0.392212       -10.6726 
  64   2.0000      -0.384544       -10.4640 
  65   2.0000      -0.380832       -10.3630 
  66   2.0000      -0.380622       -10.3573 
  67   2.0000      -0.375693       -10.2231 
  68   2.0000      -0.366574        -9.9750 
  69   2.0000      -0.366458        -9.9718 
  70   2.0000      -0.330083        -8.9820 
  71   2.0000      -0.290591        -7.9074 
  72   2.0000      -0.282088        -7.6760 
  73   2.0000      -0.271784        -7.3956 
  74   2.0000      -0.269798        -7.3416 
  75   2.0000      -0.265941        -7.2366 
  76   2.0000      -0.265221        -7.2170 
  77   2.0000      -0.244331        -6.6486 
  78   2.0000      -0.239329        -6.5125 
  79   2.0000      -0.200224        -5.4484 
  80   2.0000      -0.194947        -5.3048 
  81   0.0000      -0.085800        -2.3347 
  82   0.0000      -0.085668        -2.3311 
  83   0.0000      -0.025216        -0.6862 
  84   0.0000       0.045625         1.2415 
  85   0.0000       0.061671         1.6782 
  86   0.0000       0.063437         1.7262 
  87   0.0000       0.065940         1.7943 
  88   0.0000       0.074997         2.0408 
  89   0.0000       0.076130         2.0716 
  90   0.0000       0.079604         2.1661 
  91   0.0000       0.093230         2.5369 
*Only the first 10 virtual orbitals were printed.

                    ********************************
                    * MULLIKEN POPULATION ANALYSIS *
                    ********************************

-----------------------
MULLIKEN ATOMIC CHARGES
-----------------------
   0 N :   -0.020250
   1 H :   -0.037891
   2 C :    0.006259
   3 C :    0.005682
   4 N :   -0.218572
   5 C :    0.005410
   6 H :   -0.038187
   7 C :    0.100174
   8 N :   -0.217668
   9 C :    0.004218
  10 C :   -0.032242
  11 C :    0.100066
  12 N :   -0.020006
  13 C :    0.005699
  14 C :    0.070481
  15 C :    0.070954
  16 C :    0.100468
  17 H :    0.137507
  18 H :    0.137486
  19 C :    0.100386
  20 C :    0.005877
  21 C :   -0.032585
  22 C :   -0.032651
  23 C :    0.005882
  24 C :    0.070510
  25 C :    0.004834
  26 C :   -0.032091
  27 C :    0.070600
  28 H :   -0.026791
  29 H :   -0.026897
  30 H :   -0.034480
  31 H :   -0.034515
  32 H :   -0.027248
  33 H :   -0.026669
  34 H :   -0.034094
  35 H :   -0.037867
  36 H :   -0.034129
  37 H :   -0.037663
Sum of atomic charges:    0.0000000

--------------------------------
MULLIKEN REDUCED ORBITAL CHARGES
--------------------------------
  0 N s       :     3.346316  s :     3.346316
      pz      :     1.517356  p :     3.649199
      px      :     1.042918
      py      :     1.088926
      dz2     :     0.002186  d :     0.024734
      dxz     :     0.002093
      dyz     :     0.005157
      dx2y2   :     0.007220
      dxy     :     0.008079

  1 H s       :     1.014089  s :     1.014089
      pz      :     0.005106  p :     0.023801
      px      :     0.008840
      py      :     0.009856

  2 C s       :     3.220290  s :     3.220290
      pz      :     1.018243  p :     2.738160
      px      :     0.833553
      py      :     0.886364
      dz2     :     0.002874  d :     0.035291
      dxz     :     0.003523
      dyz     :     0.006342
      dx2y2   :     0.010360
      dxy     :     0.012192

  3 C s       :     3.227523  s :     3.227523
      pz      :     1.012046  p :     2.731545
      px      :     0.892944
      py      :     0.826555
      dz2     :     0.002724  d :     0.035250
      dxz     :     0.006402
      dyz     :     0.003126
      dx2y2   :     0.010686
      dxy     :     0.012311

  4 N s       :     3.505407  s :     3.505407
      pz      :     1.264877  p :     3.685511
      px      :     1.003838
      py      :     1.416796
      dz2     :     0.003014  d :     0.027653
      dxz     :     0.004116
      dyz     :     0.004414
      dx2y2   :     0.004371
      dxy     :     0.011737

  5 C s       :     3.227314  s :     3.227314
      pz      :     1.012840  p :     2.732012
      px      :     0.860735
      py      :     0.858437
      dz2     :     0.002758  d :     0.035265
      dxz     :     0.006102
      dyz     :     0.003395
      dx2y2   :     0.011640
      dxy     :     0.011370

  6 H s       :     1.014383  s :     1.014383
      pz      :     0.005155  p :     0.023803
      px      :     0.006959
      py      :     0.011690

  7 C s       :     3.075651  s :     3.075651
      pz      :     0.982212  p :     2.761358
      px      :     0.932486
      py      :     0.846659
      dz2     :     0.004679  d :     0.062817
      dxz     :     0.009205
      dyz     :     0.012076
      dx2y2   :     0.015618
      dxy     :     0.021239

  8 N s       :     3.504373  s :     3.504373
      pz      :     1.266036  p :     3.685606
      px      :     1.003413
      py      :     1.416157
      dz2     :     0.003033  d :     0.027689
      dxz     :     0.004176
      dyz     :     0.004405
      dx2y2   :     0.004375
      dxy     :     0.011701

  9 C s       :     3.228010  s :     3.228010
      pz      :     1.012282  p :     2.732557
      px      :     0.860716
      py      :     0.859560
      dz2     :     0.002768  d :     0.035215
      dxz     :     0.006110
      dyz     :     0.003434
      dx2y2   :     0.011594
      dxy     :     0.011308

 10 C s       :     3.239866  s :     3.239866
      pz      :     1.026043  p :     2.758863
      px      :     0.868360
      py      :     0.864460
      dz2     :     0.002692  d :     0.033513
      dxz     :     0.004358
      dyz     :     0.005105
      dx2y2   :     0.009821
      dxy     :     0.011538

 11 C s       :     3.076290  s :     3.076290
      pz      :     0.982146  p :     2.760865
      px      :     0.928881
      py      :     0.849839
      dz2     :     0.004724  d :     0.062778
      dxz     :     0.008510
      dyz     :     0.012731
      dx2y2   :     0.017280
      dxy     :     0.019533

 12 N s       :     3.346265  s :     3.346265
      pz      :     1.517955  p :     3.648994
      px      :     1.042546
      py      :     1.088494
      dz2     :     0.002188  d :     0.024747
      dxz     :     0.002074
      dyz     :     0.005172
      dx2y2   :     0.007223
      dxy     :     0.008090

 13 C s       :     3.220310  s :     3.220310
      pz      :     1.018061  p :     2.738697
      px      :     0.860737
      py      :     0.859899
      dz2     :     0.002833  d :     0.035294
      dxz     :     0.003858
      dyz     :     0.006046
      dx2y2   :     0.011474
      dxy     :     0.011083

 14 C s       :     3.082809  s :     3.082809
      pz      :     0.964627  p :     2.781651
      px      :     0.883061
      py      :     0.933963
      dz2     :     0.004416  d :     0.065059
      dxz     :     0.011122
      dyz     :     0.008780
      dx2y2   :     0.022058
      dxy     :     0.018683

 15 C s       :     3.082623  s :     3.082623
      pz      :     0.964693  p :     2.781415
      px      :     0.894273
      py      :     0.922449
      dz2     :     0.004364  d :     0.065008
      dxz     :     0.011926
      dyz     :     0.007972
      dx2y2   :     0.021982
      dxy     :     0.018764

 16 C s       :     3.075810  s :     3.075810
      pz      :     0.981946  p :     2.760894
      px      :     0.929438
      py      :     0.849510
      dz2     :     0.004714  d :     0.062828
      dxz     :     0.008465
      dyz     :     0.012826
      dx2y2   :     0.017295
      dxy     :     0.019528

 17 H s       :     0.815027  s :     0.815027
      pz      :     0.009960  p :     0.047466
      px      :     0.030059
      py      :     0.007447

 18 H s       :     0.815055  s :     0.815055
      pz      :     0.009928  p :     0.047459
      px      :     0.030075
      py      :     0.007456

 19 C s       :     3.076033  s :     3.076033
      pz      :     0.981473  p :     2.760775
      px      :     0.931911
      py      :     0.847391
      dz2     :     0.004725  d :     0.062805
      dxz     :     0.009215
      dyz     :     0.012044
      dx2y2   :     0.015608
      dxy     :     0.021213

 20 C s       :     3.220138  s :     3.220138
      pz      :     1.017663  p :     2.738666
      px      :     0.861622
      py      :     0.859380
      dz2     :     0.002831  d :     0.035318
      dxz     :     0.003852
      dyz     :     0.006066
      dx2y2   :     0.011468
      dxy     :     0.011101

 21 C s       :     3.239747  s :     3.239747
      pz      :     1.026363  p :     2.759343
      px      :     0.883522
      py      :     0.849459
      dz2     :     0.002640  d :     0.033495
      dxz     :     0.005328
      dyz     :     0.004151
      dx2y2   :     0.009472
      dxy     :     0.011904

 22 C s       :     3.239588  s :     3.239588
      pz      :     1.025378  p :     2.759616
      px      :     0.868176
      py      :     0.866062
      dz2     :     0.002724  d :     0.033447
      dxz     :     0.004362
      dyz     :     0.005094
      dx2y2   :     0.009796
      dxy     :     0.011471

 23 C s       :     3.220305  s :     3.220305
      pz      :     1.018694  p :     2.738493
      px      :     0.834204
      py      :     0.885595
      dz2     :     0.002857  d :     0.035320
      dxz     :     0.003523
      dyz     :     0.006357
      dx2y2   :     0.010361
      dxy     :     0.012221

 24 C s       :     3.082508  s :     3.082508
      pz      :     0.964148  p :     2.781900
      px      :     0.894362
      py      :     0.923390
      dz2     :     0.004448  d :     0.065082
      dxz     :     0.011987
      dyz     :     0.007962
      dx2y2   :     0.021973
      dxy     :     0.018712

 25 C s       :     3.227969  s :     3.227969
      pz      :     1.011036  p :     2.731981
      px      :     0.893431
      py      :     0.827514
      dz2     :     0.002727  d :     0.035216
      dxz     :     0.006425
      dyz     :     0.003178
      dx2y2   :     0.010635
      dxy     :     0.012251

 26 C s       :     3.239828  s :     3.239828
      pz      :     1.024480  p :     2.758810
      px      :     0.884030
      py      :     0.850301
      dz2     :     0.002653  d :     0.033453
      dxz     :     0.005357
      dyz     :     0.004145
      dx2y2   :     0.009432
      dxy     :     0.011865

 27 C s       :     3.082489  s :     3.082489
      pz      :     0.964878  p :     2.781859
      px      :     0.882956
      py      :     0.934026
      dz2     :     0.004503  d :     0.065052
[...]

 19 C s       :     2.836870  s :     2.836870
      pz      :     0.976792  p :     2.991348
      px      :     1.002306
      py      :     1.012250
      dz2     :     0.010143  d :     0.145021
      dxz     :     0.018305
      dyz     :     0.023323
      dx2y2   :     0.038820
      dxy     :     0.054429

 20 C s       :     2.868327  s :     2.868327
      pz      :     0.999651  p :     3.073989
      px      :     1.021546
      py      :     1.052792
      dz2     :     0.006431  d :     0.088146
      dxz     :     0.007340
      dyz     :     0.011390
      dx2y2   :     0.033880
      dxy     :     0.029106

 21 C s       :     2.862776  s :     2.862776
      pz      :     1.000967  p :     3.093175
      px      :     1.053863
      py      :     1.038346
      dz2     :     0.006447  d :     0.086923
      dxz     :     0.010598
      dyz     :     0.008067
      dx2y2   :     0.026956
      dxy     :     0.034854

 22 C s       :     2.862765  s :     2.862765
      pz      :     1.001005  p :     3.093205
      px      :     1.052912
      py      :     1.039288
      dz2     :     0.006551  d :     0.086926
      dxz     :     0.008534
      dyz     :     0.010096
      dx2y2   :     0.027641
      dxy     :     0.034105

 23 C s       :     2.868326  s :     2.868326
      pz      :     0.999623  p :     3.073938
      px      :     1.022358
      py      :     1.051957
      dz2     :     0.006524  d :     0.088149
      dxz     :     0.006302
      dyz     :     0.012335
      dx2y2   :     0.030567
      dxy     :     0.032421

 24 C s       :     2.851151  s :     2.851151
      pz      :     0.953423  p :     2.999720
      px      :     1.021613
      py      :     1.024684
      dz2     :     0.009709  d :     0.150233
      dxz     :     0.022457
      dyz     :     0.015286
      dx2y2   :     0.055421
      dxy     :     0.047360

 25 C s       :     2.876738  s :     2.876738
      pz      :     0.991869  p :     3.073906
      px      :     1.062514
      py      :     1.019523
      dz2     :     0.006451  d :     0.088727
      dxz     :     0.012430
      dyz     :     0.005757
      dx2y2   :     0.031603
      dxy     :     0.032486

 26 C s       :     2.862775  s :     2.862775
      pz      :     1.000979  p :     3.093193
      px      :     1.053868
      py      :     1.038347
      dz2     :     0.006447  d :     0.086926
      dxz     :     0.010600
      dyz     :     0.008068
      dx2y2   :     0.026956
      dxy     :     0.034855

 27 C s       :     2.851181  s :     2.851181
      pz      :     0.953264  p :     2.999721
      px      :     1.027546
      py      :     1.018911
      dz2     :     0.009789  d :     0.150223
      dxz     :     0.020764
      dyz     :     0.016962
      dx2y2   :     0.054265
      dxy     :     0.048443

 28 H s       :     0.901112  s :     0.901112
      pz      :     0.015122  p :     0.068799
      px      :     0.033850
      py      :     0.019827

 29 H s       :     0.901087  s :     0.901087
      pz      :     0.015268  p :     0.068799
      px      :     0.028645
      py      :     0.024886

 30 H s       :     0.896049  s :     0.896049
      pz      :     0.016272  p :     0.068096
      px      :     0.022856
      py      :     0.028969

 31 H s       :     0.896053  s :     0.896053
      pz      :     0.016121  p :     0.068095
      px      :     0.028240
      py      :     0.023735

 32 H s       :     0.901111  s :     0.901111
      pz      :     0.015122  p :     0.068799
      px      :     0.033851
      py      :     0.019826

 33 H s       :     0.901086  s :     0.901086
      pz      :     0.015269  p :     0.068799
      px      :     0.028646
      py      :     0.024884

 34 H s       :     0.896045  s :     0.896045
      pz      :     0.016273  p :     0.068097
      px      :     0.022857
      py      :     0.028968

 35 H s       :     0.907514  s :     0.907514
      pz      :     0.015358  p :     0.069235
      px      :     0.019998
      py      :     0.033880

 36 H s       :     0.896052  s :     0.896052
      pz      :     0.016121  p :     0.068096
      px      :     0.028239
      py      :     0.023736

 37 H s       :     0.907490  s :     0.907490
      pz      :     0.015215  p :     0.069236
      px      :     0.025043
      py      :     0.028978



                      *****************************
                      * MAYER POPULATION ANALYSIS *
                      *****************************

  NA   - Mulliken gross atomic population
  ZA   - Total nuclear charge
  QA   - Mulliken gross atomic charge
  VA   - Mayer's total valence
  BVA  - Mayer's bonded valence
  FA   - Mayer's free valence

  ATOM       NA         ZA         QA         VA         BVA        FA
  0 N      7.0441     7.0000    -0.0441     3.4321     3.4321    -0.0000
  1 H      1.0272     1.0000    -0.0272     0.9881     0.9881     0.0000
  2 C      6.0013     6.0000    -0.0013     3.7599     3.7599    -0.0000
  3 C      6.0025     6.0000    -0.0025     3.7353     3.7353    -0.0000
  4 N      7.2235     7.0000    -0.2235     3.0892     3.0892     0.0000
  5 C      6.0030     6.0000    -0.0030     3.7351     3.7351     0.0000
  6 H      1.0274     1.0000    -0.0274     0.9881     0.9881    -0.0000
  7 C      5.9051     6.0000     0.0949     3.9556     3.9556    -0.0000
  8 N      7.2235     7.0000    -0.2235     3.0892     3.0892    -0.0000
  9 C      6.0030     6.0000    -0.0030     3.7352     3.7352    -0.0000
 10 C      6.0255     6.0000    -0.0255     3.6937     3.6937    -0.0000
 11 C      5.9051     6.0000     0.0949     3.9557     3.9557    -0.0000
 12 N      7.0441     7.0000    -0.0441     3.4321     3.4321     0.0000
 13 C      6.0017     6.0000    -0.0017     3.7595     3.7595    -0.0000
 14 C      5.9363     6.0000     0.0637     4.0078     4.0078    -0.0000
 15 C      5.9362     6.0000     0.0638     4.0083     4.0083     0.0000
 16 C      5.9051     6.0000     0.0949     3.9557     3.9557     0.0000
 17 H      0.8532     1.0000     0.1468     1.0715     1.0715    -0.0000
 18 H      0.8532     1.0000     0.1468     1.0715     1.0715     0.0000
 19 C      5.9051     6.0000     0.0949     3.9556     3.9556    -0.0000
 20 C      6.0017     6.0000    -0.0017     3.7595     3.7595    -0.0000
 21 C      6.0253     6.0000    -0.0253     3.6934     3.6934    -0.0000
 22 C      6.0255     6.0000    -0.0255     3.6937     3.6937    -0.0000
 23 C      6.0013     6.0000    -0.0013     3.7599     3.7599    -0.0000
 24 C      5.9362     6.0000     0.0638     4.0083     4.0083    -0.0000
 25 C      6.0025     6.0000    -0.0025     3.7353     3.7353    -0.0000
 26 C      6.0253     6.0000    -0.0253     3.6934     3.6934    -0.0000
 27 C      5.9363     6.0000     0.0637     4.0078     4.0078    -0.0000
 28 H      1.0163     1.0000    -0.0163     0.9912     0.9912    -0.0000
 29 H      1.0161     1.0000    -0.0161     0.9912     0.9912     0.0000
 30 H      1.0251     1.0000    -0.0251     0.9931     0.9931    -0.0000
 31 H      1.0251     1.0000    -0.0251     0.9931     0.9931    -0.0000
 32 H      1.0163     1.0000    -0.0163     0.9912     0.9912    -0.0000
 33 H      1.0161     1.0000    -0.0161     0.9912     0.9912    -0.0000
 34 H      1.0250     1.0000    -0.0250     0.9931     0.9931     0.0000
 35 H      1.0274     1.0000    -0.0274     0.9881     0.9881    -0.0000
 36 H      1.0251     1.0000    -0.0251     0.9931     0.9931    -0.0000
 37 H      1.0272     1.0000    -0.0272     0.9881     0.9881    -0.0000

  Mayer bond orders larger than 0.100000
B(  0-N , 16-C ) :   1.2449 B(  0-N , 17-H ) :   0.8734 B(  0-N , 19-C ) :   1.2447 
B(  1-H ,  5-C ) :   1.0001 B(  2-C , 19-C ) :   1.1636 B(  2-C , 20-C ) :   1.5039 
B(  2-C , 28-H ) :   1.0030 B(  3-C ,  5-C ) :   1.5828 B(  3-C ,  6-H ) :   1.0002 
B(  3-C , 14-C ) :   1.0667 B(  4-N , 14-C ) :   1.4193 B(  4-N , 15-C ) :   1.4194 
B(  5-C , 15-C ) :   1.0667 B(  7-C , 10-C ) :   1.3151 B(  7-C , 12-N ) :   1.2447 
B(  7-C , 23-C ) :   1.1636 B(  8-N , 24-C ) :   1.4194 B(  8-N , 27-C ) :   1.4193 
B(  9-C , 24-C ) :   1.0666 B(  9-C , 25-C ) :   1.5828 B(  9-C , 37-H ) :   1.0001 
B( 10-C , 15-C ) :   1.2971 B( 10-C , 31-H ) :   0.9517 B( 11-C , 12-N ) :   1.2449 
B( 11-C , 13-C ) :   1.1634 B( 11-C , 26-C ) :   1.3152 B( 12-N , 18-H ) :   0.8734 
B( 13-C , 23-C ) :   1.5039 B( 13-C , 33-H ) :   1.0029 B( 14-C , 21-C ) :   1.2969 
B( 16-C , 20-C ) :   1.1634 B( 16-C , 21-C ) :   1.3152 B( 19-C , 22-C ) :   1.3152 
B( 20-C , 29-H ) :   1.0029 B( 21-C , 30-H ) :   0.9517 B( 22-C , 24-C ) :   1.2971 
B( 22-C , 36-H ) :   0.9517 B( 23-C , 32-H ) :   1.0030 B( 25-C , 27-C ) :   1.0667 
B( 25-C , 35-H ) :   1.0002 B( 26-C , 27-C ) :   1.2969 B( 26-C , 34-H ) :   0.9517 


-------
TIMINGS
-------

Total SCF time: 0 days 0 hours 0 min 12 sec 

Total time                  ....      12.248 sec
Sum of individual times     ....      11.070 sec  ( 90.4%)

SCF preparation             ....       0.326 sec  (  2.7%)
Fock matrix formation       ....      10.228 sec  ( 83.5%)
  Startup                   ....       0.009 sec  (  0.1% of F)
  Split-RI-J                ....       0.983 sec  (  9.6% of F)
  Chain of spheres X        ....       9.166 sec  ( 89.6% of F)
  XC integration            ....       0.992 sec  (  9.7% of F)
    Basis function eval.    ....       0.311 sec  ( 31.3% of XC)
    Density eval.           ....       0.207 sec  ( 20.9% of XC)
    XC-Functional eval.     ....       0.027 sec  (  2.7% of XC)
    XC-Potential eval.      ....       0.181 sec  ( 18.3% of XC)
Diagonalization             ....       0.000 sec  (  0.0%)
Density matrix formation    ....       0.036 sec  (  0.3%)
Total Energy calculation    ....       0.020 sec  (  0.2%)
Population analysis         ....       0.097 sec  (  0.8%)
Orbital Transformation      ....       0.065 sec  (  0.5%)
Orbital Orthonormalization  ....       0.000 sec  (  0.0%)
DIIS solution               ....       0.083 sec  (  0.7%)
SOSCF solution              ....       0.214 sec  (  1.7%)
Finished LeanSCF after  12.3 sec

Maximum memory used throughout the entire LEANSCF-calculation: 43.8 MB

-------------------------   --------------------
FINAL SINGLE POINT ENERGY      -988.250261129897
-------------------------   --------------------

                                *** OPTIMIZATION RUN DONE ***



           ************************************************************
           *        Program running with 22 parallel MPI-processes    *
           *              working on a common directory               *
           ************************************************************

------------------------------------------------------------------------------
                              ORCA PROPERTY CALCULATIONS
------------------------------------------------------------------------------

GBWName                                 ... /home/jannes/porphin/bench_runs/nproc_022/porphin.gbw
Number of atoms                         ...     38
Number of basis functions               ...    406
Max core memory                         ...   3000 MB

Electric properties:
Dipole moment                           ... YES
Quadrupole moment                       ...  NO
Static polarizability (Dipole/Dipole)   ...  NO
Static polarizability (Dipole/Quad.)    ...  NO
Static polarizability (Quad./Quad.)     ...  NO
Static polarizability (Velocity)        ...  NO
Static hyperpolarizability              ...  NO

Atomic electric properties:
Dipole moment                           ...  NO
Quadrupole moment                       ...  NO
Static polarizability                   ...  NO

Choice of electric origin               ... Center of mass
Position of electric origin             ...    -0.158819     5.090063     6.570952

General magnetic properties:
Magnetizability                         ...  NO

EPR properties:
g-Tensor (aka g-matrix)                 ...  NO
Zero-Field splitting spin-orbit         ...  NO
Zero-field splitting spin-spin          ...  NO
Hyperfine couplings                     ...  NO (   0 nuclei)
Quadrupole couplings                    ...  NO (   0 nuclei)
Contact density                         ...  NO (   0 nuclei)

NMR properties:
Chemical shifts                         ...  NO (   0 nuclei)
Spin-rotation constants                 ...  NO (   0 nuclei)
Spin-spin couplings                     ...  NO (   0 nuclei,    0 pairs)

Choice of magnetic origin               ... GIAO
Position of magnetic origin             ...     0.000000     0.000000     0.000000

Properties with geometric perturbations:
SCF Hessian                             ...  NO
IR spectrum                             ...  NO
VCD spectrum                            ...  NO
X-ray spectroscopy properties:
SCF XES/XAS/RIXS spectra                ...  NO

SCF SOC stabilization energy            ...  NO
Diagonal Born-Oppenheimer correction    ...  NO

-------------
DIPOLE MOMENT
-------------

Method             : SCF
Type of density    : Electron Density
Multiplicity       :   1
Irrep              :   0
Energy             :  -988.2502611298967850 Eh
Basis              : AO
                                X                 Y                 Z
Electronic contribution:     -0.000279640      -0.000408881       0.000526094
Nuclear contribution   :      0.000063700      -0.000026209      -0.000591686
                        -----------------------------------------
Total Dipole Moment    :     -0.000215940      -0.000435090      -0.000065592
                        -----------------------------------------
Magnitude (a.u.)       :      0.000490139
Magnitude (Debye)      :      0.001245834



--------------------
Rotational spectrum 
--------------------
 
Rotational constants in cm-1:             0.008835             0.008752             0.004397 
Rotational constants in MHz :           264.856891           262.386774           131.808024 

Dipole components along the rotational axes: 
x,y,z [a.u.] :    -0.000250    -0.000407    -0.000112 
x,y,z [Debye]:    -0.000635    -0.001034    -0.000283 

 

Dipole moment calculation done in   0.0 sec 

Maximum memory used throughout the entire PROP-calculation: 24.5 MB

--------------------------------
SUGGESTED CITATIONS FOR THIS RUN
--------------------------------

Below you find a list of papers that are relevant to this ORCA run
We neither can nor want to force you to cite these papers, but we appreciate if you do
You receive ORCA, which is the product of decades of hard work by many enthusiastic individuals, for free
The only thing we kindly ask in return is that you cite our papers,
We deeply appreciate it, if you show your appreciation for ORCA by not just citing the generic ORCA reference.

Please note that relegating all ORCA citations to the supporting information does *not* help us.
SI sections are not indexed - citations you put there will not count into any citation statistics
But we need these citations in order to attract the funding resources that allow us to do what we are doing

Therefore, if you are a happy ORCA user, please consider citing a few of the papers listed below in the main body of your paper

In addition to the list printed below, the program has created the file /home/jannes/porphin/bench_runs/nproc_022/porphin.bibtex that contains the list in bibtex format
You can import this file easily into all common literature databanks and citation aid programs

It goes without saying that in many instances, there are alternative algorithms to achieve similar
results as the ones you have gotten from ORCA. It is, of course, also the case that in some instances
ORCA just re-implements algorithms worked out by others. We are fully aware of that and we are also
fully appreciative of our colleagues work. Hence this citation list should not be read as indicating
that the listed papers, which are focused on our own work, are the only ones worth citing. It simply
meant to make it easier for users to cite ORCA specific papers. It is not a substitute for doing your
own literature research and citing the relevant literature in a scientifically appropriate manner.

List of essential papers. We consider these as the minimum necessary citations

  1. Neese, F.
     Software update: the ORCA program system, version 6.0
     WIRES Comput. Molec. Sci. 2025 15(1), e70019
     doi.org/10.1002/wcms.70019

List of papers to cite with high priority. The work reported in these papers was absolutely
necessary for this run to complete.
Our perspective: the developers of density functionals and basis sets usually get cited in chemistry papers
Good! But without the algorithms to do something with them, the functionals or basis sets would not do anything.
Hence, in our opinion, the algorithm design and method developments papers are equally worthy of getting cited

  1. Neese, F.
     An improvement of the resolution of the identity approximation for the formation of the Coulomb matrix
     J. Comp. Chem. 2003 24(14), 1740-1747
     doi.org/10.1002/jcc.10318
  2. Neese, F.; Wennmohs, F.; Hansen, A.; Becker, U.
     Efficient, approximate and parallel Hartree-Fock and hybrid DFT calculations. A 'chain-of-spheres' algorithm for the Hartree-Fock exchange
     Chem. Phys. 2009 356(1-3), 98-109
     doi.org/10.1016/j.chemphys.2008.10.036
  3. Helmich-Paris, B.; de Souza, B.; Neese, F.; Izsák, R.
     An improved chain of spheres for exchange algorithm
     J. Chem. Phys. 2021 155(10), 104109
     doi.org/10.1063/5.0058766
  4. Neese, F.
     The SHARK Integral Generation and Digestion System
     J. Comp. Chem. 2022 44(3), 381
     doi.org/10.1002/jcc.26942

List of suggested additional citations. These are papers that are important in the 'surrounding' of 
of this run, or papers that preceded the highly important papers. If you like your results we are grateful for a citation.

  1. Izsak, R.; Neese, F.
     An overlap fitted chain of spheres exchange method
     J. Chem. Phys. 2011 135 , 144105
     doi.org/10.1063/1.3646921
  2. Izsak, R.; Hansen, A.; Neese, F.
     The resolution of identity and chain of spheres approximations for the LPNO-CCSD singles Fock term
     Molec. Phys. 2012 110 , 2413-2417
     doi.org/10.1080/00268976.2012.687466
  3. Neese, F.
     The ORCA program system
     WIRES Comput. Molec. Sci. 2012 2(1), 73-78
     doi.org/10.1002/wcms.81
  4. Izsak, R.; Neese, F.; Klopper, W.
     Robust fitting techniques in the chain of spheres approximation to the Fock exchange: The role of the complementary space
     J. Chem. Phys. 2013 139 , 
     doi.org/10.1063/1.4819264
  5. Neese, F.
     Software update: the ORCA program system, version 4.0
     WIRES Comput. Molec. Sci. 2018 8(1), 1-6
     doi.org/10.1002/wcms.1327
  6. Neese, F.; Wennmohs, F.; Becker, U.; Riplinger, C.
     The ORCA quantum chemistry program package
     J. Chem. Phys. 2020 152(22), 224108
     doi.org/10.1063/5.0004608
  7. Neese, F.
     Software update: The ORCA program system—Version 5.0
     WIRES Comput. Molec. Sci. 2022 12(1), e1606
     doi.org/10.1002/wcms.1606

List of optional additional citations

  1. Neese, F.
     Approximate second-order SCF convergence for spin unrestricted wavefunctions
     Chem. Phys. Lett. 2000 325(1-3), 93-98
     doi.org/10.1016/s0009-2614(00)00662-x

Timings for individual modules:

Sum of individual times          ...      223.725 sec (=   3.729 min)
Startup calculation              ...       21.797 sec (=   0.363 min)   9.7 %
SCF iterations                   ...      130.614 sec (=   2.177 min)  58.4 %
Property calculations            ...        0.404 sec (=   0.007 min)   0.2 %
SCF Gradient evaluation          ...       70.765 sec (=   1.179 min)  31.6 %
Geometry relaxation              ...        0.145 sec (=   0.002 min)   0.1 %
                             ****ORCA TERMINATED NORMALLY****
TOTAL RUN TIME: 0 days 0 hours 3 minutes 45 seconds 637 msec
