
                                 *****************
                                 * O   R   C   A *
                                 *****************

                                            #,                                       
                                            ###                                      
                                            ####                                     
                                            #####                                    
                                            ######                                   
                                           ########,                                 
                                     ,,################,,,,,                         
                               ,,#################################,,                 
                          ,,##########################################,,             
                       ,#########################################, ''#####,          
                    ,#############################################,,   '####,        
                  ,##################################################,,,,####,       
                ,###########''''           ''''###############################       
              ,#####''   ,,,,##########,,,,          '''####'''          '####       
            ,##' ,,,,###########################,,,                        '##       
           ' ,,###''''                  '''############,,,                           
         ,,##''                                '''############,,,,        ,,,,,,###''
      ,#''                                            '''#######################'''  
     '                                                          ''''####''''         
             ,#######,   #######,   ,#######,      ##                                
            ,#'     '#,  ##    ##  ,#'     '#,    #''#        ,####,    ,#,          
            ##       ##  ##   ,#'  ##            #'  '#       #'       ,# #          
            ##       ##  #######   ##           ,######,      #####,      #          
            '#,     ,#'  ##    ##  '#,     ,#' ,#      #,     #,   #      #          
             '#######'   ##     ##  '#######'  #'      '#     '####' #    #          



                #########################################################
                #                        -***-                          #
                #          Department of theory and spectroscopy        #
                #                                                       #
                #                      Frank Neese                      #
                #                                                       #
                #     Directorship, Architecture, Infrastructure        #
                #                    SHARK, DRIVERS                     #
                #        Core code/Algorithms in most modules           #
                #                                                       #
                #        Max Planck Institute fuer Kohlenforschung      #
                #                Kaiser Wilhelm Platz 1                 #
                #                 D-45470 Muelheim/Ruhr                 #
                #                      Germany                          #
                #                                                       #
                #                  All rights reserved                  #
                #                        -***-                          #
                #########################################################


                         Program Version 6.1.1  -  RELEASE   -
                                (GIT: $487d211c$)
                          ($2025-11-21 10:33:24 +0100$)


 With contributions from (in alphabetic order):
[Max-Planck-Institut fuer Kohlenforschung]                               
  Daniel Aravena         : Magnetic Suceptibility                        
  Michael Atanasov       : Ab Initio Ligand Field Theory (pilot matlab implementation)
  Alexander A. Auer      : GIAO ZORA, VPT2 properties, NMR spectrum      
  Ute Becker             : All parallelization in ORCA, NUMFREQ, NUMCALC 
  Giovanni Bistoni       : ED, misc. LED, open-shell LED, HFLD           
  Dmytro Bykov           : pre 5.0 version of the SCF Hessian            
  Marcos Casanova-Páez   : Triplet and SCS-CIS(D). UHF-(DLPNO)-IP/EA/STEOM-CCSD. UHF-CVS-IP/STEOM-CCSD   
  Vijay G. Chilkuri      : MRCI spin determinant printing, contributions to CSF-ICE 
  Pauline Colinet        : FMM embedding                                 
  Dipayan Datta          : RHF DLPNO-CCSD density                        
  Achintya Kumar Dutta   : EOM-CC, STEOM-CC                              
  Nicolas Foglia         : Exact transition moments, OPA infrastructure, MCD improvements    
  Dmitry Ganyushin       : Spin-Orbit,Spin-Spin,Magnetic field MRCI      
  Miquel Garcia-Rates    : C-PCM and meta-GGA Hessian, CCSD/C-PCM, Gaussian charge scheme 
  Tiago L. C. Gouveia    : GS-ROHF, GS-ROCIS                             
  Yang Guo               : DLPNO-NEVPT2, F12-NEVPT2, CIM, IAO-localization        
  Andreas Hansen         : Spin unrestricted coupled pair/coupled cluster methods 
  Ingolf Harden          : AUTO-CI MPn and infrastructure                
  Benjamin Helmich-Paris : MC-RPA, TRAH-(SCF,CASSCF), AVAS, COSX integrals, SCF dyn. polar., MC-PDFT, srDFT 
  Lee Huntington         : MR-EOM, pCC                                   
  Robert Izsak           : Overlap fitted RIJCOSX, COSX-SCS-MP3, EOM     
  Riya Kayal             : Wick's Theorem for AUTO-CI, AUTO-CI UHF-CCSDT 
  Emily Kempfer          : AUTO-CI RHF CISDT and CCSDT, approximate NEVPT4
  Christian Kollmar      : KDIIS, OOCD, Brueckner-CCSD(T), CCSD density, CASPT2, CASPT2-K, improved NEVPT2 
  Axel Koslowski         : Symmetry handling                             
  Simone Kossmann        : meta-GGA functionals, TD-DFT gradient, OOMP2, (MP2 Hessian; deprecated post 5.0) 
  Lucas Lang             : DCDCAS, Hyperfine gauge corrections, ICE-SOC+SSC
  Marvin Lechner         : AUTO-CI (C++ implementation), FIC-MRCC        
  Spencer Leger          : CASSCF response                               
  Dagmar Lenk            : GEPOL surface, SMD, ORCA-2-JSON               
  Dimitrios Liakos       : Extrapolation schemes; Compound Job, Property file
  Dimitrios Manganas     : Further ROCIS development; embedding schemes. LFT, Crystal Embedding 
  Dimitrios Pantazis     : SARC Basis sets                               
  Anastasios Papadopoulos: AUTO-CI, single reference methods and gradients 
  Taras Petrenko         : pre 6.0 DFT Hessian and TD-DFT gradient,  ECA, NRVS 
  Petra Pikulova         : Analytic Raman intensities                    
  Peter Pinski           : DLPNO-MP2, DLPNO-MP2 Gradient                 
  Shashank Vittal Rao    : ES-AILFT, MagRelax                            
  Christoph Reimann      : Effective Core Potentials                     
  Marius Retegan         : Local ZFS, SOC                                
  Christoph Riplinger    : Optimizer, TS searches, QM/MM, DLPNO-CCSD(T), (RO)-DLPNO pert. Triples 
  Michael Roemelt        : Original ROCIS implementation, recursive CI coupling coefficients
  Masaaki Saitow         : Open-shell DLPNO-CCSD energy and density      
  Barbara Sandhoefer     : DKH picture change effects                    
  Yorick L. A. Schmerwitz: GMF and freeze-and-release deltaSCF, NEB S-IDPP initial path                    
  Kantharuban Sivalingam : CASSCF convergence/infrastructure, NEVPT2, NEVPT3, NEVPT4(SD), FIC-MRCI and CEPA variants
  Bernardo de Souza      : ESD, SOC TD-DFT                               
  Georgi L. Stoychev     : AutoAux, RI-MP2 NMR, DLPNO-MP2 response, X2C  
  Van Anh Tran           : RI-MP2 g-tensors                              
  Willem Van den Heuvel  : Paramagnetic NMR                              
  Zikuan Wang            : NOTCH, Electric field optimization            
  Frank Wennmohs         : Technical directorship and infrastructure     
  Hang Xu                : AUTO-CI-Response properties                   
                                                                         
[FACCTs GmbH]                                                            
  Markus Bursch, Nicolas Foglia, Miquel Garcia-Rates, Ingolf Harden, Hagen Neugebauer, Anastasios Papadopoulos, 
  Christoph Riplinger, Bernardo de Souza, Georgi L. Stoychev                                                    
                                                                 
  APM, various basis sets, CI-OPT, improved COSX, DLPNO-Multilevel,           
  DOCKER, DRACO, updates on ESD, Fragmentator, GOAT, IRC, LR-CPCM, L-BFGS, MBIS, meta-GGA TD-DFT gradient, ML-optimized integration grids, 
  MM, NACMEs, nearIR, NEB, NEB-TS, NL-DFT gradient (VV10), 2- and 3-layer-ONIOM, interface openCOSMO-RS, QMMM,   
  Crystal-QMMM, RESP, rigid body optimization, SF, symmetry and pop. for TD-DFT, various functionals, SOLVATOR                                   
                                                                         
[Other institutions]                                                     
  V. Asgeirsson          : NEB                                           
  Christoph Bannwarth    : sTDA-DFT, sTD-DFT, PBEh-3c, B97-3c, D3        
  Giovanni Bistoni       : ETS/NOCV, ADLD/ADEX, COVALED                  
  Martin Brehm           : Molecular dynamics                            
  Ronald Cardenas        : ETS/NOCV                                      
  Martina Colucci        : COVALED                                       
  Sebastian Ehlert       : rSCAN, r2SCAN, r2SCAN-3c, D4, dhf basis sets  
  Marvin Friede          : D4 for Fr, Ra, Ac-Lr                          
  Lars Goerigk           : TD-DFT with DH, B97 family of functionals     
  Stefan Grimme          : VdW corrections, initial TS optimization, DFT functionals, gCP, sTDA/sTD-DF 
  Waldemar Hujo          : DFT-NL                                        
  H. Jonsson             : NEB                                           
  Holger Kruse           : gCP                                           
  Marcel Mueller         : wB97X-3c, vDZP basis set                      
  Hagen Neugebauer       : wr2SCAN, Native XTB                           
  Gianluca Regni         : ADLD/ADEX                                     
  Tobias Risthaus        : pre 6.0 range-separated hybrid DFT and stability analysis
  Lukas Wittmann         : regularized MP2, r2SCAN double-hybrids, wr2SCAN        
                                                                         
We gratefully acknowledge several colleagues who have allowed us to      
interface, adapt or use parts of their codes:                            
  Ed Valeev, F. Pavosevic, A. Kumar             : LibInt (2-el integral package), F12 methods 
  Garnet Chan, S. Sharma, J. Yang, R. Olivares  : DMRG                   
  Ulf Ekstrom                                   : XCFun DFT Library      
  Mihaly Kallay                                 : mrcc  (arbitrary order and MRCC methods)
  Frank Weinhold                                : gennbo (NPA and NBO analysis)           
  Simon Mueller                                 : openCOSMO-RS                            
  Christopher J. Cramer and Donald G. Truhlar   : smd solvation model                     
  S Lehtola, MJT Oliveira, MAL Marques          : LibXC Library                           
  Liviu Ungur et al                             : ANISO software                          


 Your calculation uses the libint2 library for the computation of 2-el integrals
 For citations please refer to: http://libint.valeyev.net

 Your ORCA version has been built with support for libXC version: 7.0.0
 For citations please refer to: https://libxc.gitlab.io

 This ORCA versions uses:
   CBLAS   interface :  Fast vector & matrix operations
   LAPACKE interface :  Fast linear algebra routines
   SCALAPACK package :  Parallel linear algebra routines
   Shared memory     :  Shared parallel matrices
   BLAS/LAPACK       :  OpenBLAS 0.3.29  USE64BITINT DYNAMIC_ARCH NO_AFFINITY Haswell SINGLE_THREADED
        Core in use  :  Haswell
   Copyright (c) 2011-2014, The OpenBLAS Project


  ***********************************
  * Starting time: Sun May 31 17:01:17 2026
  * Host name:     steezy
  * Process ID:    597843
  * Working dir.:  /home/jannes/porphin/bench_tddft/nproc_022
  ***********************************

NOTE: MaxCore=3000 MB was set to SCF,MP2,MDCI,CIPSI,MRCI,RASCI and CIS
      => If you want to overwrite this, your respective input block should be placed after the MaxCore statement


***************************************
The coordinates will be read from file: /home/jannes/porphin/opt.xyz
***************************************


================================================================================

----- Orbital basis set information -----
Your calculation utilizes the basis: def2-SVP
   F. Weigend and R. Ahlrichs, Phys. Chem. Chem. Phys. 7, 3297 (2005).

----- AuxJ basis set information -----
Your calculation utilizes the auxiliary basis: def2/J
   H-Rn: F. Weigend, Phys. Chem. Chem. Phys. 8, 1057 (2006).
   Fr-Lr: K. Eichkorn, F. Weigend, O. Treutler, R. Ahlrichs; Theor. Chem. Acc. 97, 119 (1997).

================================================================================
                                        WARNINGS
                       Please study these warnings very carefully!
================================================================================


WARNING: CIS/ROCIS methods need fully converged wavefunctions
  ===> : Setting SCFConvForced true
         You can overwrite this default with %scf ConvForced false 


================================================================================
                                       INPUT FILE
================================================================================
NAME = /home/jannes/porphin/bench_tddft/nproc_022/tddft.inp
|  1> %pal nprocs 22 end
|  2> %maxcore 3000
|  3> 
|  4> ! B3LYP def2-SVP def2/J RIJCOSX
|  5> 
|  6> %tddft
|  7>   nroots 5
|  8>   triplets false
|  9> end
| 10> 
| 11> * xyzfile 0 1 /home/jannes/porphin/opt.xyz
| 12> 
| 13>                          ****END OF INPUT****
================================================================================

                       ****************************
                       * Single Point Calculation *
                       ****************************

---------------------------------
CARTESIAN COORDINATES (ANGSTROEM)
---------------------------------
  N     -2.168097    2.521032    3.543838
  H      1.685656   -2.223163    3.902709
  C     -4.349044    3.017980    3.546040
  C     -0.393357   -1.553812    3.884786
  N      0.087717    0.693081    3.663814
  C      0.945964   -1.442242    3.851034
  H     -0.989903   -2.446147    3.971672
  C      2.866310    1.822923    3.522080
  N     -0.255895    4.695657    3.297574
  C     -1.115517    6.823257    3.052972
  C      2.517244    0.492524    3.646105
  C      2.677278    4.045683    3.317988
  N      2.000829    2.870019    3.434701
  C      4.066451    3.722268    3.339443
  C     -0.918314   -0.204788    3.766993
  C      1.233569   -0.025774    3.711928
  C     -2.842982    1.345116    3.667806
  H     -1.163215    2.602668    3.499895
  H      0.995365    2.784021    3.437787
  C     -3.034768    3.567380    3.459534
  C     -4.232293    1.669573    3.671296
  C     -2.272985    0.092238    3.768816
  C     -2.686799    4.895014    3.309500
  C      4.180557    2.372888    3.462102
  C     -1.401220    5.410899    3.227334
  C      0.225038    6.935718    3.020625
  C      2.105652    5.297022    3.193895
  C      0.750260    5.591421    3.175487
  H     -5.252906    3.601209    3.510114
  H     -5.021944    0.943111    3.750310
  H     -2.959372   -0.737517    3.849457
  H      3.335278   -0.211026    3.690247
  H      5.082610    1.787851    3.500203
  H      4.858520    4.446862    3.262647
  H      2.791396    6.126169    3.097246
  H      0.820387    7.826404    2.906510
  H     -3.505156    5.597445    3.246763
  H     -1.855896    7.601723    2.971652

----------------------------
CARTESIAN COORDINATES (A.U.)
----------------------------
  NO LB      ZA    FRAG     MASS         X           Y           Z
   0 N     7.0000    0    14.007   -4.097110    4.764060    6.696883
   1 H     1.0000    0     1.008    3.185428   -4.201169    7.375051
   2 C     6.0000    0    12.011   -8.218502    5.703156    6.701044
   3 C     6.0000    0    12.011   -0.743337   -2.936279    7.341182
   4 N     7.0000    0    14.007    0.165761    1.309733    6.923605
   5 C     6.0000    0    12.011    1.787613   -2.725442    7.277400
   6 H     1.0000    0     1.008   -1.870646   -4.622548    7.505372
   7 C     6.0000    0    12.011    5.416541    3.444825    6.655767
   8 N     7.0000    0    14.007   -0.483571    8.873506    6.231512
   9 C     6.0000    0    12.011   -2.108022   12.894087    5.769281
  10 C     6.0000    0    12.011    4.756902    0.930735    6.890140
  11 C     6.0000    0    12.011    5.059322    7.645233    6.270089
  12 N     7.0000    0    14.007    3.781019    5.423550    6.490644
  13 C     6.0000    0    12.011    7.684479    7.034067    6.310633
  14 C     6.0000    0    12.011   -1.735362   -0.386993    7.118585
  15 C     6.0000    0    12.011    2.331108   -0.048706    7.014527
  16 C     6.0000    0    12.011   -5.372457    2.541901    6.931149
  17 H     1.0000    0     1.008   -2.198158    4.918330    6.613843
  18 H     1.0000    0     1.008    1.880967    5.261037    6.496476
  19 C     6.0000    0    12.011   -5.734880    6.741371    6.537572
  20 C     6.0000    0    12.011   -7.997875    3.155036    6.937744
  21 C     6.0000    0    12.011   -4.295319    0.174305    7.122030
  22 C     6.0000    0    12.011   -5.077314    9.250236    6.254049
  23 C     6.0000    0    12.011    7.900108    4.484108    6.542425
  24 C     6.0000    0    12.011   -2.647922   10.225117    6.098777
  25 C     6.0000    0    12.011    0.425260   13.106608    5.708154
  26 C     6.0000    0    12.011    3.979106   10.009921    6.035587
  27 C     6.0000    0    12.011    1.417786   10.566254    6.000801
  28 H     1.0000    0     1.008   -9.926554    6.805299    6.633154
  29 H     1.0000    0     1.008   -9.490099    1.782222    7.087059
  30 H     1.0000    0     1.008   -5.592403   -1.393705    7.274419
  31 H     1.0000    0     1.008    6.302762   -0.398781    6.973556
  32 H     1.0000    0     1.008    9.604741    3.378549    6.614425
  33 H     1.0000    0     1.008    9.181272    8.403351    6.165509
  34 H     1.0000    0     1.008    5.274974   11.576782    5.852947
  35 H     1.0000    0     1.008    1.550307   14.789760    5.492508
  36 H     1.0000    0     1.008   -6.623785   10.577638    6.135493
  37 H     1.0000    0     1.008   -3.507135   14.365175    5.615608

--------------------------------
INTERNAL COORDINATES (ANGSTROEM)
--------------------------------
 N      0   0   0     0.000000000000     0.00000000     0.00000000
 H      1   0   0     6.122710737710     0.00000000     0.00000000
 C      1   2   0     2.236848671752   141.79252623     0.00000000
 C      2   1   3     2.184181093522    33.17005234     0.07949786
 N      4   2   1     2.308416983933    95.77984632     0.04650876
 C      2   1   3     1.076871472707     4.39589774   356.51645958
 H      4   2   1     1.076883493855   105.82409208   179.51738903
 C      5   4   2     3.002867051897   124.30373470   359.44675828
 N      1   2   6     2.906227165437    99.82405730   176.50451907
 C      9   1   2     2.307696228122   116.98489595   178.21497234
 C      8   5   4     1.381010779169    53.08801153     0.39196798
 C      8   5   4     2.240100144879   107.43112647   180.17292848
 N      8   5   4     1.361287068997    72.79123898   180.10725127
 C     12   8   5     1.426484911655    72.03022590   179.58986387
 C      5   4   2     1.352373106862    36.04468501   179.80902282
 C      5   4   2     1.353530300335    69.88411306   359.75608275
 C      1   2   6     1.361475768167    68.74138669   356.44988481
 H      1   2   6     1.009149769692    55.83881279   177.45789104
 H     13   8   5     1.009139749834   124.59132658   358.77431117
 C      1   2   6     1.361275109506   179.42169010   332.90826309
 C      3   1   2     1.359235556916    72.29887878     0.05930321
 C     17   1   2     1.380145964379   125.87382457   359.82757631
 C     20   1  18     1.380653708963   125.83167628   359.62531769
 C     14  12   8     1.359739605188   107.94317510     0.05485995
 C      9   1   2     1.352136876129    80.96036832   178.77502050
 C     10   9   1     1.345652820365    73.05271037   180.94098409
 C     12   8   5     1.381305414977   160.39090838   358.11142705
 C      9   1   2     1.352644174678   173.02378437     5.48997127
 H      3   1   2     1.076296083316   159.91041206   180.22184185
 H     21   3   1     1.075889841685   127.84777178   180.52054045
 H     22  17   1     1.079871957537   116.13475991   180.70016980
 H     11   8   5     1.079866076798   116.09336221   179.60341658
 H     24  14  12     1.075834370328   127.82213152   179.32147237
 H     14  12   8     1.076246900675   124.26275105   179.67301372
 H     27  12   8     1.080310423140   116.14507819   182.08703469
 H     26  10   9     1.077396962880   128.47140728   180.11236129
 H     23  20   1     1.080302467080   116.14455725   179.22591800
 H     10   9   1     1.077396546865   158.45606025     1.25885267

---------------------------
INTERNAL COORDINATES (A.U.)
---------------------------
 N      0   0   0     0.000000000000     0.00000000     0.00000000
 H      1   0   0    11.570246491492     0.00000000     0.00000000
 C      1   2   0     4.227031392636   141.79252623     0.00000000
 C      2   1   3     4.127504093645    33.17005234     0.07949786
 N      4   2   1     4.362275902525    95.77984632     0.04650876
 C      2   1   3     2.034992164849     4.39589774   356.51645958
 H      4   2   1     2.035014881526   105.82409208   179.51738903
 C      5   4   2     5.674596344661   124.30373470   359.44675828
 N      1   2   6     5.491973425639    99.82405730   176.50451907
 C      9   1   2     4.360913871433   116.98489595   178.21497234
 C      8   5   4     2.609732160623    53.08801153     0.39196798
 C      8   5   4     4.233175786379   107.43112647   180.17292848
 N      8   5   4     2.572459750052    72.79123898   180.10725127
 C     12   8   5     2.695665817199    72.03022590   179.58986387
 C      5   4   2     2.555614802849    36.04468501   179.80902282
 C      5   4   2     2.557801581597    69.88411306   359.75608275
 C      1   2   6     2.572816339805    68.74138669   356.44988481
 H      1   2   6     1.907016692827    55.83881279   177.45789104
 H     13   8   5     1.906997758041   124.59132658   358.77431117
 C      1   2   6     2.572437149890   179.42169010   332.90826309
 C      3   1   2     2.568582954060    72.29887878     0.05930321
 C     17   1   2     2.608097897514   125.87382457   359.82757631
 C     20   1  18     2.609057395722   125.83167628   359.62531769
 C     14  12   8     2.569535467252   107.94317510     0.05485995
 C      9   1   2     2.555168391460    80.96036832   178.77502050
 C     10   9   1     2.542915301828    73.05271037   180.94098409
 C     12   8   5     2.610288941610   160.39090838   358.11142705
 C      9   1   2     2.556127046785   173.02378437     5.48997127
 H      3   1   2     2.033904836479   159.91041206   180.22184185
 H     21   3   1     2.033137151053   127.84777178   180.52054045
 H     22  17   1     2.040662259447   116.13475991   180.70016980
 H     11   8   5     2.040651146461   116.09336221   179.60341658
 H     24  14  12     2.033032325379   127.82213152   179.32147237
 H     14  12   8     2.033811894758   124.26275105   179.67301372
 H     27  12   8     2.041490839356   116.14507819   182.08703469
 H     26  10   9     2.035985197361   128.47140728   180.11236129
 H     23  20   1     2.041475804581   116.14455725   179.22591800
 H     10   9   1     2.035984411208   158.45606025     1.25885267

---------------------
BASIS SET INFORMATION
---------------------
There are 3 groups of distinct atoms

 Group   1 Type N   : 7s4p1d contracted to 3s2p1d pattern {511/31/1}
 Group   2 Type H   : 4s1p contracted to 2s1p pattern {31/1}
 Group   3 Type C   : 7s4p1d contracted to 3s2p1d pattern {511/31/1}

Atom   0N    basis set group =>   1
Atom   1H    basis set group =>   2
Atom   2C    basis set group =>   3
Atom   3C    basis set group =>   3
Atom   4N    basis set group =>   1
Atom   5C    basis set group =>   3
Atom   6H    basis set group =>   2
Atom   7C    basis set group =>   3
Atom   8N    basis set group =>   1
Atom   9C    basis set group =>   3
Atom  10C    basis set group =>   3
Atom  11C    basis set group =>   3
Atom  12N    basis set group =>   1
Atom  13C    basis set group =>   3
Atom  14C    basis set group =>   3
Atom  15C    basis set group =>   3
Atom  16C    basis set group =>   3
Atom  17H    basis set group =>   2
Atom  18H    basis set group =>   2
Atom  19C    basis set group =>   3
Atom  20C    basis set group =>   3
Atom  21C    basis set group =>   3
Atom  22C    basis set group =>   3
Atom  23C    basis set group =>   3
Atom  24C    basis set group =>   3
Atom  25C    basis set group =>   3
Atom  26C    basis set group =>   3
Atom  27C    basis set group =>   3
Atom  28H    basis set group =>   2
Atom  29H    basis set group =>   2
Atom  30H    basis set group =>   2
Atom  31H    basis set group =>   2
Atom  32H    basis set group =>   2
Atom  33H    basis set group =>   2
Atom  34H    basis set group =>   2
Atom  35H    basis set group =>   2
Atom  36H    basis set group =>   2
Atom  37H    basis set group =>   2
---------------------------------
AUXILIARY/J BASIS SET INFORMATION
---------------------------------
There are 3 groups of distinct atoms

 Group   1 Type N   : 12s5p4d2f1g contracted to 6s4p3d1f1g pattern {711111/2111/211/2/1}
 Group   2 Type H   : 5s2p1d contracted to 3s1p1d pattern {311/2/1}
 Group   3 Type C   : 12s5p4d2f1g contracted to 6s4p3d1f1g pattern {711111/2111/211/2/1}

Atom   0N    basis set group =>   1
Atom   1H    basis set group =>   2
Atom   2C    basis set group =>   3
Atom   3C    basis set group =>   3
Atom   4N    basis set group =>   1
Atom   5C    basis set group =>   3
Atom   6H    basis set group =>   2
Atom   7C    basis set group =>   3
Atom   8N    basis set group =>   1
Atom   9C    basis set group =>   3
Atom  10C    basis set group =>   3
Atom  11C    basis set group =>   3
Atom  12N    basis set group =>   1
Atom  13C    basis set group =>   3
Atom  14C    basis set group =>   3
Atom  15C    basis set group =>   3
Atom  16C    basis set group =>   3
Atom  17H    basis set group =>   2
Atom  18H    basis set group =>   2
Atom  19C    basis set group =>   3
Atom  20C    basis set group =>   3
Atom  21C    basis set group =>   3
Atom  22C    basis set group =>   3
Atom  23C    basis set group =>   3
Atom  24C    basis set group =>   3
Atom  25C    basis set group =>   3
Atom  26C    basis set group =>   3
Atom  27C    basis set group =>   3
Atom  28H    basis set group =>   2
Atom  29H    basis set group =>   2
Atom  30H    basis set group =>   2
Atom  31H    basis set group =>   2
Atom  32H    basis set group =>   2
Atom  33H    basis set group =>   2
Atom  34H    basis set group =>   2
Atom  35H    basis set group =>   2
Atom  36H    basis set group =>   2
Atom  37H    basis set group =>   2


           ************************************************************
           *        Program running with 22 parallel MPI-processes    *
           *              working on a common directory               *
           ************************************************************
------------------------------------------------------------------------------
                             ORCA STARTUP CALCULATIONS
                           -- RI-GTO INTEGRALS CHOSEN --
------------------------------------------------------------------------------
------------------------------------------------------------------------------
                   ___                                                        
                  /   \      - P O W E R E D   B Y -                         
                 /     \                                                     
                 |  |  |   _    _      __       _____    __    __             
                 |  |  |  | |  | |    /  \     |  _  \  |  |  /  |          
                  \  \/   | |  | |   /    \    | | | |  |  | /  /          
                 / \  \   | |__| |  /  /\  \   | |_| |  |  |/  /          
                |  |  |   |  __  | /  /__\  \  |    /   |      \           
                |  |  |   | |  | | |   __   |  |    \   |  |\   \          
                \     /   | |  | | |  |  |  |  | |\  \  |  | \   \       
                 \___/    |_|  |_| |__|  |__|  |_| \__\ |__|  \__/        
                                                                              
                      - O R C A' S   B I G   F R I E N D -                    
                                      &                                       
                       - I N T E G R A L  F E E D E R -                       
                                                                              
 v1 FN, 2020, v2 2021, v3 2022-2024                                           
------------------------------------------------------------------------------


----------------------
SHARK INTEGRAL PACKAGE
----------------------

Number of atoms                             ...     38
Number of basis functions                   ...    406
Number of shells                            ...    186
Maximum angular momentum                    ...      2
Integral batch strategy                     ... SHARK/LIBINT Hybrid
RI-J (if used) integral strategy            ... SPLIT-RIJ (Revised 2003 algorithm where possible)
Printlevel                                  ...      1
Contraction scheme used                     ... SEGMENTED contraction
Prescreening option                         ... SCHWARTZ
   Thresh                                   ... 1.000e-10
   Tcut                                     ... 1.000e-11
   Tpresel                                  ... 1.000e-11 
Coulomb Range Separation                    ... NOT USED
Exchange Range Separation                   ... NOT USED
Multipole approximations                    ... NOT USED
Finite Nucleus Model                        ... NOT USED
CABS basis                                  ... NOT available
Auxiliary Coulomb fitting basis             ... AVAILABLE
   # of basis functions in Aux-J            ...   1330
   # of shells in Aux-J                     ...    430
   Maximum angular momentum in Aux-J        ...      4
Auxiliary J/K fitting basis                 ... NOT available
Auxiliary Correlation fitting basis         ... NOT available
Auxiliary 'external' fitting basis          ... NOT available

Checking pre-screening integrals            ... done (  0.0 sec) Dimension = 186
   => SHARK Basis and OBASIS are compatible. Storing Pre-screening
Shell pair information
Shell pair cut-off parameter TPreSel        ...   1.0e-11
Total number of shell pairs                 ...     17391
Shell pairs after pre-screening             ...     12613
Total number of primitive shell pairs       ...     64615
Primitive shell pairs kept                  ...     29425
          la=0 lb=0:   3702 shell pairs
          la=1 lb=0:   4684 shell pairs
          la=1 lb=1:   1487 shell pairs
          la=2 lb=0:   1550 shell pairs
          la=2 lb=1:   1028 shell pairs
          la=2 lb=2:    162 shell pairs

Checking whether 4 symmetric matrices of dimension 406 fit in memory
:Max Core in MB      =   3000.00
 MB in use           =     19.10
 MB left             =   2980.90
 MB needed           =      2.52
 Data fit in memory  = YES
Calculating RI/J V-Matrix + Cholesky decomp.... done (  0.2 sec)
Calculating Nuclear repulsion               ... done (  0.0 sec) ENN=   1868.106554108537 Eh

Diagonalization of the overlap matrix:
Smallest eigenvalue                        ... 3.885e-04
Time for diagonalization                   ...    0.052 sec
Threshold for overlap eigenvalues          ... 1.000e-07
Number of eigenvalues below threshold      ... 0
Time for construction of square roots      ...    0.025 sec
Total time needed                          ...    0.081 sec

-------------------
DFT GRID GENERATION
-------------------

General Integration Accuracy     IntAcc      ... 4.388
Radial Grid Type                 RadialGrid  ... OptM3 with GC (2021)
Angular Grid (max. ang.)         AngularGrid ... 4 (Lebedev-302)
Angular grid pruning method      GridPruning ... 4 (adaptive)
Weight generation scheme         WeightScheme... mBecke (2022)
Basis function cutoff            BFCut       ... 1.0000e-10
Integration weight cutoff        WCut        ... 1.0000e-14
Partially contracted basis set               ... off
Rotationally invariant grid construction     ... off
Angular grids for H and He will be reduced by one unit

Total number of grid points                  ...   187683
Total number of batches                      ...     2952
Average number of points per batch           ...       63
Average number of grid points per atom       ...     4939

--------------------
COSX GRID GENERATION
--------------------

GRIDX 1
-------
General Integration Accuracy     IntAcc      ... 3.816
Radial Grid Type                 RadialGrid  ... OptM3 with GC (2021)
Angular Grid (max. ang.)         AngularGrid ... 1 (Lebedev-50)
Angular grid pruning method      GridPruning ... 4 (adaptive)
Weight generation scheme         WeightScheme... mBecke (2022)
Basis function cutoff            BFCut       ... 1.0000e-10
Integration weight cutoff        WCut        ... 1.0000e-14
Partially contracted basis set               ... on
Rotationally invariant grid construction     ... off
Angular grids for H and He will be reduced by one unit

Total number of grid points                  ...    23848
Total number of batches                      ...      203
Average number of points per batch           ...      117
Average number of grid points per atom       ...      628
UseSFitting                                  ... on

GRIDX 2
-------
General Integration Accuracy     IntAcc      ... 4.020
Radial Grid Type                 RadialGrid  ... OptM3 with GC (2021)
Angular Grid (max. ang.)         AngularGrid ... 2 (Lebedev-110)
Angular grid pruning method      GridPruning ... 4 (adaptive)
Weight generation scheme         WeightScheme... mBecke (2022)
Basis function cutoff            BFCut       ... 1.0000e-10
Integration weight cutoff        WCut        ... 1.0000e-14
Partially contracted basis set               ... on
Rotationally invariant grid construction     ... off
Angular grids for H and He will be reduced by one unit

Total number of grid points                  ...    52397
Total number of batches                      ...      430
Average number of points per batch           ...      121
Average number of grid points per atom       ...     1379
UseSFitting                                  ... on

GRIDX 3
-------
General Integration Accuracy     IntAcc      ... 4.338
Radial Grid Type                 RadialGrid  ... OptM3 with GC (2021)
Angular Grid (max. ang.)         AngularGrid ... 3 (Lebedev-194)
Angular grid pruning method      GridPruning ... 4 (adaptive)
Weight generation scheme         WeightScheme... mBecke (2022)
Basis function cutoff            BFCut       ... 1.0000e-10
Integration weight cutoff        WCut        ... 1.0000e-14
Partially contracted basis set               ... on
Rotationally invariant grid construction     ... off
Angular grids for H and He will be reduced by one unit

Total number of grid points                  ...   114956
Total number of batches                      ...      923
Average number of points per batch           ...      124
Average number of grid points per atom       ...     3025
UseSFitting                                  ... on
Grids setup in   4.2 sec
Initializing property integral containers    ... done (  0.0 sec)

SHARK setup successfully completed in   5.0 seconds

Maximum memory used throughout the entire STARTUP-calculation: 49.6 MB


           ************************************************************
           *        Program running with 22 parallel MPI-processes    *
           *              working on a common directory               *
           ************************************************************
-------------------------------------------------------------------------------
                                 ORCA GUESS
                   Start orbitals & Density for SCF / CASSCF
-------------------------------------------------------------------------------

------------
SCF SETTINGS
------------
Hamiltonian:
 Density Functional     Method          .... DFT(GTOs)
 Exchange Functional    Exchange        .... B88
   X-Alpha parameter    XAlpha          ....  0.666667
   Becke's b parameter  XBeta           ....  0.004200
 Correlation Functional Correlation     .... LYP
 LDA part of GGA corr.  LDAOpt          .... VWN-5
 Gradients option       PostSCFGGA      .... off
 Hybrid DFT is turned on
   Fraction HF Exchange ScalHFX         ....  0.200000
   Scaling of DF-GGA-X  ScalDFX         ....  0.720000
   Scaling of DF-GGA-C  ScalDFC         ....  0.810000
   Scaling of DF-LDA-C  ScalLDAC        ....  1.000000
   Perturbative correction              ....  0.000000
   NL short-range parameter             ....  4.800000
 RI-approximation to the Coulomb term is turned on
   Number of AuxJ basis functions       .... 1330
   RIJ-COSX (HFX calculated with COS-X)).... on


General Settings:
 Integral files         IntName         .... /home/jannes/porphin/bench_tddft/nproc_022/tddft
 Hartree-Fock type      HFTyp           .... RHF
 Total Charge           Charge          ....    0
 Multiplicity           Mult            ....    1
 Number of Electrons    NEL             ....  162
 Basis Dimension        Dim             ....  406
 Nuclear Repulsion      ENuc            ....   1868.1065541085 Eh

Convergence Acceleration:
 AO-DIIS                CNVDIIS         .... on
   Start iteration      DIISMaxIt       ....    12
   Startup error        DIISStart       ....  0.200000
   # of expansion vecs  DIISMaxEq       ....     5
   Bias factor          DIISBfac        ....   1.050
   Max. coefficient     DIISMaxC        ....  10.000
 MO-DIIS                CNVKDIIS        .... off
 Trust-Rad. Augm. Hess. CNVTRAH         .... auto
   Auto Start mean grad. ratio tolernc. ....  1.125000
   Auto Start start iteration           ....    50
   Auto Start num. interpolation iter.  ....    10
   Max. Number of Micro iterations      ....    24
   Max. Number of Macro iterations      .... Maxiter - #DIIS iter
   Number of Davidson start vectors     ....     2
   Converg. threshold    (grad. norm)   ....   5.000e-05
   Grad. Scal. Fac. for Micro threshold ....   0.100
   Minimum threshold for Micro iter.    ....   1.000e-02
   NR start threshold (gradient norm)   ....   1.000e-04
   Initial trust radius                 ....   0.400
   Minimum AH scaling param. (alpha)    ....   1.000
   Maximum AH scaling param. (alpha)    .... 1000.000
   Quad. conv. algorithm                .... NR
   White noise on init. David. guess    .... on
   Maximum white noise                  ....   0.010
   Pseudo random numbers                .... off
   Inactive MOs                         .... canonical
   Orbital update algorithm             .... Taylor
   Preconditioner                       .... Diag
   Full preconditioner red. dimension   ....   250
 SOSCF                 CNVSOSCF           .... on
   Start iteration     SOSCFMaxIt         ....   150
   Startup grad/error  SOSCFStart         ....  0.003300
   Hessian update      SOSCFHessUp        .... L-BFGS
   Autom. constraints  SOSCFAutoConstrain .... off
 Level Shifting         CNVShift        .... on
   Level shift para.    LevelShift      ....    0.2500
   Turn off err/grad.   ShiftErr        ....    0.0010
 Zerner damping         CNVZerner       .... off
 Static damping         CNVDamp         .... on
   Fraction old density DampFac         ....    0.7000
   Max. Damping (<1)    DampMax         ....    0.9800
   Min. Damping (>=0)   DampMin         ....    0.0000
   Turn off err/grad.   DampErr         ....    0.1000

SCF Procedure:
 Maximum # iterations   MaxIter         ....   125
 SCF integral mode      SCFMode         .... Direct
   Integral package                     .... SHARK and LIBINT hybrid scheme
 Reset frequency        DirectResetFreq ....    20
 Integral Threshold     Thresh          ....  1.000e-10 Eh
 Primitive CutOff       TCut            ....  1.000e-11 Eh

Convergence Tolerance:
 Convergence Check Mode ConvCheckMode   .... Total+1el-Energy
 Convergence forced     ConvForced      .... 1
 Energy Change          TolE            ....  1.000e-06 Eh
 1-El. energy change                    ....  1.000e-03 Eh
 Orbital Gradient       TolG            ....  5.000e-05
 Orbital Rotation angle TolX            ....  5.000e-05
 DIIS Error             TolErr          ....  1.000e-06

------------------------------
INITIAL GUESS: MODEL POTENTIAL
------------------------------
Loading Hartree-Fock densities                     ... done
Calculating cut-offs                               ... done
Initializing the effective Hamiltonian             ... done
Setting up the integral package (SHARK)            ... done
Starting the Coulomb interaction                   ... done (   0.2 sec)
Making the grid                                    ... done (   0.6 sec)
Mapping shells                                     ... done
Starting the XC term evaluation                    ... done (   0.1 sec)
  promolecular density results
     # of electrons  =    161.997285713
     EX              =   -133.491826896
     EC              =     -5.542562788
     EX+EC           =   -139.034389684
Transforming the Hamiltonian                       ... done (   0.0 sec)
Diagonalizing the Hamiltonian                      ... done (   0.1 sec)
Back transforming the eigenvectors                 ... done (   0.0 sec)
Now organizing SCF variables                       ... done
                      ------------------
                      INITIAL GUESS DONE (   1.0 sec)
                      ------------------
             **** ENERGY FILE WAS UPDATED (/home/jannes/porphin/bench_tddft/nproc_022/tddft.en.tmp) ****
Finished Guess after   1.4 sec
Maximum memory used throughout the entire GUESS-calculation: 23.6 MB


           ************************************************************
           *        Program running with 22 parallel MPI-processes    *
           *              working on a common directory               *
           ************************************************************

-------------------------------------------------------------------------------------------
                                      ORCA LEAN-SCF
                              memory conserving SCF solver
-------------------------------------------------------------------------------------------

----------------------------------------D-I-I-S--------------------------------------------
Iteration    Energy (Eh)           Delta-E    RMSDP     MaxDP     DIISErr   Damp  Time(sec)
-------------------------------------------------------------------------------------------
               ***  Starting incremental Fock matrix formation  ***
    1    -987.7788941793194226     0.00e+00  1.13e-02  8.60e-02  2.00e-01  0.700   3.9
    2    -987.9850122543314228    -2.06e-01  7.87e-03  5.02e-02  9.25e-02  0.700   2.3
                               ***Turning on AO-DIIS***
    3    -988.0759873090503334    -9.10e-02  3.73e-03  1.79e-02  3.33e-02  0.700   2.0
    4    -988.1294342531525672    -5.34e-02  7.23e-03  4.09e-02  1.96e-02  0.000   1.8
    5    -988.2430022752475907    -1.14e-01  8.73e-04  3.88e-03  4.64e-03  0.000   1.8
                              *** Initializing SOSCF ***
---------------------------------------S-O-S-C-F--------------------------------------
Iteration    Energy (Eh)           Delta-E    RMSDP     MaxDP     MaxGrad    Time(sec)
--------------------------------------------------------------------------------------
    6    -988.2436587237586991    -6.56e-04  3.34e-04  1.95e-03  2.42e-03     1.7
               *** Restarting incremental Fock matrix formation ***
    7    -988.2438853841874788    -2.27e-04  1.80e-04  8.18e-04  2.34e-04     3.5
    8    -988.2438862107640034    -8.27e-07  7.20e-05  4.75e-04  2.56e-04     2.2
                 **** Energy Check signals convergence ****

               *****************************************************
               *                     SUCCESS                       *
               *           SCF CONVERGED AFTER   8 CYCLES          *
               *****************************************************

Recomputing exchange energy using gridx3       ... done (    5.660 sec)
Old exchange energy                            :    -27.018509507 Eh
New exchange energy                            :    -27.018651388 Eh
Exchange energy change after final integration :     -0.000141881 Eh
Total energy after final integration           :   -988.244030962 Eh
             **** ENERGY FILE WAS UPDATED (/home/jannes/porphin/bench_tddft/nproc_022/tddft.en.tmp) ****

----------------
TOTAL SCF ENERGY
----------------

Total Energy       :       -988.24403096217486 Eh          -26891.48722 eV

Components:
Nuclear Repulsion  :       1868.10655410853747 Eh           50833.76368 eV
Electronic Energy  :      -2856.35044318922428 Eh          -77725.24703 eV
One Electron Energy:      -5049.64329311963138 Eh         -137407.77968 eV
Two Electron Energy:       2193.29284993040710 Eh           59682.53265 eV

Virial components:
Potential Energy   :      -1967.49229154884779 Eh          -53538.18708 eV
Kinetic Energy     :        979.24826058667293 Eh           26646.69986 eV
Virial Ratio       :          2.00918640424249

DFT components:
N(Alpha)           :       80.999847545393 electrons
N(Beta)            :       80.999847545393 electrons
N(Total)           :      161.999695090787 electrons
E(X)               :     -107.390021397829 Eh       
E(C)               :       -6.520798936968 Eh       
E(XC)              :     -113.910820334798 Eh       

---------------
SCF CONVERGENCE
---------------

  Last Energy change         ...    8.2658e-07  Tolerance :   1.0000e-06
  Last MAX-Density change    ...    4.7520e-04  Tolerance :   1.0000e-05
  Last RMS-Density change    ...    7.1953e-05  Tolerance :   1.0000e-06
  Last DIIS Error            ...    2.4162e-03  Tolerance :   1.0000e-06
  Last Orbital Gradient      ...    2.5629e-04  Tolerance :   5.0000e-05
  Last Orbital Rotation      ...    6.2560e-04  Tolerance :   5.0000e-05


----------------
ORBITAL ENERGIES
----------------

  NO   OCC          E(Eh)            E(eV) 
   0   2.0000     -14.360891      -390.7797 
   1   2.0000     -14.360851      -390.7786 
   2   2.0000     -14.291479      -388.8909 
   3   2.0000     -14.291343      -388.8872 
   4   2.0000     -10.228380      -278.3284 
   5   2.0000     -10.228330      -278.3270 
   6   2.0000     -10.228254      -278.3250 
   7   2.0000     -10.228198      -278.3234 
   8   2.0000     -10.207378      -277.7569 
   9   2.0000     -10.207351      -277.7561 
  10   2.0000     -10.207324      -277.7554 
  11   2.0000     -10.207297      -277.7547 
  12   2.0000     -10.193085      -277.3679 
  13   2.0000     -10.193020      -277.3662 
  14   2.0000     -10.192955      -277.3644 
  15   2.0000     -10.192923      -277.3635 
  16   2.0000     -10.192878      -277.3623 
  17   2.0000     -10.192760      -277.3591 
  18   2.0000     -10.192456      -277.3508 
  19   2.0000     -10.192342      -277.3477 
  20   2.0000     -10.176976      -276.9296 
  21   2.0000     -10.176921      -276.9281 
  22   2.0000     -10.176338      -276.9122 
  23   2.0000     -10.176293      -276.9110 
  24   2.0000      -0.986145       -26.8344 
  25   2.0000      -0.984699       -26.7950 
  26   2.0000      -0.937732       -25.5170 
  27   2.0000      -0.935288       -25.4505 
  28   2.0000      -0.814260       -22.1571 
  29   2.0000      -0.793539       -21.5933 
  30   2.0000      -0.788087       -21.4449 
  31   2.0000      -0.786971       -21.4146 
  32   2.0000      -0.780994       -21.2519 
  33   2.0000      -0.748982       -20.3808 
  34   2.0000      -0.748646       -20.3717 
  35   2.0000      -0.738671       -20.1003 
  36   2.0000      -0.713895       -19.4261 
  37   2.0000      -0.657605       -17.8943 
  38   2.0000      -0.649811       -17.6822 
  39   2.0000      -0.600197       -16.3322 
  40   2.0000      -0.596166       -16.2225 
  41   2.0000      -0.592693       -16.1280 
  42   2.0000      -0.585766       -15.9395 
  43   2.0000      -0.576830       -15.6963 
  44   2.0000      -0.572710       -15.5842 
  45   2.0000      -0.554982       -15.1018 
  46   2.0000      -0.545467       -14.8429 
  47   2.0000      -0.515256       -14.0208 
  48   2.0000      -0.506182       -13.7739 
  49   2.0000      -0.500183       -13.6107 
  50   2.0000      -0.494340       -13.4517 
  51   2.0000      -0.461618       -12.5613 
  52   2.0000      -0.447720       -12.1831 
  53   2.0000      -0.445817       -12.1313 
  54   2.0000      -0.442230       -12.0337 
  55   2.0000      -0.439728       -11.9656 
  56   2.0000      -0.434861       -11.8332 
  57   2.0000      -0.429788       -11.6951 
  58   2.0000      -0.428296       -11.6545 
  59   2.0000      -0.418437       -11.3862 
  60   2.0000      -0.414025       -11.2662 
  61   2.0000      -0.404833       -11.0161 
  62   2.0000      -0.397566       -10.8183 
  63   2.0000      -0.392023       -10.6675 
  64   2.0000      -0.384433       -10.4609 
  65   2.0000      -0.380672       -10.3586 
  66   2.0000      -0.380530       -10.3548 
  67   2.0000      -0.375571       -10.2198 
  68   2.0000      -0.366451        -9.9716 
  69   2.0000      -0.366332        -9.9684 
  70   2.0000      -0.330000        -8.9798 
  71   2.0000      -0.290536        -7.9059 
  72   2.0000      -0.281973        -7.6729 
  73   2.0000      -0.271790        -7.3958 
  74   2.0000      -0.269792        -7.3414 
  75   2.0000      -0.265618        -7.2278 
  76   2.0000      -0.264924        -7.2089 
  77   2.0000      -0.244145        -6.6435 
  78   2.0000      -0.239115        -6.5066 
  79   2.0000      -0.200132        -5.4459 
  80   2.0000      -0.194812        -5.3011 
  81   0.0000      -0.085712        -2.3323 
  82   0.0000      -0.085562        -2.3283 
  83   0.0000      -0.025143        -0.6842 
  84   0.0000       0.045730         1.2444 
  85   0.0000       0.061760         1.6806 
  86   0.0000       0.063484         1.7275 
  87   0.0000       0.065964         1.7950 
  88   0.0000       0.075052         2.0423 
  89   0.0000       0.076129         2.0716 
  90   0.0000       0.079642         2.1672 
  91   0.0000       0.093244         2.5373 
*Only the first 10 virtual orbitals were printed.

                    ********************************
                    * MULLIKEN POPULATION ANALYSIS *
                    ********************************

-----------------------
MULLIKEN ATOMIC CHARGES
-----------------------
   0 N :   -0.020294
   1 H :   -0.037660
   2 C :    0.006236
   3 C :    0.005564
   4 N :   -0.219283
   5 C :    0.005279
   6 H :   -0.037967
   7 C :    0.100376
   8 N :   -0.218359
   9 C :    0.004084
  10 C :   -0.032448
  11 C :    0.100305
  12 N :   -0.020051
  13 C :    0.005667
  14 C :    0.070321
  15 C :    0.070801
  16 C :    0.100678
  17 H :    0.137598
  18 H :    0.137575
  19 C :    0.100612
  20 C :    0.005827
  21 C :   -0.032780
  22 C :   -0.032837
  23 C :    0.005846
  24 C :    0.070381
  25 C :    0.004712
  26 C :   -0.032241
  27 C :    0.070471
  28 H :   -0.026634
  29 H :   -0.026731
  30 H :   -0.034263
  31 H :   -0.034296
  32 H :   -0.027092
  33 H :   -0.026506
  34 H :   -0.033887
  35 H :   -0.037653
  36 H :   -0.033915
  37 H :   -0.037436
Sum of atomic charges:   -0.0000000

--------------------------------
MULLIKEN REDUCED ORBITAL CHARGES
--------------------------------
  0 N s       :     3.346325  s :     3.346325
      pz      :     1.517358  p :     3.649236
      px      :     1.042941
      py      :     1.088936
      dz2     :     0.002186  d :     0.024733
      dxz     :     0.002093
      dyz     :     0.005156
      dx2y2   :     0.007219
      dxy     :     0.008079

  1 H s       :     1.013856  s :     1.013856
      pz      :     0.005105  p :     0.023804
      px      :     0.008841
      py      :     0.009857

  2 C s       :     3.220272  s :     3.220272
      pz      :     1.018149  p :     2.738200
      px      :     0.833661
      py      :     0.886390
      dz2     :     0.002875  d :     0.035292
      dxz     :     0.003523
      dyz     :     0.006341
      dx2y2   :     0.010361
      dxy     :     0.012192

  3 C s       :     3.227503  s :     3.227503
      pz      :     1.012026  p :     2.731679
      px      :     0.892978
      py      :     0.826675
      dz2     :     0.002725  d :     0.035253
      dxz     :     0.006403
      dyz     :     0.003127
      dx2y2   :     0.010688
      dxy     :     0.012311

  4 N s       :     3.505515  s :     3.505515
      pz      :     1.265236  p :     3.686113
      px      :     1.003934
      py      :     1.416943
      dz2     :     0.003015  d :     0.027655
      dxz     :     0.004118
      dyz     :     0.004413
      dx2y2   :     0.004372
      dxy     :     0.011737

  5 C s       :     3.227309  s :     3.227309
      pz      :     1.012823  p :     2.732145
      px      :     0.860802
      py      :     0.858519
      dz2     :     0.002758  d :     0.035268
      dxz     :     0.006104
      dyz     :     0.003395
      dx2y2   :     0.011642
      dxy     :     0.011369

  6 H s       :     1.014162  s :     1.014162
      pz      :     0.005155  p :     0.023805
      px      :     0.006960
      py      :     0.011691

  7 C s       :     3.075642  s :     3.075642
      pz      :     0.982043  p :     2.761164
      px      :     0.932492
      py      :     0.846628
      dz2     :     0.004679  d :     0.062818
      dxz     :     0.009205
      dyz     :     0.012075
      dx2y2   :     0.015619
      dxy     :     0.021240

  8 N s       :     3.504487  s :     3.504487
      pz      :     1.266373  p :     3.686182
      px      :     1.003508
      py      :     1.416301
      dz2     :     0.003033  d :     0.027691
      dxz     :     0.004178
      dyz     :     0.004404
      dx2y2   :     0.004375
      dxy     :     0.011701

  9 C s       :     3.228000  s :     3.228000
      pz      :     1.012268  p :     2.732698
      px      :     0.860784
      py      :     0.859646
      dz2     :     0.002768  d :     0.035218
      dxz     :     0.006111
      dyz     :     0.003435
      dx2y2   :     0.011596
      dxy     :     0.011307

 10 C s       :     3.239841  s :     3.239841
      pz      :     1.026085  p :     2.759092
      px      :     0.868416
      py      :     0.864591
      dz2     :     0.002692  d :     0.033515
      dxz     :     0.004359
      dyz     :     0.005105
      dx2y2   :     0.009821
      dxy     :     0.011537

 11 C s       :     3.076271  s :     3.076271
      pz      :     0.981972  p :     2.760647
      px      :     0.928876
      py      :     0.849799
      dz2     :     0.004724  d :     0.062778
      dxz     :     0.008510
      dyz     :     0.012730
      dx2y2   :     0.017280
      dxy     :     0.019534

 12 N s       :     3.346274  s :     3.346274
      pz      :     1.517959  p :     3.649032
      px      :     1.042568
      py      :     1.088505
      dz2     :     0.002188  d :     0.024745
      dxz     :     0.002074
      dyz     :     0.005171
      dx2y2   :     0.007222
      dxy     :     0.008090

 13 C s       :     3.220300  s :     3.220300
      pz      :     1.017967  p :     2.738738
      px      :     0.860821
      py      :     0.859950
      dz2     :     0.002834  d :     0.035295
      dxz     :     0.003857
      dyz     :     0.006045
      dx2y2   :     0.011476
      dxy     :     0.011083

 14 C s       :     3.082840  s :     3.082840
      pz      :     0.964697  p :     2.781770
      px      :     0.883093
      py      :     0.933980
      dz2     :     0.004416  d :     0.065069
      dxz     :     0.011126
      dyz     :     0.008782
      dx2y2   :     0.022058
      dxy     :     0.018687

 15 C s       :     3.082655  s :     3.082655
      pz      :     0.964762  p :     2.781526
      px      :     0.894294
      py      :     0.922470
      dz2     :     0.004365  d :     0.065018
      dxz     :     0.011930
      dyz     :     0.007973
      dx2y2   :     0.021983
      dxy     :     0.018767

 16 C s       :     3.075796  s :     3.075796
      pz      :     0.981783  p :     2.760697
      px      :     0.929441
      py      :     0.849472
      dz2     :     0.004715  d :     0.062828
      dxz     :     0.008465
      dyz     :     0.012825
      dx2y2   :     0.017295
      dxy     :     0.019529

 17 H s       :     0.814936  s :     0.814936
      pz      :     0.009962  p :     0.047467
      px      :     0.030058
      py      :     0.007447

 18 H s       :     0.814965  s :     0.814965
      pz      :     0.009930  p :     0.047460
      px      :     0.030074
      py      :     0.007455

 19 C s       :     3.076016  s :     3.076016
      pz      :     0.981300  p :     2.760566
      px      :     0.931907
      py      :     0.847359
      dz2     :     0.004725  d :     0.062806
      dxz     :     0.009215
      dyz     :     0.012043
      dx2y2   :     0.015608
      dxy     :     0.021214

 20 C s       :     3.220127  s :     3.220127
      pz      :     1.017586  p :     2.738727
      px      :     0.861702
      py      :     0.859438
      dz2     :     0.002832  d :     0.035320
      dxz     :     0.003851
      dyz     :     0.006066
      dx2y2   :     0.011470
      dxy     :     0.011101

 21 C s       :     3.239731  s :     3.239731
      pz      :     1.026407  p :     2.759553
      px      :     0.883535
      py      :     0.849610
      dz2     :     0.002640  d :     0.033496
      dxz     :     0.005329
      dyz     :     0.004151
      dx2y2   :     0.009473
      dxy     :     0.011902

 22 C s       :     3.239572  s :     3.239572
      pz      :     1.025395  p :     2.759817
      px      :     0.868231
      py      :     0.866191
      dz2     :     0.002725  d :     0.033448
      dxz     :     0.004362
      dyz     :     0.005094
      dx2y2   :     0.009797
      dxy     :     0.011471

 23 C s       :     3.220289  s :     3.220289
      pz      :     1.018614  p :     2.738544
      px      :     0.834304
      py      :     0.885625
      dz2     :     0.002858  d :     0.035321
      dxz     :     0.003523
      dyz     :     0.006357
      dx2y2   :     0.010362
      dxy     :     0.012221

 24 C s       :     3.082531  s :     3.082531
      pz      :     0.964205  p :     2.781996
      px      :     0.894380
      py      :     0.923411
      dz2     :     0.004449  d :     0.065091
      dxz     :     0.011991
      dyz     :     0.007963
      dx2y2   :     0.021973
      dxy     :     0.018715

 25 C s       :     3.227956  s :     3.227956
      pz      :     1.011011  p :     2.732113
      px      :     0.893463
      py      :     0.827638
      dz2     :     0.002728  d :     0.035220
      dxz     :     0.006426
      dyz     :     0.003178
      dx2y2   :     0.010637
      dxy     :     0.012251

 26 C s       :     3.239806  s :     3.239806
      pz      :     1.024489  p :     2.758981
      px      :     0.884041
      py      :     0.850451
      dz2     :     0.002654  d :     0.033454
      dxz     :     0.005358
      dyz     :     0.004144
      dx2y2   :     0.009434
      dxy     :     0.011864

 27 C s       :     3.082512  s :     3.082512
      pz      :     0.964934  p :     2.781956
      px      :     0.882987
      py      :     0.934035
      dz2     :     0.004504  d :     0.065061
      dxz     :     0.011152
      dyz     :     0.008762
      dx2y2   :     0.022000
      dxy     :     0.018643

 28 H s       :     1.002833  s :     1.002833
      pz      :     0.005082  p :     0.023802
      px      :     0.011923
      py      :     0.006796

 29 H s       :     1.002915  s :     1.002915
      pz      :     0.005140  p :     0.023817
      px      :     0.009971
      py      :     0.008706

 30 H s       :     1.010141  s :     1.010141
      pz      :     0.005285  p :     0.024122
      px      :     0.008274
      py      :     0.010563

 31 H s       :     1.010174  s :     1.010174
      pz      :     0.005236  p :     0.024121
      px      :     0.010195
      py      :     0.008690

 32 H s       :     1.003269  s :     1.003269
      pz      :     0.005097  p :     0.023824
      px      :     0.011908
      py      :     0.006818

 33 H s       :     1.002703  s :     1.002703
      pz      :     0.005135  p :     0.023803
      px      :     0.009995
      py      :     0.008673

 34 H s       :     1.009794  s :     1.009794
      pz      :     0.005295  p :     0.024092
      px      :     0.008256
      py      :     0.010541

 35 H s       :     1.013871  s :     1.013871
      pz      :     0.005197  p :     0.023782
      px      :     0.006931
      py      :     0.011654

 36 H s       :     1.009821  s :     1.009821
      pz      :     0.005246  p :     0.024094
      px      :     0.010178
      py      :     0.008670

 37 H s       :     1.013655  s :     1.013655
      pz      :     0.005135  p :     0.023781
      px      :     0.008832
      py      :     0.009814



                     *******************************
                     * LOEWDIN POPULATION ANALYSIS *
                     *******************************

----------------------
LOEWDIN ATOMIC CHARGES
----------------------
   0 N :    0.109078
   1 H :    0.020245
   2 C :   -0.027264
   3 C :   -0.036163
   4 N :   -0.175484
   5 C :   -0.036155
   6 H :    0.020159
   7 C :    0.025557
   8 N :   -0.175346
   9 C :   -0.036539
  10 C :   -0.041216
  11 C :    0.025545
  12 N :    0.109264
  13 C :   -0.027552
  14 C :   -0.003376
  15 C :   -0.003336
  16 C :    0.025850
  17 H :    0.069840
  18 H :    0.069843
  19 C :    0.025753
  20 C :   -0.027281
  21 C :   -0.041706
  22 C :   -0.041454
  23 C :   -0.027392
  24 C :   -0.003533
  25 C :   -0.036307
  26 C :   -0.040988
  27 C :   -0.003678
  28 H :    0.027050
  29 H :    0.026952
  30 H :    0.033750
  31 H :    0.033770
  32 H :    0.026870
  33 H :    0.027054
  34 H :    0.033847
  35 H :    0.020248
  36 H :    0.033819
  37 H :    0.020275

-------------------------------
LOEWDIN REDUCED ORBITAL CHARGES
-------------------------------
  0 N s       :     3.021292  s :     3.021292
      pz      :     1.469806  p :     3.808151
      px      :     1.178490
      py      :     1.159855
      dz2     :     0.004166  d :     0.061479
      dxz     :     0.003349
      dyz     :     0.010305
      dx2y2   :     0.020110
      dxy     :     0.023549

  1 H s       :     0.908471  s :     0.908471
      pz      :     0.015921  p :     0.071284
      px      :     0.025693
      py      :     0.029670

  2 C s       :     2.857938  s :     2.857938
      pz      :     0.997522  p :     3.077094
      px      :     1.023626
      py      :     1.055946
      dz2     :     0.006792  d :     0.092231
      dxz     :     0.006566
      dyz     :     0.013033
      dx2y2   :     0.031519
      dxy     :     0.034321

  3 C s       :     2.866229  s :     2.866229
      pz      :     0.990259  p :     3.077216
      px      :     1.065950
      py      :     1.021007
      dz2     :     0.006712  d :     0.092718
      dxz     :     0.013089
      dyz     :     0.005965
      dx2y2   :     0.032466
      dxy     :     0.034485

  4 N s       :     3.227239  s :     3.227239
      pz      :     1.268813  p :     3.890516
      px      :     1.121925
      py      :     1.499779
      dz2     :     0.006269  d :     0.057729
      dxz     :     0.008561
      dyz     :     0.005047
      dx2y2   :     0.009938
      dxy     :     0.027914

  5 C s       :     2.866111  s :     2.866111
      pz      :     0.990253  p :     3.077305
      px      :     1.064710
      py      :     1.022342
      dz2     :     0.006809  d :     0.092739
      dxz     :     0.012017
      dyz     :     0.006953
      dx2y2   :     0.035685
      dxy     :     0.031275

  6 H s       :     0.908559  s :     0.908559
      pz      :     0.016055  p :     0.071282
      px      :     0.020726
      py      :     0.034501

  7 C s       :     2.827413  s :     2.827413
      pz      :     0.974465  p :     2.996006
      px      :     1.005005
      py      :     1.016536
      dz2     :     0.010417  d :     0.151024
      dxz     :     0.019044
      dyz     :     0.024547
      dx2y2   :     0.040547
      dxy     :     0.056470

  8 N s       :     3.226601  s :     3.226601
      pz      :     1.270406  p :     3.890914
      px      :     1.122066
      py      :     1.498442
      dz2     :     0.006261  d :     0.057831
      dxz     :     0.008701
      dyz     :     0.005072
      dx2y2   :     0.009960
      dxy     :     0.027838

  9 C s       :     2.866495  s :     2.866495
      pz      :     0.990775  p :     3.077444
      px      :     1.064317
      py      :     1.022351
      dz2     :     0.006816  d :     0.092600
      dxz     :     0.012081
      dyz     :     0.007101
      dx2y2   :     0.035537
      dxy     :     0.031065

 10 C s       :     2.851411  s :     2.851411
      pz      :     0.999154  p :     3.098160
      px      :     1.056017
      py      :     1.042990
      dz2     :     0.006818  d :     0.091645
      dxz     :     0.009036
      dyz     :     0.010773
      dx2y2   :     0.029051
      dxy     :     0.035967

 11 C s       :     2.827652  s :     2.827652
      pz      :     0.974366  p :     2.995900
      px      :     1.023762
      py      :     0.997773
      dz2     :     0.010504  d :     0.150903
      dxz     :     0.017347
      dyz     :     0.026185
      dx2y2   :     0.046379
      dxy     :     0.050488

 12 N s       :     3.021294  s :     3.021294
      pz      :     1.470102  p :     3.807940
      px      :     1.178200
      py      :     1.159638
      dz2     :     0.004168  d :     0.061502
      dxz     :     0.003294
      dyz     :     0.010333
      dx2y2   :     0.020122
      dxy     :     0.023584

 13 C s       :     2.857867  s :     2.857867
      pz      :     0.997852  p :     3.077455
      px      :     1.023343
      py      :     1.056261
      dz2     :     0.006690  d :     0.092230
      dxz     :     0.007655
      dyz     :     0.012011
      dx2y2   :     0.034928
      dxy     :     0.030946

 14 C s       :     2.842501  s :     2.842501
      pz      :     0.951778  p :     3.005034
      px      :     1.031893
      py      :     1.021363
      dz2     :     0.010056  d :     0.155842
      dxz     :     0.021837
      dyz     :     0.017560
      dx2y2   :     0.055984
      dxy     :     0.050405

 15 C s       :     2.842492  s :     2.842492
      pz      :     0.952293  p :     3.005133
      px      :     1.025711
      py      :     1.027129
      dz2     :     0.009964  d :     0.155712
      dxz     :     0.023475
      dyz     :     0.015872
      dx2y2   :     0.057252
      dxy     :     0.049148

 16 C s       :     2.827456  s :     2.827456
      pz      :     0.973705  p :     2.995650
      px      :     1.023743
      py      :     0.998202
      dz2     :     0.010503  d :     0.151044
      dxz     :     0.017228
      dyz     :     0.026387
      dx2y2   :     0.046449
      dxy     :     0.050477

 17 H s       :     0.791151  s :     0.791151
      pz      :     0.033127  p :     0.139009
      px      :     0.085411
      py      :     0.020471

 18 H s       :     0.791174  s :     0.791174
      pz      :     0.033027  p :     0.138983
      px      :     0.085457
      py      :     0.020498

 19 C s       :     2.827626  s :     2.827626
      pz      :     0.974539  p :     2.995650
      px      :     1.004469
      py      :     1.016642
      dz2     :     0.010490  d :     0.150970
      dxz     :     0.019093
      dyz     :     0.024527
      dx2y2   :     0.040487
      dxy     :     0.056373

 20 C s       :     2.857749  s :     2.857749
      pz      :     0.997528  p :     3.077226
      px      :     1.023364
      py      :     1.056334
      dz2     :     0.006672  d :     0.092306
      dxz     :     0.007638
      dyz     :     0.012076
      dx2y2   :     0.034912
      dxy     :     0.031008

 21 C s       :     2.851399  s :     2.851399
      pz      :     0.999769  p :     3.098691
      px      :     1.057243
      py      :     1.041679
      dz2     :     0.006719  d :     0.091616
      dxz     :     0.011192
      dyz     :     0.008619
      dx2y2   :     0.028375
      dxy     :     0.036710

 22 C s       :     2.851831  s :     2.851831
      pz      :     0.999694  p :     3.098187
      px      :     1.055544
      py      :     1.042949
      dz2     :     0.006864  d :     0.091436
      dxz     :     0.009099
      dyz     :     0.010789
      dx2y2   :     0.028944
      dxy     :     0.035740

 23 C s       :     2.857664  s :     2.857664
      pz      :     0.997706  p :     3.077390
      px      :     1.023943
      py      :     1.055740
      dz2     :     0.006754  d :     0.092338
      dxz     :     0.006534
      dyz     :     0.013075
      dx2y2   :     0.031566
      dxy     :     0.034410

 24 C s       :     2.842387  s :     2.842387
      pz      :     0.952484  p :     3.005238
      px      :     1.025717
      py      :     1.027037
      dz2     :     0.010107  d :     0.155907
      dxz     :     0.023666
      dyz     :     0.015960
      dx2y2   :     0.057230
      dxy     :     0.048944

 25 C s       :     2.866508  s :     2.866508
      pz      :     0.990568  p :     3.077190
      px      :     1.065664
      py      :     1.020958
      dz2     :     0.006695  d :     0.092609
      dxz     :     0.013190
      dyz     :     0.006139
      dx2y2   :     0.032323
      dxy     :     0.034262

 26 C s       :     2.851903  s :     2.851903
      pz      :     0.998996  p :     3.097648
      px      :     1.057295
      py      :     1.041357
      dz2     :     0.006729  d :     0.091437
      dxz     :     0.011291
      dyz     :     0.008629
      dx2y2   :     0.028244
      dxy     :     0.036543

 27 C s       :     2.842397  s :     2.842397
      pz      :     0.952646  p :     3.005447
      px      :     1.031745
      py      :     1.021056
      dz2     :     0.010201  d :     0.155834
      dxz     :     0.021952
      dyz     :     0.017622
      dx2y2   :     0.055816
      dxy     :     0.050242

 28 H s       :     0.902226  s :     0.902226
      pz      :     0.015814  p :     0.070724
      px      :     0.034390
      py      :     0.020521

 29 H s       :     0.902254  s :     0.902254
      pz      :     0.015984  p :     0.070794
      px      :     0.029207
      py      :     0.025603

 30 H s       :     0.896171  s :     0.896171
      pz      :     0.016988  p :     0.070078
      px      :     0.023608
      py      :     0.029482

 31 H s       :     0.896162  s :     0.896162
      pz      :     0.016845  p :     0.070068
      px      :     0.028934
      py      :     0.024289

 32 H s       :     0.902331  s :     0.902331
      pz      :     0.015870  p :     0.070799
      px      :     0.034333
      py      :     0.020596

 33 H s       :     0.902206  s :     0.902206
      pz      :     0.015957  p :     0.070740
      px      :     0.029270
      py      :     0.025513

 34 H s       :     0.896157  s :     0.896157
      pz      :     0.016984  p :     0.069997
      px      :     0.023550
      py      :     0.029463

 35 H s       :     0.908550  s :     0.908550
      pz      :     0.016160  p :     0.071202
      px      :     0.020659
      py      :     0.034383

 36 H s       :     0.896176  s :     0.896176
      pz      :     0.016848  p :     0.070005
      px      :     0.028915
      py      :     0.024243

 37 H s       :     0.908518  s :     0.908518
      pz      :     0.015996  p :     0.071207
      px      :     0.025677
      py      :     0.029534



                      *****************************
                      * MAYER POPULATION ANALYSIS *
                      *****************************

  NA   - Mulliken gross atomic population
  ZA   - Total nuclear charge
  QA   - Mulliken gross atomic charge
  VA   - Mayer's total valence
  BVA  - Mayer's bonded valence
  FA   - Mayer's free valence

  ATOM       NA         ZA         QA         VA         BVA        FA
  0 N      7.0203     7.0000    -0.0203     3.4415     3.4415    -0.0000
  1 H      1.0377     1.0000    -0.0377     0.9876     0.9876    -0.0000
  2 C      5.9938     6.0000     0.0062     3.7463     3.7463    -0.0000
  3 C      5.9944     6.0000     0.0056     3.7233     3.7233    -0.0000
  4 N      7.2193     7.0000    -0.2193     3.0948     3.0948    -0.0000
  5 C      5.9947     6.0000     0.0053     3.7226     3.7226    -0.0000
  6 H      1.0380     1.0000    -0.0380     0.9875     0.9875     0.0000
  7 C      5.8996     6.0000     0.1004     3.9581     3.9581    -0.0000
  8 N      7.2184     7.0000    -0.2184     3.0950     3.0950     0.0000
  9 C      5.9959     6.0000     0.0041     3.7236     3.7236     0.0000
 10 C      6.0324     6.0000    -0.0324     3.6749     3.6749     0.0000
 11 C      5.8997     6.0000     0.1003     3.9574     3.9574    -0.0000
 12 N      7.0201     7.0000    -0.0201     3.4418     3.4418    -0.0000
 13 C      5.9943     6.0000     0.0057     3.7458     3.7458    -0.0000
 14 C      5.9297     6.0000     0.0703     4.0084     4.0084    -0.0000
 15 C      5.9292     6.0000     0.0708     4.0090     4.0090    -0.0000
 16 C      5.8993     6.0000     0.1007     3.9588     3.9588    -0.0000
 17 H      0.8624     1.0000     0.1376     1.0777     1.0777    -0.0000
 18 H      0.8624     1.0000     0.1376     1.0776     1.0776    -0.0000
 19 C      5.8994     6.0000     0.1006     3.9579     3.9579     0.0000
 20 C      5.9942     6.0000     0.0058     3.7465     3.7465    -0.0000
 21 C      6.0328     6.0000    -0.0328     3.6747     3.6747    -0.0000
 22 C      6.0328     6.0000    -0.0328     3.6756     3.6756    -0.0000
 23 C      5.9942     6.0000     0.0058     3.7472     3.7472     0.0000
 24 C      5.9296     6.0000     0.0704     4.0091     4.0091     0.0000
 25 C      5.9953     6.0000     0.0047     3.7235     3.7235     0.0000
 26 C      6.0322     6.0000    -0.0322     3.6753     3.6753    -0.0000
 27 C      5.9295     6.0000     0.0705     4.0087     4.0087    -0.0000
 28 H      1.0266     1.0000    -0.0266     0.9909     0.9909     0.0000
 29 H      1.0267     1.0000    -0.0267     0.9909     0.9909    -0.0000
 30 H      1.0343     1.0000    -0.0343     0.9930     0.9930    -0.0000
 31 H      1.0343     1.0000    -0.0343     0.9930     0.9930     0.0000
 32 H      1.0271     1.0000    -0.0271     0.9909     0.9909     0.0000
 33 H      1.0265     1.0000    -0.0265     0.9909     0.9909     0.0000
 34 H      1.0339     1.0000    -0.0339     0.9930     0.9930    -0.0000
 35 H      1.0377     1.0000    -0.0377     0.9876     0.9876     0.0000
 36 H      1.0339     1.0000    -0.0339     0.9930     0.9930    -0.0000
 37 H      1.0374     1.0000    -0.0374     0.9876     0.9876    -0.0000

  Mayer bond orders larger than 0.100000
B(  0-N , 16-C ) :   1.2538 B(  0-N , 17-H ) :   0.8764 B(  0-N , 19-C ) :   1.2534 
B(  1-H ,  5-C ) :   1.0069 B(  2-C , 19-C ) :   1.1565 B(  2-C , 20-C ) :   1.4993 
B(  2-C , 28-H ) :   1.0098 B(  3-C ,  5-C ) :   1.5761 B(  3-C ,  6-H ) :   1.0070 
B(  3-C , 14-C ) :   1.0634 B(  4-N , 14-C ) :   1.4270 B(  4-N , 15-C ) :   1.4241 
B(  5-C , 15-C ) :   1.0635 B(  7-C , 10-C ) :   1.3131 B(  7-C , 12-N ) :   1.2540 
B(  7-C , 23-C ) :   1.1587 B(  8-N , 24-C ) :   1.4268 B(  8-N , 27-C ) :   1.4246 
B(  9-C , 24-C ) :   1.0643 B(  9-C , 25-C ) :   1.5752 B(  9-C , 37-H ) :   1.0068 
B( 10-C , 15-C ) :   1.2983 B( 10-C , 31-H ) :   0.9549 B( 11-C , 12-N ) :   1.2536 
B( 11-C , 13-C ) :   1.1579 B( 11-C , 26-C ) :   1.3137 B( 12-N , 18-H ) :   0.8764 
B( 13-C , 23-C ) :   1.4975 B( 13-C , 33-H ) :   1.0097 B( 14-C , 21-C ) :   1.2951 
B( 16-C , 20-C ) :   1.1569 B( 16-C , 21-C ) :   1.3157 B( 19-C , 22-C ) :   1.3159 
B( 20-C , 29-H ) :   1.0098 B( 21-C , 30-H ) :   0.9551 B( 22-C , 24-C ) :   1.2949 
B( 22-C , 36-H ) :   0.9550 B( 23-C , 32-H ) :   1.0099 B( 25-C , 27-C ) :   1.0642 
B( 25-C , 35-H ) :   1.0069 B( 26-C , 27-C ) :   1.2970 B( 26-C , 34-H ) :   0.9551 


-------
TIMINGS
-------

Total SCF time: 0 days 0 hours 0 min 27 sec 

Total time                  ....      27.863 sec
Sum of individual times     ....      25.855 sec  ( 92.8%)

SCF preparation             ....       0.591 sec  (  2.1%)
Fock matrix formation       ....      23.711 sec  ( 85.1%)
  Startup                   ....       0.022 sec  (  0.1% of F)
  Split-RI-J                ....       3.171 sec  ( 13.4% of F)
  Chain of spheres X        ....      19.195 sec  ( 81.0% of F)
  XC integration            ....       3.043 sec  ( 12.8% of F)
    XC Preparation          ....       0.000 sec  (  0.0% of XC)
    Basis function eval.    ....       0.700 sec  ( 23.0% of XC)
    Density eval.           ....       0.525 sec  ( 17.2% of XC)
    XC-Functional eval.     ....       0.060 sec  (  2.0% of XC)
    XC-Potential eval.      ....       0.490 sec  ( 16.1% of XC)
Diagonalization             ....       0.000 sec  (  0.0%)
Density matrix formation    ....       0.141 sec  (  0.5%)
Total Energy calculation    ....       0.060 sec  (  0.2%)
Population analysis         ....       0.100 sec  (  0.4%)
Orbital Transformation      ....       0.215 sec  (  0.8%)
Orbital Orthonormalization  ....       0.000 sec  (  0.0%)
DIIS solution               ....       0.797 sec  (  2.9%)
SOSCF solution              ....       0.228 sec  (  0.8%)
Finished LeanSCF after  27.9 sec

Maximum memory used throughout the entire LEANSCF-calculation: 42.9 MB


           ************************************************************
           *        Program running with 22 parallel MPI-processes    *
           *              working on a common directory               *
           ************************************************************

------------------------------------------------------------------------------
                         ORCA PROPERTY INTEGRAL CALCULATIONS
------------------------------------------------------------------------------

[...]
   X-Alpha parameter    XAlpha (TD-DFT) ...  0.666667
   Becke's b parameter  XBeta (TD-DFT)  ...  0.004200
Correlation functional (TD-DFT)         ... LYP
 LDA part of GGA corr.  LDAOpt (TD-DFT) ... VWN-5
Hybrid DFT                              ... on
   Exchange mixing (TD-DFT)             ...  0.200
   GGA exch. scaling (TD-DFT)           ...  0.720
   GGA corr. scaling (TD-DFT)           ...  0.810

Building densities             ... done
Calculating rho(r) on the grid ... done
Building xc-kernel on the grid ... done
                    *** TD-DFT CALCULATION INITIALIZED ***

------------------------
DAVIDSON-DIAGONALIZATION
------------------------

Dimension of the eigenvalue problem            ...  18525
Number of roots to be determined               ...      5
Maximum size of the expansion space            ...     50
Maximum number of iterations                   ...    100
Convergence tolerance for the residual         ...    1.000e-06
Convergence tolerance for the energies         ...    1.000e-06
Orthogonality tolerance                        ...    1.000e-14
Level Shift                                    ...    0.000e+00
Constructing the preconditioner                ... o.k.
Building the initial guess                     ... o.k.
Number of trial vectors determined             ...     50


                       ****Iteration    0****
   Time for iteration     :  TOTAL=5.5 TRAFO=0.1 RIJ=1.1 COSX=3.1 XC=1.0
   Size of expansion space: 15
   Lowest Energy          :     0.091737561703
   Maximum Energy change  :     0.147128179814 (vector 4)
   Maximum residual norm  :     0.011659677022

                       ****Iteration    1****
   Time for iteration     :  TOTAL=2.6 TRAFO=0.1 RIJ=0.7 COSX=1.4 XC=0.3
   Size of expansion space: 20
   Lowest Energy          :     0.087293758162
   Maximum Energy change  :     0.009237161112 (vector 1)
   Maximum residual norm  :     0.000330765622

                       ****Iteration    2****
   Time for iteration     :  TOTAL=2.7 TRAFO=0.0 RIJ=0.7 COSX=1.5 XC=0.3
   Size of expansion space: 25
   Lowest Energy          :     0.087057740450
   Maximum Energy change  :     0.005158697670 (vector 4)
   Maximum residual norm  :     0.002657500687

                       ****Iteration    3****
   Time for iteration     :  TOTAL=2.5 TRAFO=0.0 RIJ=0.7 COSX=1.3 XC=0.3
   Size of expansion space: 30
   Lowest Energy          :     0.087041852556
   Maximum Energy change  :     0.002858511377 (vector 4)
   Maximum residual norm  :     0.000147719873

                       ****Iteration    4****
   Time for iteration     :  TOTAL=2.6 TRAFO=0.0 RIJ=0.7 COSX=1.4 XC=0.4
   Size of expansion space: 35
   Lowest Energy          :     0.087041460869
   Maximum Energy change  :     0.000268749394 (vector 4)
   Maximum residual norm  :     0.000028167544

                       ****Iteration    5****
   Time for iteration     :  TOTAL=2.6 TRAFO=0.1 RIJ=0.7 COSX=1.3 XC=0.5
   Size of expansion space: 40
   Lowest Energy          :     0.087041455845
   Maximum Energy change  :     0.000056162533 (vector 4)
   Maximum residual norm  :     0.000011139232

                       ****Iteration    6****
   Time for iteration     :  TOTAL=3.2 TRAFO=0.1 RIJ=0.7 COSX=1.8 XC=0.5
   Size of expansion space: 45
   Lowest Energy          :     0.087041455583
   Maximum Energy change  :     0.000032500421 (vector 4)
   Maximum residual norm  :     0.000007687552

                       ****Iteration    7****
   Time for iteration     :  TOTAL=2.8 TRAFO=0.0 RIJ=0.7 COSX=1.6 XC=0.4
   Size of expansion space: 50
   Lowest Energy          :     0.087041455572
   Maximum Energy change  :     0.000011603647 (vector 4)
   Maximum residual norm  :     0.000000964035

      *** CONVERGENCE OF RESIDUAL NORM REACHED ***

Storing the converged CI vectors               ... /home/jannes/porphin/bench_tddft/nproc_022/tddft.cis1

                 *** DAVIDSON DONE ***

Total time for solving the CIS problem:    24.800sec

------------------------------------
TD-DFT/TDA EXCITED STATES (SINGLETS)
------------------------------------

the weight of the individual excitations are printed if larger than 1.0e-02

STATE  1:  E=   0.087041 au      2.369 eV    19103.4 cm**-1 <S**2> =   0.000000 Mult 1
    79a ->  81a  :     0.422198 (c= -0.64976758)
    80a ->  82a  :     0.550838 (c= -0.74218433)

STATE  2:  E=   0.094326 au      2.567 eV    20702.2 cm**-1 <S**2> =   0.000000 Mult 1
    79a ->  82a  :     0.473186 (c=  0.68788511)
    80a ->  81a  :     0.496722 (c= -0.70478511)

STATE  3:  E=   0.129441 au      3.522 eV    28408.9 cm**-1 <S**2> =   0.000000 Mult 1
    78a ->  81a  :     0.015407 (c=  0.12412452)
    78a ->  82a  :     0.962721 (c=  0.98118346)

STATE  4:  E=   0.131583 au      3.581 eV    28879.1 cm**-1 <S**2> =   0.000000 Mult 1
    77a ->  81a  :     0.012000 (c=  0.10954619)
    77a ->  82a  :     0.736578 (c=  0.85824107)
    79a ->  81a  :     0.149927 (c= -0.38720461)
    80a ->  82a  :     0.070292 (c=  0.26512686)

STATE  5:  E=   0.137370 au      3.738 eV    30149.3 cm**-1 <S**2> =   0.000000 Mult 1
    78a ->  81a  :     0.945471 (c=  0.97235352)
    78a ->  82a  :     0.015173 (c= -0.12317736)

Storing amplitudes in GBW file ... 
... GBW file created

-----------------------------
TD-DFT/TDA-EXCITATION SPECTRA
-----------------------------

Center of mass = ( -0.1586,  5.0908,  6.5769)
Generating CIS transition densities           ... done

----------------------------------------------------------------------------------------------------
                     ABSORPTION SPECTRUM VIA TRANSITION ELECTRIC DIPOLE MOMENTS    
----------------------------------------------------------------------------------------------------
     Transition      Energy     Energy  Wavelength fosc(D2)      D2        DX        DY        DZ   
                      (eV)      (cm-1)    (nm)                 (au**2)    (au)      (au)      (au)  
----------------------------------------------------------------------------------------------------
  0-1A  ->  1-1A    2.368518   19103.4   523.5   0.000031633   0.00055  -0.02313  -0.00314   0.00047
  0-1A  ->  2-1A    2.566750   20702.2   483.0   0.000877100   0.01395   0.01396  -0.11635   0.01467
  0-1A  ->  3-1A    3.522258   28408.9   352.0   0.000326418   0.00378   0.06091   0.00832  -0.00170
  0-1A  ->  4-1A    3.580546   28879.1   346.3   0.178424735   2.03398  -1.42078  -0.11881   0.03553
  0-1A  ->  5-1A    3.738032   30149.3   331.7   0.000600246   0.00655  -0.00889   0.08038  -0.00386

----------------------------------------------------------------------------------------------------
                     ABSORPTION SPECTRUM VIA TRANSITION VELOCITY DIPOLE MOMENTS    
----------------------------------------------------------------------------------------------------
     Transition      Energy     Energy  Wavelength fosc(P2)      P2        PX        PY        PZ   
                      (eV)      (cm-1)    (nm)                 (au**2)    (au)      (au)      (au)  
----------------------------------------------------------------------------------------------------
  0-1A  ->  1-1A    2.368518   19103.4   523.5   0.000047447   0.00001   0.00248   0.00017  -0.00018
  0-1A  ->  2-1A    2.566750   20702.2   483.0   0.000151083   0.00002   0.00064  -0.00447   0.00101
  0-1A  ->  3-1A    3.522258   28408.9   352.0   0.000008322   0.00000   0.00127  -0.00005   0.00004
  0-1A  ->  4-1A    3.580546   28879.1   346.3   0.005260172   0.00104  -0.03212  -0.00248   0.00080
  0-1A  ->  5-1A    3.738032   30149.3   331.7   0.000054780   0.00001   0.00032  -0.00275   0.00191

------------------------------------------------------------------------------------------
                     CD SPECTRUM VIA TRANSITION ELECTRIC DIPOLE MOMENTS    
------------------------------------------------------------------------------------------
     Transition      Energy     Energy  Wavelength    R        MX        MY        MZ   
                      (eV)      (cm-1)    (nm)   (1e40*cgs)   (au)      (au)      (au)  
------------------------------------------------------------------------------------------
  0-1A  ->  1-1A    2.368518   19103.4   523.5    0.00076   0.00023  -0.00143  -0.00155
  0-1A  ->  2-1A    2.566750   20702.2   483.0   -0.02718   0.00139   0.00076   0.00865
  0-1A  ->  3-1A    3.522258   28408.9   352.0    0.04737  -0.01071  -0.06997  -0.66882
  0-1A  ->  4-1A    3.580546   28879.1   346.3   -0.22929  -0.00136   0.00164  -0.03510
  0-1A  ->  5-1A    3.738032   30149.3   331.7   -0.21945   0.00119   0.00595   0.00063

------------------------------------------------------------------------------------------
                     CD SPECTRUM VIA TRANSITION VELOCITY DIPOLE MOMENTS    
------------------------------------------------------------------------------------------
     Transition      Energy     Energy  Wavelength    R        MX        MY        MZ   
                      (eV)      (cm-1)    (nm)   (1e40*cgs)   (au)      (au)      (au)  
------------------------------------------------------------------------------------------
  0-1A  ->  1-1A    2.368518   19103.4   523.5    0.00328   0.00023  -0.00143  -0.00155
  0-1A  ->  2-1A    2.566750   20702.2   483.0    0.03089   0.00139   0.00076   0.00865
  0-1A  ->  3-1A    3.522258   28408.9   352.0   -0.14702  -0.01071  -0.06997  -0.66882
  0-1A  ->  4-1A    3.580546   28879.1   346.3    0.04140  -0.00136   0.00164  -0.03510
  0-1A  ->  5-1A    3.738032   30149.3   331.7   -0.05071   0.00119   0.00595   0.00063

Total run time:       25.549 sec

           *** ORCA-CIS/TD-DFT FINISHED WITHOUT ERROR ***
-----------------------
CIS/TD-DFT TOTAL ENERGY
-----------------------

    E(SCF)  =   -988.244030962 Eh
    DE(CIS) =      0.087041456 Eh (Root  1)
    ----------------------------- ---------
    E(tot)  =   -988.156989507 Eh


Maximum memory used throughout the entire CIS-calculation: 121.6 MB
=> NOW LEAVING ORCA_CIS

-------------------------   --------------------
FINAL SINGLE POINT ENERGY      -988.156989506603
-------------------------   --------------------



           ************************************************************
           *        Program running with 22 parallel MPI-processes    *
           *              working on a common directory               *
           ************************************************************

------------------------------------------------------------------------------
                              ORCA PROPERTY CALCULATIONS
------------------------------------------------------------------------------

GBWName                                 ... /home/jannes/porphin/bench_tddft/nproc_022/tddft.gbw
Number of atoms                         ...     38
Number of basis functions               ...    406
Max core memory                         ...   3000 MB

Electric properties:
Dipole moment                           ... YES
Quadrupole moment                       ...  NO
Static polarizability (Dipole/Dipole)   ...  NO
Static polarizability (Dipole/Quad.)    ...  NO
Static polarizability (Quad./Quad.)     ...  NO
Static polarizability (Velocity)        ...  NO
Static hyperpolarizability              ...  NO

Atomic electric properties:
Dipole moment                           ...  NO
Quadrupole moment                       ...  NO
Static polarizability                   ...  NO

Choice of electric origin               ... Center of mass
Position of electric origin             ...    -0.158633     5.090800     6.576883

General magnetic properties:
Magnetizability                         ...  NO

EPR properties:
g-Tensor (aka g-matrix)                 ...  NO
Zero-Field splitting spin-orbit         ...  NO
Zero-field splitting spin-spin          ...  NO
Hyperfine couplings                     ...  NO (   0 nuclei)
Quadrupole couplings                    ...  NO (   0 nuclei)
Contact density                         ...  NO (   0 nuclei)

NMR properties:
Chemical shifts                         ...  NO (   0 nuclei)
Spin-rotation constants                 ...  NO (   0 nuclei)
Spin-spin couplings                     ...  NO (   0 nuclei,    0 pairs)

Choice of magnetic origin               ... GIAO
Position of magnetic origin             ...     0.000000     0.000000     0.000000

Properties with geometric perturbations:
SCF Hessian                             ...  NO
IR spectrum                             ...  NO
VCD spectrum                            ...  NO
X-ray spectroscopy properties:
SCF XES/XAS/RIXS spectra                ...  NO

SCF SOC stabilization energy            ...  NO
Diagonal Born-Oppenheimer correction    ...  NO

-------------
DIPOLE MOMENT
-------------

Method             : SCF
Type of density    : Electron Density
Multiplicity       :   1
Irrep              :   0
Energy             :  -988.2440309621748611 Eh
Basis              : AO
                                X                 Y                 Z
Electronic contribution:      0.001695671       0.007168447       0.087483236
Nuclear contribution   :     -0.003704980      -0.014506142      -0.119515611
                        -----------------------------------------
Total Dipole Moment    :     -0.002009309      -0.007337695      -0.032032375
                        -----------------------------------------
Magnitude (a.u.)       :      0.032923428
Magnitude (Debye)      :      0.083684704



--------------------
Rotational spectrum 
--------------------
 
Rotational constants in cm-1:             0.009001             0.008950             0.004488 
Rotational constants in MHz :           269.851470           268.312553           134.547317 

Dipole components along the rotational axes: 
x,y,z [a.u.] :    -0.001859    -0.004006    -0.032626 
x,y,z [Debye]:    -0.004726    -0.010184    -0.082928 

 

Dipole moment calculation done in   0.0 sec 

Maximum memory used throughout the entire PROP-calculation: 24.2 MB

--------------------------------
SUGGESTED CITATIONS FOR THIS RUN
--------------------------------

Below you find a list of papers that are relevant to this ORCA run
We neither can nor want to force you to cite these papers, but we appreciate if you do
You receive ORCA, which is the product of decades of hard work by many enthusiastic individuals, for free
The only thing we kindly ask in return is that you cite our papers,
We deeply appreciate it, if you show your appreciation for ORCA by not just citing the generic ORCA reference.

Please note that relegating all ORCA citations to the supporting information does *not* help us.
SI sections are not indexed - citations you put there will not count into any citation statistics
But we need these citations in order to attract the funding resources that allow us to do what we are doing

Therefore, if you are a happy ORCA user, please consider citing a few of the papers listed below in the main body of your paper

In addition to the list printed below, the program has created the file /home/jannes/porphin/bench_tddft/nproc_022/tddft.bibtex that contains the list in bibtex format
You can import this file easily into all common literature databanks and citation aid programs

It goes without saying that in many instances, there are alternative algorithms to achieve similar
results as the ones you have gotten from ORCA. It is, of course, also the case that in some instances
ORCA just re-implements algorithms worked out by others. We are fully aware of that and we are also
fully appreciative of our colleagues work. Hence this citation list should not be read as indicating
that the listed papers, which are focused on our own work, are the only ones worth citing. It simply
meant to make it easier for users to cite ORCA specific papers. It is not a substitute for doing your
own literature research and citing the relevant literature in a scientifically appropriate manner.

List of essential papers. We consider these as the minimum necessary citations

  1. Neese, F.
     Software update: the ORCA program system, version 6.0
     WIRES Comput. Molec. Sci. 2025 15(1), e70019
     doi.org/10.1002/wcms.70019

List of papers to cite with high priority. The work reported in these papers was absolutely
necessary for this run to complete.
Our perspective: the developers of density functionals and basis sets usually get cited in chemistry papers
Good! But without the algorithms to do something with them, the functionals or basis sets would not do anything.
Hence, in our opinion, the algorithm design and method developments papers are equally worthy of getting cited

  1. Neese, F.; Olbrich, G.
     Efficient use of the resolution of the identity approximation in time-dependent density functional calculations with hybrid density functionals
     Chem. Phys. Lett. 2002 362 , 170-178
     doi.org/10.1016/s0009-2614(02)01053-9
  2. Neese, F.
     An improvement of the resolution of the identity approximation for the formation of the Coulomb matrix
     J. Comp. Chem. 2003 24(14), 1740-1747
     doi.org/10.1002/jcc.10318
  3. Neese, F.; Wennmohs, F.; Hansen, A.; Becker, U.
     Efficient, approximate and parallel Hartree-Fock and hybrid DFT calculations. A 'chain-of-spheres' algorithm for the Hartree-Fock exchange
     Chem. Phys. 2009 356(1-3), 98-109
     doi.org/10.1016/j.chemphys.2008.10.036
  4. Helmich-Paris, B.; de Souza, B.; Neese, F.; Izsák, R.
     An improved chain of spheres for exchange algorithm
     J. Chem. Phys. 2021 155(10), 104109
     doi.org/10.1063/5.0058766
  5. Neese, F.
     The SHARK Integral Generation and Digestion System
     J. Comp. Chem. 2022 44(3), 381
     doi.org/10.1002/jcc.26942

List of suggested additional citations. These are papers that are important in the 'surrounding' of 
of this run, or papers that preceded the highly important papers. If you like your results we are grateful for a citation.

  1. Izsak, R.; Neese, F.
     An overlap fitted chain of spheres exchange method
     J. Chem. Phys. 2011 135 , 144105
     doi.org/10.1063/1.3646921
  2. Izsak, R.; Hansen, A.; Neese, F.
     The resolution of identity and chain of spheres approximations for the LPNO-CCSD singles Fock term
     Molec. Phys. 2012 110 , 2413-2417
     doi.org/10.1080/00268976.2012.687466
  3. Neese, F.
     The ORCA program system
     WIRES Comput. Molec. Sci. 2012 2(1), 73-78
     doi.org/10.1002/wcms.81
  4. Izsak, R.; Neese, F.; Klopper, W.
     Robust fitting techniques in the chain of spheres approximation to the Fock exchange: The role of the complementary space
     J. Chem. Phys. 2013 139 , 
     doi.org/10.1063/1.4819264
  5. Neese, F.
     Software update: the ORCA program system, version 4.0
     WIRES Comput. Molec. Sci. 2018 8(1), 1-6
     doi.org/10.1002/wcms.1327
  6. Neese, F.; Wennmohs, F.; Becker, U.; Riplinger, C.
     The ORCA quantum chemistry program package
     J. Chem. Phys. 2020 152(22), 224108
     doi.org/10.1063/5.0004608
  7. Neese, F.
     Software update: The ORCA program system—Version 5.0
     WIRES Comput. Molec. Sci. 2022 12(1), e1606
     doi.org/10.1002/wcms.1606

List of optional additional citations

  1. Neese, F.
     Approximate second-order SCF convergence for spin unrestricted wavefunctions
     Chem. Phys. Lett. 2000 325(1-3), 93-98
     doi.org/10.1016/s0009-2614(00)00662-x

Timings for individual modules:

Sum of individual times          ...       62.735 sec (=   1.046 min)
Startup calculation              ...        5.458 sec (=   0.091 min)   8.7 %
SCF iterations                   ...       29.982 sec (=   0.500 min)  47.8 %
Property integrals               ...        0.732 sec (=   0.012 min)   1.2 %
Property calculations            ...        0.592 sec (=   0.010 min)   0.9 %
CIS module                       ...       25.970 sec (=   0.433 min)  41.4 %
                             ****ORCA TERMINATED NORMALLY****
TOTAL RUN TIME: 0 days 0 hours 1 minutes 3 seconds 245 msec
