
                                 *****************
                                 * O   R   C   A *
                                 *****************

                                            #,                                       
                                            ###                                      
                                            ####                                     
                                            #####                                    
                                            ######                                   
                                           ########,                                 
                                     ,,################,,,,,                         
                               ,,#################################,,                 
                          ,,##########################################,,             
                       ,#########################################, ''#####,          
                    ,#############################################,,   '####,        
                  ,##################################################,,,,####,       
                ,###########''''           ''''###############################       
              ,#####''   ,,,,##########,,,,          '''####'''          '####       
            ,##' ,,,,###########################,,,                        '##       
           ' ,,###''''                  '''############,,,                           
         ,,##''                                '''############,,,,        ,,,,,,###''
      ,#''                                            '''#######################'''  
     '                                                          ''''####''''         
             ,#######,   #######,   ,#######,      ##                                
            ,#'     '#,  ##    ##  ,#'     '#,    #''#        ,####,    ,#,          
            ##       ##  ##   ,#'  ##            #'  '#       #'       ,# #          
            ##       ##  #######   ##           ,######,      #####,      #          
            '#,     ,#'  ##    ##  '#,     ,#' ,#      #,     #,   #      #          
             '#######'   ##     ##  '#######'  #'      '#     '####' #    #          



                #########################################################
                #                        -***-                          #
                #          Department of theory and spectroscopy        #
                #                                                       #
                #                      Frank Neese                      #
                #                                                       #
                #     Directorship, Architecture, Infrastructure        #
                #                    SHARK, DRIVERS                     #
                #        Core code/Algorithms in most modules           #
                #                                                       #
                #        Max Planck Institute fuer Kohlenforschung      #
                #                Kaiser Wilhelm Platz 1                 #
                #                 D-45470 Muelheim/Ruhr                 #
                #                      Germany                          #
                #                                                       #
                #                  All rights reserved                  #
                #                        -***-                          #
                #########################################################


                         Program Version 6.1.1  -  RELEASE   -
                                (GIT: $487d211c$)
                          ($2025-11-21 10:33:24 +0100$)


 With contributions from (in alphabetic order):
[Max-Planck-Institut fuer Kohlenforschung]                               
  Daniel Aravena         : Magnetic Suceptibility                        
  Michael Atanasov       : Ab Initio Ligand Field Theory (pilot matlab implementation)
  Alexander A. Auer      : GIAO ZORA, VPT2 properties, NMR spectrum      
  Ute Becker             : All parallelization in ORCA, NUMFREQ, NUMCALC 
  Giovanni Bistoni       : ED, misc. LED, open-shell LED, HFLD           
  Dmytro Bykov           : pre 5.0 version of the SCF Hessian            
  Marcos Casanova-Páez   : Triplet and SCS-CIS(D). UHF-(DLPNO)-IP/EA/STEOM-CCSD. UHF-CVS-IP/STEOM-CCSD   
  Vijay G. Chilkuri      : MRCI spin determinant printing, contributions to CSF-ICE 
  Pauline Colinet        : FMM embedding                                 
  Dipayan Datta          : RHF DLPNO-CCSD density                        
  Achintya Kumar Dutta   : EOM-CC, STEOM-CC                              
  Nicolas Foglia         : Exact transition moments, OPA infrastructure, MCD improvements    
  Dmitry Ganyushin       : Spin-Orbit,Spin-Spin,Magnetic field MRCI      
  Miquel Garcia-Rates    : C-PCM and meta-GGA Hessian, CCSD/C-PCM, Gaussian charge scheme 
  Tiago L. C. Gouveia    : GS-ROHF, GS-ROCIS                             
  Yang Guo               : DLPNO-NEVPT2, F12-NEVPT2, CIM, IAO-localization        
  Andreas Hansen         : Spin unrestricted coupled pair/coupled cluster methods 
  Ingolf Harden          : AUTO-CI MPn and infrastructure                
  Benjamin Helmich-Paris : MC-RPA, TRAH-(SCF,CASSCF), AVAS, COSX integrals, SCF dyn. polar., MC-PDFT, srDFT 
  Lee Huntington         : MR-EOM, pCC                                   
  Robert Izsak           : Overlap fitted RIJCOSX, COSX-SCS-MP3, EOM     
  Riya Kayal             : Wick's Theorem for AUTO-CI, AUTO-CI UHF-CCSDT 
  Emily Kempfer          : AUTO-CI RHF CISDT and CCSDT, approximate NEVPT4
  Christian Kollmar      : KDIIS, OOCD, Brueckner-CCSD(T), CCSD density, CASPT2, CASPT2-K, improved NEVPT2 
  Axel Koslowski         : Symmetry handling                             
  Simone Kossmann        : meta-GGA functionals, TD-DFT gradient, OOMP2, (MP2 Hessian; deprecated post 5.0) 
  Lucas Lang             : DCDCAS, Hyperfine gauge corrections, ICE-SOC+SSC
  Marvin Lechner         : AUTO-CI (C++ implementation), FIC-MRCC        
  Spencer Leger          : CASSCF response                               
  Dagmar Lenk            : GEPOL surface, SMD, ORCA-2-JSON               
  Dimitrios Liakos       : Extrapolation schemes; Compound Job, Property file
  Dimitrios Manganas     : Further ROCIS development; embedding schemes. LFT, Crystal Embedding 
  Dimitrios Pantazis     : SARC Basis sets                               
  Anastasios Papadopoulos: AUTO-CI, single reference methods and gradients 
  Taras Petrenko         : pre 6.0 DFT Hessian and TD-DFT gradient,  ECA, NRVS 
  Petra Pikulova         : Analytic Raman intensities                    
  Peter Pinski           : DLPNO-MP2, DLPNO-MP2 Gradient                 
  Shashank Vittal Rao    : ES-AILFT, MagRelax                            
  Christoph Reimann      : Effective Core Potentials                     
  Marius Retegan         : Local ZFS, SOC                                
  Christoph Riplinger    : Optimizer, TS searches, QM/MM, DLPNO-CCSD(T), (RO)-DLPNO pert. Triples 
  Michael Roemelt        : Original ROCIS implementation, recursive CI coupling coefficients
  Masaaki Saitow         : Open-shell DLPNO-CCSD energy and density      
  Barbara Sandhoefer     : DKH picture change effects                    
  Yorick L. A. Schmerwitz: GMF and freeze-and-release deltaSCF, NEB S-IDPP initial path                    
  Kantharuban Sivalingam : CASSCF convergence/infrastructure, NEVPT2, NEVPT3, NEVPT4(SD), FIC-MRCI and CEPA variants
  Bernardo de Souza      : ESD, SOC TD-DFT                               
  Georgi L. Stoychev     : AutoAux, RI-MP2 NMR, DLPNO-MP2 response, X2C  
  Van Anh Tran           : RI-MP2 g-tensors                              
  Willem Van den Heuvel  : Paramagnetic NMR                              
  Zikuan Wang            : NOTCH, Electric field optimization            
  Frank Wennmohs         : Technical directorship and infrastructure     
  Hang Xu                : AUTO-CI-Response properties                   
                                                                         
[FACCTs GmbH]                                                            
  Markus Bursch, Nicolas Foglia, Miquel Garcia-Rates, Ingolf Harden, Hagen Neugebauer, Anastasios Papadopoulos, 
  Christoph Riplinger, Bernardo de Souza, Georgi L. Stoychev                                                    
                                                                 
  APM, various basis sets, CI-OPT, improved COSX, DLPNO-Multilevel,           
  DOCKER, DRACO, updates on ESD, Fragmentator, GOAT, IRC, LR-CPCM, L-BFGS, MBIS, meta-GGA TD-DFT gradient, ML-optimized integration grids, 
  MM, NACMEs, nearIR, NEB, NEB-TS, NL-DFT gradient (VV10), 2- and 3-layer-ONIOM, interface openCOSMO-RS, QMMM,   
  Crystal-QMMM, RESP, rigid body optimization, SF, symmetry and pop. for TD-DFT, various functionals, SOLVATOR                                   
                                                                         
[Other institutions]                                                     
  V. Asgeirsson          : NEB                                           
  Christoph Bannwarth    : sTDA-DFT, sTD-DFT, PBEh-3c, B97-3c, D3        
  Giovanni Bistoni       : ETS/NOCV, ADLD/ADEX, COVALED                  
  Martin Brehm           : Molecular dynamics                            
  Ronald Cardenas        : ETS/NOCV                                      
  Martina Colucci        : COVALED                                       
  Sebastian Ehlert       : rSCAN, r2SCAN, r2SCAN-3c, D4, dhf basis sets  
  Marvin Friede          : D4 for Fr, Ra, Ac-Lr                          
  Lars Goerigk           : TD-DFT with DH, B97 family of functionals     
  Stefan Grimme          : VdW corrections, initial TS optimization, DFT functionals, gCP, sTDA/sTD-DF 
  Waldemar Hujo          : DFT-NL                                        
  H. Jonsson             : NEB                                           
  Holger Kruse           : gCP                                           
  Marcel Mueller         : wB97X-3c, vDZP basis set                      
  Hagen Neugebauer       : wr2SCAN, Native XTB                           
  Gianluca Regni         : ADLD/ADEX                                     
  Tobias Risthaus        : pre 6.0 range-separated hybrid DFT and stability analysis
  Lukas Wittmann         : regularized MP2, r2SCAN double-hybrids, wr2SCAN        
                                                                         
We gratefully acknowledge several colleagues who have allowed us to      
interface, adapt or use parts of their codes:                            
  Ed Valeev, F. Pavosevic, A. Kumar             : LibInt (2-el integral package), F12 methods 
  Garnet Chan, S. Sharma, J. Yang, R. Olivares  : DMRG                   
  Ulf Ekstrom                                   : XCFun DFT Library      
  Mihaly Kallay                                 : mrcc  (arbitrary order and MRCC methods)
  Frank Weinhold                                : gennbo (NPA and NBO analysis)           
  Simon Mueller                                 : openCOSMO-RS                            
  Christopher J. Cramer and Donald G. Truhlar   : smd solvation model                     
  S Lehtola, MJT Oliveira, MAL Marques          : LibXC Library                           
  Liviu Ungur et al                             : ANISO software                          


 Your calculation uses the libint2 library for the computation of 2-el integrals
 For citations please refer to: http://libint.valeyev.net

 Your ORCA version has been built with support for libXC version: 7.0.0
 For citations please refer to: https://libxc.gitlab.io

 This ORCA versions uses:
   CBLAS   interface :  Fast vector & matrix operations
   LAPACKE interface :  Fast linear algebra routines
   SCALAPACK package :  Parallel linear algebra routines
   Shared memory     :  Shared parallel matrices
   BLAS/LAPACK       :  OpenBLAS 0.3.29  USE64BITINT DYNAMIC_ARCH NO_AFFINITY Haswell SINGLE_THREADED
        Core in use  :  Haswell
   Copyright (c) 2011-2014, The OpenBLAS Project


  ***********************************
  * Starting time: Thu Jun 18 06:29:34 2026
  * Host name:     steezy
  * Process ID:    3538972
  * Working dir.:  /home/jannes/metaltpp/cdtpp/02_tddft_tda_comparison/runs/tdaon_tpss
  ***********************************

NOTE: MaxCore=3000 MB was set to SCF,MP2,MDCI,CIPSI,MRCI,RASCI and CIS
      => If you want to overwrite this, your respective input block should be placed after the MaxCore statement


***************************************
The coordinates will be read from file: /home/jannes/metaltpp/cdtpp/01_opt/cdtpp_opt_b3lyp_tzvp.xyz
***************************************


================================================================================

cite the ECPs for Cd [Def2-ECP] as follows:
Ce-Yb(ecp-28): M. Dolg, H. Stoll, H.Preuss, J. Chem. Phys., 1989, 90, 1730-1734.
Y-Cd(ecp-28), Hf-Hg(ecp-46): D. Andrae,U. Haeussermann, M. Dolg, H. Stoll, H. Preuss, Theor. Chim. Acta, 1990, 77, 123-141.
In-Sb(ecp-28), Tl-Bi(ecp-46): B. Metz, H. Stoll, M. Dolg, J. Chem. Phys., 2000, 113, 2563-2569.
Te-Xe(ecp-28), Po-Rn(ecp-46): K. A. Peterson, D. Figgen, E. Goll, H. Stoll, M. Dolg, J. Chem. Phys., 2003, 119, 11113-11123.
Rb(ecp-28), Cs(ecp-46): T. Leininger, A. Nicklass, W. Kuechle, H. Stoll, M. Dolg, A. Bergner, Chem. Phys. Lett., 1996, 255, 274-280.
Sr(ecp-28), Ba(ecp-46): M. Kaupp, P. V. Schleyer, H. Stoll and H. Preuss, J. Chem. Phys., 1991, 94, 1360-1366.
La(ecp-46): M. Dolg, H. Stoll, A. Savin, H. Preuss, Theor. Chim. Acta, 1989, 75, 173-194.
Lu(ecp-28): X. Cao, M. Dolg, J. Chem. Phys., 2001, 115, 7348-7355.

ECP parameters for Cd [Def2-ECP] have been obtained from:
TURBOMOLE (7.0.2)

----- Orbital basis set information -----
Your calculation utilizes the basis: def2-TZVP
   F. Weigend and R. Ahlrichs, Phys. Chem. Chem. Phys. 7, 3297 (2005).

----- AuxJ basis set information -----
Your calculation utilizes the auxiliary basis: def2/J
   H-Rn: F. Weigend, Phys. Chem. Chem. Phys. 8, 1057 (2006).
   Fr-Lr: K. Eichkorn, F. Weigend, O. Treutler, R. Ahlrichs; Theor. Chem. Acc. 97, 119 (1997).

================================================================================
                                        WARNINGS
                       Please study these warnings very carefully!
================================================================================



WARNING: Found flag for RIJCOSX approximation but no HF exchange needed!
  ===> : RIJCOSX  will be disabled and Split-RI-J is turned on

WARNING: CIS/ROCIS methods need fully converged wavefunctions
  ===> : Setting SCFConvForced true
         You can overwrite this default with %scf ConvForced false 


================================================================================
                                       INPUT FILE
================================================================================
NAME = tddft.inp
|  1> %pal nprocs 8 end
|  2> %maxcore 3000
|  3> ! TPSS def2-TZVP def2/J RIJCOSX DefGrid3 TightSCF CPCM(Toluene)
|  4> %tddft
|  5>   nroots 30
|  6>   triplets false
|  7> end
|  8> * xyzfile 0 1 /home/jannes/metaltpp/cdtpp/01_opt/cdtpp_opt_b3lyp_tzvp.xyz
|  9> 
| 10>                          ****END OF INPUT****
================================================================================

                       ****************************
                       * Single Point Calculation *
                       ****************************

---------------------------------
CARTESIAN COORDINATES (ANGSTROEM)
---------------------------------
  N     -2.221533    2.513479    3.517972
  H      1.677888   -2.324647    3.919784
  C     -4.433906    3.008485    3.506264
  C     -0.395415   -1.637172    3.880196
  N      0.098324    0.565268    3.667761
  C      0.961221   -1.523184    3.850953
  H     -0.964981   -2.547322    3.969094
  C      2.923779    1.828518    3.506213
  N     -0.268174    4.820323    3.268916
  C     -1.130971    6.908632    3.083380
  C      2.576354    0.457586    3.638074
  C      2.732593    4.045673    3.290807
  N      2.051541    2.872082    3.418533
  C      4.147611    3.728062    3.301568
  C     -0.948789   -0.301255    3.768946
  C      1.278498   -0.115154    3.709120
  C     -2.902825    1.339187    3.637649
  C     -3.093559    3.557800    3.436495
  C     -4.317697    1.657915    3.635877
  C     -2.325955    0.046427    3.754628
  C     -2.746191    4.927914    3.296676
  C      4.263945    2.377017    3.425894
  C     -1.448412    5.499936    3.218653
  C      0.225571    7.021994    3.048123
  C      2.155913    5.338858    3.179397
  C      0.779022    5.687272    3.172243
  H     -5.348304    3.576532    3.462380
  H     -5.122066    0.946402    3.722088
  H      5.178309    1.808236    3.459501
  H      4.951846    4.440789    3.224480
  H      0.795073    7.930930    2.946978
  H     -1.847365    7.711003    3.022647
  Cd    -0.084956    2.692974    3.470075
  C      3.723574   -0.505615    3.711217
  C      4.056221   -1.305457    2.615092
  C      5.121090   -2.197482    2.681657
  C      5.870332   -2.306013    3.848066
  C      5.548238   -1.515957    4.946133
  C      4.484478   -0.622813    4.877011
  H      3.477543   -1.221850    1.703352
  H      5.366273   -2.805744    1.819613
  H      6.699071   -3.001073    3.900898
  H      6.123587   -1.595606    5.860385
  H      4.235725   -0.011513    5.735838
  C     -3.291752   -1.094116    3.878794
  C     -4.007035   -1.549047    2.768257
  C     -4.902029   -2.607364    2.882424
  C     -5.098479   -3.227443    4.111485
  C     -4.393236   -2.782806    5.224411
  C     -3.496974   -1.725846    5.107909
  H     -3.855067   -1.071280    1.808165
  H     -5.443874   -2.948550    2.008798
  H     -5.795952   -4.050950    4.201349
  H     -4.541934   -3.256642    6.187014
  H     -2.952437   -1.380919    5.978324
  C     -3.892897    5.891489    3.220617
  C     -4.262577    6.466576    2.002206
  C     -5.325510    7.360425    1.930034
  C     -6.035966    7.696070    3.077324
  C     -5.676830    7.131048    4.296114
  C     -4.614977    6.235689    4.366041
  H     -3.714021    6.206231    1.105293
  H     -5.599397    7.792496    0.975300
  H     -6.863235    8.392693    3.022056
  H     -6.221597    7.388684    5.196154
  H     -4.337167    5.800605    5.318250
  C      3.121976    6.478877    3.051412
  C      3.787407    6.719168    1.846718
  C      4.682771    7.776456    1.726386
  C      4.929295    8.610885    2.811133
  C      4.273696    8.381318    4.015762
  C      3.377008    7.324841    4.133629
  H      3.596896    6.073673    0.998062
  H      5.185755    7.948959    0.782730
  H      5.626954    9.433926    2.718431
  H      4.461185    9.023498    4.867614
  H      2.871020    7.148204    5.074878

----------------------------
CARTESIAN COORDINATES (A.U.)
----------------------------
  NO LB      ZA    FRAG     MASS         X           Y           Z
   0 N     7.0000    0    14.007   -4.198090    4.749786    6.648003
   1 H     1.0000    0     1.008    3.170750   -4.392946    7.407319
   2 C     6.0000    0    12.011   -8.378868    5.685212    6.625879
   3 C     6.0000    0    12.011   -0.747226   -3.093806    7.332507
   4 N     7.0000    0    14.007    0.185806    1.068201    6.931064
   5 C     6.0000    0    12.011    1.816445   -2.878401    7.277246
   6 H     1.0000    0     1.008   -1.823549   -4.813740    7.500501
   7 C     6.0000    0    12.011    5.525141    3.455398    6.625783
   8 N     7.0000    0    14.007   -0.506776    9.109090    6.177355
   9 C     6.0000    0    12.011   -2.137225   13.055422    5.826744
  10 C     6.0000    0    12.011    4.868603    0.864712    6.874964
  11 C     6.0000    0    12.011    5.163853    7.645213    6.218723
  12 N     7.0000    0    14.007    3.876851    5.427449    6.460091
  13 C     6.0000    0    12.011    7.837849    7.045015    6.239059
  14 C     6.0000    0    12.011   -1.792951   -0.569289    7.122275
  15 C     6.0000    0    12.011    2.416011   -0.217609    7.009221
  16 C     6.0000    0    12.011   -5.485544    2.530697    6.874160
  17 C     6.0000    0    12.011   -5.845979    6.723267    6.494034
  18 C     6.0000    0    12.011   -8.159265    3.133005    6.870812
  19 C     6.0000    0    12.011   -4.395418    0.087735    7.095218
  20 C     6.0000    0    12.011   -5.189549    9.312408    6.229815
  21 C     6.0000    0    12.011    8.057689    4.491910    6.474002
  22 C     6.0000    0    12.011   -2.737102   10.393373    6.082373
  23 C     6.0000    0    12.011    0.426267   13.269646    5.760119
  24 C     6.0000    0    12.011    4.074086   10.088979    6.008189
  25 C     6.0000    0    12.011    1.472137   10.747387    5.994670
  26 H     1.0000    0     1.008  -10.106829    6.758666    6.542951
  27 H     1.0000    0     1.008   -9.679301    1.788440    7.033727
  28 H     1.0000    0     1.008    9.785586    3.417071    6.537509
  29 H     1.0000    0     1.008    9.357632    8.391875    6.093385
  30 H     1.0000    0     1.008    1.502469   14.987286    5.568981
  31 H     1.0000    0     1.008   -3.491013   14.571683    5.711975
  32 Cd   20.0000*   0   112.410   -0.160544    5.088984    6.557491
  33 C     6.0000    0    12.011    7.036535   -0.955473    7.013185
  34 C     6.0000    0    12.011    7.665147   -2.466956    4.941807
  35 C     6.0000    0    12.011    9.677457   -4.152639    5.067597
  36 C     6.0000    0    12.011   11.093320   -4.357733    7.271792
  37 C     6.0000    0    12.011   10.484651   -2.864744    9.346837
  38 C     6.0000    0    12.011    8.474436   -1.176946    9.216214
  39 H     1.0000    0     1.008    6.571603   -2.308962    3.218869
  40 H     1.0000    0     1.008   10.140786   -5.302087    3.438571
  41 H     1.0000    0     1.008   12.659409   -5.671206    7.371628
  42 H     1.0000    0     1.008   11.571903   -3.015258   11.074522
  43 H     1.0000    0     1.008    8.004360   -0.021757   10.839163
  44 C     6.0000    0    12.011   -6.220510   -2.067579    7.329858
  45 C     6.0000    0    12.011   -7.572199   -2.927274    5.231247
  46 C     6.0000    0    12.011   -9.263492   -4.927203    5.446992
  47 C     6.0000    0    12.011   -9.634728   -6.098983    7.769581
  48 C     6.0000    0    12.011   -8.302014   -5.258741    9.872706
  49 C     6.0000    0    12.011   -6.608324   -3.261376    9.652550
  50 H     1.0000    0     1.008   -7.285020   -2.024426    3.416937
  51 H     1.0000    0     1.008  -10.287432   -5.571952    3.796079
  52 H     1.0000    0     1.008  -10.952763   -7.655186    7.939398
  53 H     1.0000    0     1.008   -8.583011   -6.154162   11.691761
  54 H     1.0000    0     1.008   -5.579297   -2.609559   11.297395
  55 C     6.0000    0    12.011   -7.356509   11.133300    6.086084
  56 C     6.0000    0    12.011   -8.055104   12.220058    3.783621
  57 C     6.0000    0    12.011  -10.063756   13.909187    3.647236
  58 C     6.0000    0    12.011  -11.406322   14.543464    5.815300
  59 C     6.0000    0    12.011  -10.727655   13.475728    8.118480
  60 C     6.0000    0    12.011   -8.721042   11.783745    8.250622
  61 H     1.0000    0     1.008   -7.018482   11.728077    2.088701
  62 H     1.0000    0     1.008  -10.581327   14.725684    1.843049
  63 H     1.0000    0     1.008  -12.969634   15.859891    5.710858
  64 H     1.0000    0     1.008  -11.757115   13.962589    9.819308
  65 H     1.0000    0     1.008   -8.196059   10.961555   10.050035
  66 C     6.0000    0    12.011    5.899680   12.243302    5.766332
  67 C     6.0000    0    12.011    7.157161   12.697388    3.489791
  68 C     6.0000    0    12.011    8.849155   14.695372    3.262397
  69 C     6.0000    0    12.011    9.315018   16.272215    5.312272
  70 C     6.0000    0    12.011    8.076116   15.838395    7.588691
  71 C     6.0000    0    12.011    6.381620   13.841944    7.811427
  72 H     1.0000    0     1.008    6.797148   11.477579    1.886064
  73 H     1.0000    0     1.008    9.799657   15.021355    1.479146
  74 H     1.0000    0     1.008   10.633402   17.827537    5.137090
  75 H     1.0000    0     1.008    8.430419   17.051940    9.198458
  76 H     1.0000    0     1.008    5.425442   13.508147    9.590130
* core charge reduced due to ECP

--------------------------------
INTERNAL COORDINATES (ANGSTROEM)
--------------------------------
 N      0   0   0     0.000000000000     0.00000000     0.00000000
 H      1   0   0     6.226909584323     0.00000000     0.00000000
 C      1   2   0     2.267104250437   141.35977369     0.00000000
 C      2   1   3     2.184668519511    32.86339705     0.34280941
 N      4   2   1     2.267078764736    95.78079355     0.08531973
 C      2   1   3     1.077354096091     2.92918026     3.53991666
 H      4   2   1     1.077348867078   103.55530413   179.90701124
 C      5   4   2     3.099208523477   126.82809258     0.21163959
 N      1   2   6     3.033013543834   101.12435337   183.45655203
 C      9   1   2     2.267129203555   117.52976755   180.00756343
 C      8   5   4     1.420403395029    51.59344702     0.05111827
 C      8   5   4     2.235783449825   109.34597485   179.66737486
 N     12   8   5     1.362886722424    34.89222548     0.24565151
 C     12   8   5     1.450264622529    72.46275824   180.07175052
 C      5   4   2     1.362917654010    37.63314937   180.50541806
 C      5   4   2     1.362899475432    72.58641748     0.36330981
 C      1   2   6     1.362879768119    68.77191694     3.34948301
 C      1   2   6     1.362964757384   178.97075037    14.70592998
 C      3   1   2     1.361742651855    72.52309798     0.07378407
 C     15   5   4     1.420448439227   126.05123773   180.53742367
 C     18   1  17     1.420361822745   126.05206197   180.38454889
 C     14  12   8     1.361731833191   107.53664106     0.30455902
 C      9   1   2     1.362850690822    79.89631003   179.85746444
 C     10   9   1     1.361726818909    72.52334945   180.17075694
 C     12   8   5     1.420317097298   160.94073403     0.99277551
 C      9   1   2     1.362925442895   169.88676824   359.60781380
 H      3   1   2     1.077369932890   160.66065628   180.65688984
 H     19   3   1     1.077354199394   126.79181051   179.75899513
 H     22  14  12     1.077358568224   126.80909247   179.52265103
 H     14  12   8     1.077365299891   125.65684331   180.30577475
 H     24  10   9     1.077370299954   126.81660426   179.77309827
 H     10   9   1     1.077361458895   160.68000721     0.75406544
 Cd    13  12   8     2.144611716681   124.88913229   180.11559583
 C     11   8   5     1.499739680849   115.93179297   180.11580825
 C     34  11   8     1.397101723469   120.76738948   255.16980924
 C     35  34  11     1.390714049158   120.79511174   179.90944824
 C     36  35  34     1.390559144059   120.18369120     0.11306297
 C     37  36  35     1.390569318757   119.55241508   359.93986629
 C     38  37  36     1.390708114914   120.18578262   359.94908443
 H     35  34  11     1.083110169783   119.27710586     0.23019603
 H     36  35  34     1.083150949848   119.69802581   180.28345548
 H     37  36  35     1.082916265007   120.22234294   179.94262356
 H     38  37  36     1.083156130749   120.11268666   179.78514681
 H     39  38  37     1.083120770646   119.91553040   179.83176155
 C     20  15   5     1.499673432332   115.93770093   179.87380418
 C     45  20  15     1.397098248641   120.76713961   254.92722925
 C     46  45  20     1.390713391699   120.79886578   179.94805577
 C     47  46  45     1.390568884609   120.18624231     0.11744045
 C     48  47  46     1.390565227206   119.54805341   359.94259037
 C     49  48  47     1.390691346122   120.18711192   359.94809691
 H     46  45  20     1.083111432517   119.28375793     0.25681515
 H     47  46  45     1.083155797025   119.69796567   180.27828763
 H     48  47  46     1.082917312426   120.22740328   179.93951826
 H     49  48  47     1.083160048472   120.11647248   179.76605881
 H     50  49  48     1.083105322768   119.91592100   179.79604125
 C     21  18   1     1.499731602429   115.96147196   179.64337059
 C     56  21  18     1.397109427489   120.73150475   255.42390513
 C     57  56  21     1.390683386907   120.80188229   180.01087857
 C     58  57  56     1.390567970688   120.18696767     0.10537659
 C     59  58  57     1.390567148330   119.54498689   359.94724761
 C     60  59  58     1.390715522621   120.18937770   359.94786260
 H     57  56  21     1.083118996624   119.28894598     0.28208980
 H     58  57  56     1.083151660135   119.69626606   180.25545697
 H     59  58  57     1.082918801112   120.22920896   179.94654250
 H     60  59  58     1.083152397365   120.11630662   179.78011393
 H     61  60  59     1.083133142888   119.91082613   179.81218228
 C     25  12   8     1.499766884519   115.92851934   179.35228029
 C     67  25  12     1.397077168329   120.73917841    75.56881185
 C     68  67  25     1.390688588142   120.79913498   179.95591962
 C     69  68  67     1.390583248430   120.18824870     0.09799309
 C     70  69  68     1.390554462844   119.54591143   359.94521623
 C     71  70  69     1.390714141738   120.18679576   359.95030171
 H     68  67  25     1.083131832442   119.29777949     0.21256277
 H     69  68  67     1.083160630609   119.69831804   180.25645058
 H     70  69  68     1.082921088834   120.23113687   179.95226165
 H     71  70  69     1.083143554453   120.12040902   179.79842175
 H     72  71  70     1.083131507327   119.91684896   179.81504118

---------------------------
INTERNAL COORDINATES (A.U.)
---------------------------
 N      0   0   0     0.000000000000     0.00000000     0.00000000
 H      1   0   0    11.767153775060     0.00000000     0.00000000
 C      1   2   0     4.284206150375   141.35977369     0.00000000
 C      2   1   3     4.128425195274    32.86339705     0.34280941
 N      4   2   1     4.284157989380    95.78079355     0.08531973
 C      2   1   3     2.035904190870     2.92918026     3.53991666
 H      4   2   1     2.035894309468   103.55530413   179.90701124
 C      5   4   2     5.856655341286   126.82809258     0.21163959
 N      1   2   6     5.731564958321   101.12435337   183.45655203
 C      9   1   2     4.284253304934   117.52976755   180.00756343
 C      8   5   4     2.684173416297    51.59344702     0.05111827
 C      8   5   4     4.225018414922   109.34597485   179.66737486
 N     12   8   5     2.575482656939    34.89222548     0.24565151
 C     12   8   5     2.740602958294    72.46275824   180.07175052
 C      5   4   2     2.575541109164    37.63314937   180.50541806
 C      5   4   2     2.575506756632    72.58641748     0.36330981
 C      1   2   6     2.575469515208    68.77191694     3.34948301
 C      1   2   6     2.575630121642   178.97075037    14.70592998
 C      3   1   2     2.573320676885    72.52309798     0.07378407
 C     15   5   4     2.684258537495   126.05123773   180.53742367
 C     18   1  17     2.684094856065   126.05206197   180.38454889
 C     14  12   8     2.573300232573   107.53664106     0.30455902
 C      9   1   2     2.575414567079    79.89631003   179.85746444
 C     10   9   1     2.573290756953    72.52334945   180.17075694
 C     12   8   5     2.684010337218   160.94073403     0.99277551
 C      9   1   2     2.575555828026   169.88676824   359.60781380
 H      3   1   2     2.035934118084   160.66065628   180.65688984
 H     19   3   1     2.035904386085   126.79181051   179.75899513
 H     22  14  12     2.035912641977   126.80909247   179.52265103
 H     14  12   8     2.035925362983   125.65684331   180.30577475
 H     24  10   9     2.035934811734   126.81660426   179.77309827
 H     10   9   1     2.035918104553   160.68000721     0.75406544
 Cd    13  12   8     4.052728808125   124.88913229   180.11559583
 C     11   8   5     2.834097268980   115.93179297   180.11580825
 C     34  11   8     2.640139638587   120.76738948   255.16980924
 C     35  34  11     2.628068683505   120.79511174   179.90944824
 C     36  35  34     2.627775955292   120.18369120     0.11306297
 C     37  36  35     2.627795182684   119.55241508   359.93986629
 C     38  37  36     2.628057469409   120.18578262   359.94908443
 H     35  34  11     2.046781593754   119.27710586     0.23019603
 H     36  35  34     2.046858656909   119.69802581   180.28345548
 H     37  36  35     2.046415166832   120.22234294   179.94262356
 H     38  37  36     2.046868447394   120.11268666   179.78514681
 H     39  38  37     2.046801626483   119.91553040   179.83176155
 C     20  15   5     2.833972077425   115.93770093   179.87380418
 C     45  20  15     2.640133072112   120.76713961   254.92722925
 C     46  45  20     2.628067441089   120.79886578   179.94805577
 C     47  46  45     2.627794362264   120.18624231     0.11744045
 C     48  47  46     2.627787450774   119.54805341   359.94259037
 C     49  48  47     2.628025780985   120.18711192   359.94809691
 H     46  45  20     2.046783979976   119.28375793     0.25681515
 H     47  46  45     2.046867816746   119.69796567   180.27828763
 H     48  47  46     2.046417146167   120.22740328   179.93951826
 H     49  48  47     2.046875850817   120.11647248   179.76605881
 H     50  49  48     2.046772434223   119.91592100   179.79604125
 C     21  18   1     2.834082002978   115.96147196   179.64337059
 C     56  21  18     2.640154197074   120.73150475   255.42390513
 C     57  56  21     2.628010740248   120.80188229   180.01087857
 C     58  57  56     2.627792635202   120.18696767     0.10537659
 C     59  58  57     2.627791081172   119.54498689   359.94724761
 C     60  59  58     2.628071467947   120.18937770   359.94786260
 H     57  56  21     2.046798274066   119.28894598     0.28208980
 H     58  57  56     2.046859999158   119.69626606   180.25545697
 H     59  58  57     2.046419959377   120.22920896   179.94654250
 H     60  59  58     2.046861392320   120.11630662   179.78011393
 H     61  60  59     2.046825006631   119.91082613   179.81218228
 C     25  12   8     2.834148676465   115.92851934   179.35228029
 C     67  25  12     2.640093236096   120.73917841    75.56881185
 C     68  67  25     2.628020569159   120.79913498   179.95591962
 C     69  68  67     2.627821505951   120.18824870     0.09799309
 C     70  69  68     2.627767109077   119.54591143   359.94521623
 C     71  70  69     2.628068858456   120.18679576   359.95030171
 H     68  67  25     2.046822530248   119.29777949     0.21256277
 H     69  68  67     2.046876950897   119.69831804   180.25645058
 H     70  69  68     2.046424282545   120.23113687   179.95226165
 H     71  70  69     2.046844681638   120.12040902   179.79842175
 H     72  71  70     2.046821915869   119.91684896   179.81504118

---------------------
BASIS SET INFORMATION
---------------------
There are 4 groups of distinct atoms

 Group   1 Type N   : 11s6p2d1f contracted to 5s3p2d1f pattern {62111/411/11/1}
 Group   2 Type H   : 5s1p contracted to 3s1p pattern {311/1}
 Group   3 Type C   : 11s6p2d1f contracted to 5s3p2d1f pattern {62111/411/11/1}
 Group   4 Type Cd  : 7s7p6d1f contracted to 6s4p3d1f pattern {211111/4111/411/1}

Atom   0N    basis set group =>   1
Atom   1H    basis set group =>   2
Atom   2C    basis set group =>   3
Atom   3C    basis set group =>   3
Atom   4N    basis set group =>   1
Atom   5C    basis set group =>   3
Atom   6H    basis set group =>   2
Atom   7C    basis set group =>   3
Atom   8N    basis set group =>   1
Atom   9C    basis set group =>   3
Atom  10C    basis set group =>   3
Atom  11C    basis set group =>   3
Atom  12N    basis set group =>   1
Atom  13C    basis set group =>   3
Atom  14C    basis set group =>   3
Atom  15C    basis set group =>   3
Atom  16C    basis set group =>   3
Atom  17C    basis set group =>   3
Atom  18C    basis set group =>   3
Atom  19C    basis set group =>   3
Atom  20C    basis set group =>   3
Atom  21C    basis set group =>   3
Atom  22C    basis set group =>   3
Atom  23C    basis set group =>   3
Atom  24C    basis set group =>   3
Atom  25C    basis set group =>   3
Atom  26H    basis set group =>   2
Atom  27H    basis set group =>   2
Atom  28H    basis set group =>   2
Atom  29H    basis set group =>   2
Atom  30H    basis set group =>   2
Atom  31H    basis set group =>   2
Atom  32Cd   basis set group =>   4
Atom  33C    basis set group =>   3
Atom  34C    basis set group =>   3
Atom  35C    basis set group =>   3
Atom  36C    basis set group =>   3
Atom  37C    basis set group =>   3
Atom  38C    basis set group =>   3
Atom  39H    basis set group =>   2
Atom  40H    basis set group =>   2
Atom  41H    basis set group =>   2
Atom  42H    basis set group =>   2
Atom  43H    basis set group =>   2
Atom  44C    basis set group =>   3
Atom  45C    basis set group =>   3
Atom  46C    basis set group =>   3
Atom  47C    basis set group =>   3
Atom  48C    basis set group =>   3
Atom  49C    basis set group =>   3
Atom  50H    basis set group =>   2
Atom  51H    basis set group =>   2
Atom  52H    basis set group =>   2
Atom  53H    basis set group =>   2
Atom  54H    basis set group =>   2
Atom  55C    basis set group =>   3
Atom  56C    basis set group =>   3
Atom  57C    basis set group =>   3
Atom  58C    basis set group =>   3
Atom  59C    basis set group =>   3
Atom  60C    basis set group =>   3
Atom  61H    basis set group =>   2
Atom  62H    basis set group =>   2
Atom  63H    basis set group =>   2
Atom  64H    basis set group =>   2
Atom  65H    basis set group =>   2
Atom  66C    basis set group =>   3
Atom  67C    basis set group =>   3
Atom  68C    basis set group =>   3
Atom  69C    basis set group =>   3
Atom  70C    basis set group =>   3
Atom  71C    basis set group =>   3
Atom  72H    basis set group =>   2
Atom  73H    basis set group =>   2
Atom  74H    basis set group =>   2
Atom  75H    basis set group =>   2
Atom  76H    basis set group =>   2
---------------------------------
AUXILIARY/J BASIS SET INFORMATION
---------------------------------
There are 4 groups of distinct atoms

 Group   1 Type N   : 12s5p4d2f1g contracted to 6s4p3d1f1g pattern {711111/2111/211/2/1}
 Group   2 Type H   : 5s2p1d contracted to 3s1p1d pattern {311/2/1}
 Group   3 Type C   : 12s5p4d2f1g contracted to 6s4p3d1f1g pattern {711111/2111/211/2/1}
 Group   4 Type Cd  : 11s5p5d3f3g contracted to 8s5p5d2f3g pattern {41111111/11111/11111/21/111}

Atom   0N    basis set group =>   1
Atom   1H    basis set group =>   2
Atom   2C    basis set group =>   3
Atom   3C    basis set group =>   3
Atom   4N    basis set group =>   1
Atom   5C    basis set group =>   3
Atom   6H    basis set group =>   2
Atom   7C    basis set group =>   3
Atom   8N    basis set group =>   1
Atom   9C    basis set group =>   3
Atom  10C    basis set group =>   3
Atom  11C    basis set group =>   3
Atom  12N    basis set group =>   1
Atom  13C    basis set group =>   3
Atom  14C    basis set group =>   3
Atom  15C    basis set group =>   3
Atom  16C    basis set group =>   3
Atom  17C    basis set group =>   3
Atom  18C    basis set group =>   3
Atom  19C    basis set group =>   3
Atom  20C    basis set group =>   3
Atom  21C    basis set group =>   3
Atom  22C    basis set group =>   3
Atom  23C    basis set group =>   3
Atom  24C    basis set group =>   3
Atom  25C    basis set group =>   3
Atom  26H    basis set group =>   2
Atom  27H    basis set group =>   2
Atom  28H    basis set group =>   2
Atom  29H    basis set group =>   2
Atom  30H    basis set group =>   2
Atom  31H    basis set group =>   2
Atom  32Cd   basis set group =>   4
Atom  33C    basis set group =>   3
Atom  34C    basis set group =>   3
Atom  35C    basis set group =>   3
Atom  36C    basis set group =>   3
Atom  37C    basis set group =>   3
Atom  38C    basis set group =>   3
Atom  39H    basis set group =>   2
Atom  40H    basis set group =>   2
Atom  41H    basis set group =>   2
Atom  42H    basis set group =>   2
Atom  43H    basis set group =>   2
Atom  44C    basis set group =>   3
Atom  45C    basis set group =>   3
Atom  46C    basis set group =>   3
Atom  47C    basis set group =>   3
Atom  48C    basis set group =>   3
Atom  49C    basis set group =>   3
Atom  50H    basis set group =>   2
Atom  51H    basis set group =>   2
Atom  52H    basis set group =>   2
Atom  53H    basis set group =>   2
Atom  54H    basis set group =>   2
Atom  55C    basis set group =>   3
Atom  56C    basis set group =>   3
Atom  57C    basis set group =>   3
Atom  58C    basis set group =>   3
Atom  59C    basis set group =>   3
Atom  60C    basis set group =>   3
Atom  61H    basis set group =>   2
Atom  62H    basis set group =>   2
Atom  63H    basis set group =>   2
Atom  64H    basis set group =>   2
Atom  65H    basis set group =>   2
Atom  66C    basis set group =>   3
Atom  67C    basis set group =>   3
Atom  68C    basis set group =>   3
Atom  69C    basis set group =>   3
Atom  70C    basis set group =>   3
Atom  71C    basis set group =>   3
Atom  72H    basis set group =>   2
Atom  73H    basis set group =>   2
Atom  74H    basis set group =>   2
Atom  75H    basis set group =>   2
Atom  76H    basis set group =>   2
-------------------------
ECP PARAMETER INFORMATION
-------------------------

 Group 1, Type Cd ECP Def2-ECP (replacing 28 core electrons, lmax=3)

Atom  32Cd   ECP group =>   1



           ************************************************************
           *        Program running with 8 parallel MPI-processes     *
           *              working on a common directory               *
           ************************************************************
------------------------------------------------------------------------------
                             ORCA STARTUP CALCULATIONS
                           -- RI-GTO INTEGRALS CHOSEN --
------------------------------------------------------------------------------
------------------------------------------------------------------------------
                   ___                                                        
                  /   \      - P O W E R E D   B Y -                         
                 /     \                                                     
                 |  |  |   _    _      __       _____    __    __             
                 |  |  |  | |  | |    /  \     |  _  \  |  |  /  |          
                  \  \/   | |  | |   /    \    | | | |  |  | /  /          
                 / \  \   | |__| |  /  /\  \   | |_| |  |  |/  /          
                |  |  |   |  __  | /  /__\  \  |    /   |      \           
                |  |  |   | |  | | |   __   |  |    \   |  |\   \          
                \     /   | |  | | |  |  |  |  | |\  \  |  | \   \       
                 \___/    |_|  |_| |__|  |__|  |_| \__\ |__|  \__/        
                                                                              
                      - O R C A' S   B I G   F R I E N D -                    
                                      &                                       
                       - I N T E G R A L  F E E D E R -                       
                                                                              
 v1 FN, 2020, v2 2021, v3 2022-2024                                           
------------------------------------------------------------------------------


----------------------
SHARK INTEGRAL PACKAGE
----------------------

Number of atoms                             ...     77
Number of basis functions                   ...   1696
Number of shells                            ...    654
Maximum angular momentum                    ...      3
Integral batch strategy                     ... SHARK/LIBINT Hybrid
RI-J (if used) integral strategy            ... SPLIT-RIJ (Revised 2003 algorithm where possible)
Printlevel                                  ...      1
Contraction scheme used                     ... SEGMENTED contraction
Prescreening option                         ... SCHWARTZ
   Thresh                                   ... 2.500e-11
   Tcut                                     ... 2.500e-12
   Tpresel                                  ... 2.500e-12 
Coulomb Range Separation                    ... NOT USED
Exchange Range Separation                   ... NOT USED
Multipole approximations                    ... NOT USED
Finite Nucleus Model                        ... NOT USED
CABS basis                                  ... NOT available
Auxiliary Coulomb fitting basis             ... AVAILABLE
   # of basis functions in Aux-J            ...   2749
   # of shells in Aux-J                     ...    883
   Maximum angular momentum in Aux-J        ...      4
Auxiliary J/K fitting basis                 ... NOT available
Auxiliary Correlation fitting basis         ... NOT available
Auxiliary 'external' fitting basis          ... NOT available

Checking pre-screening integrals            ... done (  0.0 sec) Dimension = 654
   => SHARK Basis and OBASIS are compatible. Storing Pre-screening
Shell pair information
Shell pair cut-off parameter TPreSel        ...   2.5e-12
Total number of shell pairs                 ...    214185
Shell pairs after pre-screening             ...    102923
Total number of primitive shell pairs       ...    661828
Primitive shell pairs kept                  ...    195318
          la=0 lb=0:  24466 shell pairs
          la=1 lb=0:  30251 shell pairs
          la=1 lb=1:   9264 shell pairs
          la=2 lb=0:  14569 shell pairs
          la=2 lb=1:   9131 shell pairs
          la=2 lb=2:   2183 shell pairs
          la=3 lb=0:   6534 shell pairs
          la=3 lb=1:   4213 shell pairs
          la=3 lb=2:   1859 shell pairs
          la=3 lb=3:    453 shell pairs

Checking whether 4 symmetric matrices of dimension 1696 fit in memory
:Max Core in MB      =   3000.00
 MB in use           =    125.13
 MB left             =   2874.87
 MB needed           =     43.92
 Data fit in memory  = YES
Calculating RI/J V-Matrix + Cholesky decomp.... done (  0.6 sec)
Calculating Nuclear repulsion               ... done (  0.0 sec) ENN=   6024.933714368106 Eh

Diagonalization of the overlap matrix:
Smallest eigenvalue                        ... 3.288e-06
Time for diagonalization                   ...    0.733 sec
Threshold for overlap eigenvalues          ... 1.000e-07
Number of eigenvalues below threshold      ... 0
Time for construction of square roots      ...    0.525 sec
Total time needed                          ...    1.332 sec

-------------------
DFT GRID GENERATION
-------------------

General Integration Accuracy     IntAcc      ... 4.959
Radial Grid Type                 RadialGrid  ... OptM3 with GC (2021)
Angular Grid (max. ang.)         AngularGrid ... 6 (Lebedev-590)
Angular grid pruning method      GridPruning ... 4 (adaptive)
Weight generation scheme         WeightScheme... mBecke (2022)
Basis function cutoff            BFCut       ... 1.0000e-11
Integration weight cutoff        WCut        ... 1.0000e-14
Partially contracted basis set               ... off
Rotationally invariant grid construction     ... off
Angular grids for H and He will be reduced by one unit

Total number of grid points                  ...   932479
Total number of batches                      ...    14611
Average number of points per batch           ...       63
Average number of grid points per atom       ...    12110
Grids setup in  19.8 sec
Initializing property integral containers    ... done (  0.0 sec)

SHARK setup successfully completed in  26.8 seconds

Maximum memory used throughout the entire STARTUP-calculation: 302.5 MB


           ************************************************************
           *        Program running with 8 parallel MPI-processes     *
           *              working on a common directory               *
           ************************************************************
-------------------------------------------------------------------------------
                                 ORCA GUESS
                   Start orbitals & Density for SCF / CASSCF
-------------------------------------------------------------------------------

------------
SCF SETTINGS
------------
Hamiltonian:
 Density Functional     Method          .... DFT(GTOs)
 Exchange Functional    Exchange        .... TPSS
 Correlation Functional Correlation     .... TPSS
 LDA part of GGA corr.  LDAOpt          .... PW91-LDA
 Gradients option       PostSCFGGA      .... off
   NL short-range parameter             ....  5.000000
 RI-approximation to the Coulomb term is turned on
   Number of AuxJ basis functions       .... 2749


General Settings:
 Integral files         IntName         .... tddft
 Hartree-Fock type      HFTyp           .... RHF
 Total Charge           Charge          ....    0
 Multiplicity           Mult            ....    1
 Number of Electrons    NEL             ....  340
 Basis Dimension        Dim             .... 1696
 Nuclear Repulsion      ENuc            ....   6024.9337143681 Eh

Convergence Acceleration:
 AO-DIIS                CNVDIIS         .... on
   Start iteration      DIISMaxIt       ....    12
   Startup error        DIISStart       ....  0.200000
   # of expansion vecs  DIISMaxEq       ....     5
   Bias factor          DIISBfac        ....   1.050
   Max. coefficient     DIISMaxC        ....  10.000
 MO-DIIS                CNVKDIIS        .... off
 Trust-Rad. Augm. Hess. CNVTRAH         .... auto
   Auto Start mean grad. ratio tolernc. ....  1.125000
   Auto Start start iteration           ....    50
   Auto Start num. interpolation iter.  ....    10
   Max. Number of Micro iterations      ....    24
   Max. Number of Macro iterations      .... Maxiter - #DIIS iter
   Number of Davidson start vectors     ....     2
   Converg. threshold    (grad. norm)   ....   1.000e-05
   Grad. Scal. Fac. for Micro threshold ....   0.100
   Minimum threshold for Micro iter.    ....   1.000e-02
   NR start threshold (gradient norm)   ....   1.000e-04
   Initial trust radius                 ....   0.400
   Minimum AH scaling param. (alpha)    ....   1.000
   Maximum AH scaling param. (alpha)    .... 1000.000
   Quad. conv. algorithm                .... NR
   White noise on init. David. guess    .... on
   Maximum white noise                  ....   0.010
   Pseudo random numbers                .... off
   Inactive MOs                         .... canonical
   Orbital update algorithm             .... Taylor
   Preconditioner                       .... Diag
   Full preconditioner red. dimension   ....   250
 SOSCF                 CNVSOSCF           .... on
   Start iteration     SOSCFMaxIt         ....   150
   Startup grad/error  SOSCFStart         ....  0.003300
   Hessian update      SOSCFHessUp        .... L-BFGS
   Autom. constraints  SOSCFAutoConstrain .... off
 Level Shifting         CNVShift        .... on
   Level shift para.    LevelShift      ....    0.2500
   Turn off err/grad.   ShiftErr        ....    0.0010
 Zerner damping         CNVZerner       .... off
 Static damping         CNVDamp         .... on
   Fraction old density DampFac         ....    0.7000
   Max. Damping (<1)    DampMax         ....    0.9800
   Min. Damping (>=0)   DampMin         ....    0.0000
   Turn off err/grad.   DampErr         ....    0.1000

SCF Procedure:
 Maximum # iterations   MaxIter         ....   125
 SCF integral mode      SCFMode         .... Direct
   Integral package                     .... SHARK and LIBINT hybrid scheme
 Reset frequency        DirectResetFreq ....    20
 Integral Threshold     Thresh          ....  2.500e-11 Eh
 Primitive CutOff       TCut            ....  2.500e-12 Eh

Convergence Tolerance:
 Convergence Check Mode ConvCheckMode   .... Total+1el-Energy
 Convergence forced     ConvForced      .... 1
 Energy Change          TolE            ....  1.000e-08 Eh
 1-El. energy change                    ....  1.000e-05 Eh
 Orbital Gradient       TolG            ....  1.000e-05
 Orbital Rotation angle TolX            ....  1.000e-05
 DIIS Error             TolErr          ....  5.000e-07

------------------------------
INITIAL GUESS: MODEL POTENTIAL
------------------------------
Loading Hartree-Fock densities                     ... done
Atomic calculation to generate a density for atom 32 (Cd with ECP)
  Multiplicity assumed   :    1
  Atomic configuration   : 1s2 2s2 2p6 3s2 3p6 4s2 3d10 4p6 5s2 4d10 
  Number of open shells  : 1
  Command: /opt/orca/orca tddft_atom48.inp "" > tddft_atom48.out
Returned from the atomic calculation with res=0
Calculating cut-offs                               ... done
Initializing the effective Hamiltonian             ... done
Setting up the integral package (SHARK)            ... done
Starting the Coulomb interaction                   ... done (   5.2 sec)
Making the grid                                    ... done (   1.3 sec)
Mapping shells                                     ... done
Starting the XC term evaluation                    ... done (   1.6 sec)
  promolecular density results
     # of electrons  =    367.983777213
     EX              =   -407.910380422
     EC              =    -13.361124010
     EX+EC           =   -421.271504432
Transforming the Hamiltonian                       ... done (   0.4 sec)
Diagonalizing the Hamiltonian                      ... done (   0.7 sec)
Back transforming the eigenvectors                 ... done (   0.4 sec)
Now organizing SCF variables                       ... done
                      ------------------
                      INITIAL GUESS DONE (  11.4 sec)
                      ------------------
             **** ENERGY FILE WAS UPDATED (tddft.en.tmp) ****
Finished Guess after  13.8 sec
Maximum memory used throughout the entire GUESS-calculation: 203.8 MB


           ************************************************************
           *        Program running with 8 parallel MPI-processes     *
           *              working on a common directory               *
           ************************************************************

-------------------------------------------------------------------------------------------
                                      ORCA LEAN-SCF
                              memory conserving SCF solver
-------------------------------------------------------------------------------------------

--------------------
CPCM SOLVATION MODEL
--------------------
CPCM parameters:
  Epsilon                                         ...       2.3870
  Refrac                                          ...       1.4961
  Rsolv                                           ...       1.3000
  Surface type                                    ... GAUSSIAN VDW
  Discretization scheme                           ... Constant charge density
    Threshold for H atoms                         ...       5.0000 (charges/Ang^2)
    Threshold for non-H atoms                     ...       5.0000 (charges/Ang^2)
  Epsilon function type                           ...         CPCM
Solvent:                                          ... TOLUENE
Radii:
  Scheme                                          ... Element-dependent radii
  Radius for N  used is    3.5149 Bohr (=   1.8600 Ang.)
  Radius for H  used is    2.4944 Bohr (=   1.3200 Ang.)
  Radius for C  used is    3.8550 Bohr (=   2.0400 Ang.)
  Radius for Cd used is    3.5829 Bohr (=   1.8960 Ang.)
Calculating surface                               ...        done! (  0.1s)
Cavity surface points                             ...         6818
Cavity Volume                                     ...    4957.4798
Cavity Surface-area                               ...    2298.4400
Calculating surface distance matrix               ...        done! (  1.0s)
Performing Cholesky decomposition & store         ...        done! (  2.9s)
Overall time for CPCM initialization              ...                 3.9s

----------------------------------------D-I-I-S--------------------------------------------
Iteration    Energy (Eh)           Delta-E    RMSDP     MaxDP     DIISErr   Damp  Time(sec)
-------------------------------------------------------------------------------------------
               ***  Starting incremental Fock matrix formation  ***
    1    -2080.4407120672076417     0.00e+00  2.26e-03  1.02e-01  4.96e-01  0.700  44.4
Warning: op=0 Small HOMO/LUMO gap (   0.058) - skipping pre-diagonalization
         Will do a full diagonalization
    2    -2080.8516609110638456    -4.11e-01  2.10e-03  7.63e-02  3.42e-01  0.700  39.1
    3    -2081.0170425441447151    -1.65e-01  1.11e-03  3.03e-02  2.36e-01  0.700  49.2
                               ***Turning on AO-DIIS***
    4    -2081.1078807135463649    -9.08e-02  5.98e-04  1.87e-02  1.63e-01  0.700  43.9
    5    -2081.1732338705278380    -6.54e-02  4.92e-04  1.83e-02  1.13e-01  0.700  33.4
    6    -2081.2188705979133374    -4.56e-02  3.92e-04  1.53e-02  7.91e-02  0.700  40.5
    7    -2081.2507460656679541    -3.19e-02  9.65e-04  3.78e-02  5.54e-02  0.000  48.0
                              *** Initializing SOSCF ***
---------------------------------------S-O-S-C-F--------------------------------------
Iteration    Energy (Eh)           Delta-E    RMSDP     MaxDP     MaxGrad    Time(sec)
--------------------------------------------------------------------------------------
    8    -2081.3249155189641897    -7.42e-02  6.74e-05  2.34e-03  1.07e-03    35.2
               *** Restarting incremental Fock matrix formation ***
    9    -2081.3249328874890125    -1.74e-05  9.60e-05  2.85e-03  3.17e-04    54.0
   10    -2081.3249090355038788     2.39e-05  2.26e-05  1.12e-03  7.81e-04    43.3
   11    -2081.3249427619057315    -3.37e-05  2.36e-05  6.38e-04  6.57e-05    28.0
   12    -2081.3249417991228256     9.63e-07  9.26e-06  5.17e-04  1.06e-04    28.5
   13    -2081.3249434401877807    -1.64e-06  1.78e-05  7.18e-04  1.14e-05    38.9
   14    -2081.3249434946865222    -5.45e-08  6.14e-06  1.86e-04  1.71e-05    38.6
   15    -2081.3249434738072523     2.09e-08  2.11e-05  1.37e-03  1.72e-06    27.3
                  *** Gradient check signals convergence ***

               *****************************************************
               *                     SUCCESS                       *
               *           SCF CONVERGED AFTER  15 CYCLES          *
               *****************************************************

             **** ENERGY FILE WAS UPDATED (tddft.en.tmp) ****

----------------
TOTAL SCF ENERGY
----------------

Total Energy       :      -2081.32494344799215 Eh          -56635.73102 eV

Components:
Nuclear Repulsion  :       6024.93371436810594 Eh          163946.78126 eV
Electronic Energy  :      -8106.24709048714340 Eh         -220582.19751 eV
One Electron Energy:     -14888.48419321164693 Eh         -405136.25163 eV
Two Electron Energy:       6782.23710272450353 Eh          184554.05411 eV
CPCM Dielectric    :         -0.01156732895466 Eh              -0.31476 eV

Virial components:
Potential Energy   :      -4051.14270366340133 Eh         -110237.19732 eV
Kinetic Energy     :       1969.81776021540941 Eh           53601.46630 eV
Virial Ratio       :          2.05660786773513

DFT components:
N(Alpha)           :      170.000019660147 electrons
N(Beta)            :      170.000019660147 electrons
N(Total)           :      340.000039320293 electrons
E(X)               :     -281.701288123955 Eh       
E(C)               :      -11.705661460990 Eh       
E(XC)              :     -293.406949584946 Eh       

CPCM Solvation Model Properties:
Surface-charge          :         -0.04927717712619
Corrected charge        :          0.00000000000000
Outlying charge corr.   :          0.00005523922216 Eh               0.00150 eV
Free-energy (cav+disp)  :  This term is not implemented in the current solvation scheme

---------------
SCF CONVERGENCE
---------------

  Last Energy change         ...   -2.0879e-08  Tolerance :   1.0000e-08
  Last MAX-Density change    ...    1.3675e-03  Tolerance :   1.0000e-07
  Last RMS-Density change    ...    2.1140e-05  Tolerance :   5.0000e-09
  Last DIIS Error            ...    1.0743e-03  Tolerance :   5.0000e-07
  Last Orbital Gradient      ...    1.7204e-06  Tolerance :   1.0000e-05
  Last Orbital Rotation      ...    7.3969e-06  Tolerance :   1.0000e-05


----------------
ORBITAL ENERGIES
----------------

  NO   OCC          E(Eh)            E(eV) 
   0   2.0000     -14.096091      -383.5741 
   1   2.0000     -14.096087      -383.5740 
   2   2.0000     -14.096074      -383.5737 
   3   2.0000     -14.096064      -383.5734 
   4   2.0000     -10.023864      -272.7632 
   5   2.0000     -10.023849      -272.7628 
   6   2.0000     -10.023845      -272.7627 
   7   2.0000     -10.023839      -272.7625 
   8   2.0000     -10.023830      -272.7623 
   9   2.0000     -10.023829      -272.7623 
  10   2.0000     -10.023819      -272.7620 
  11   2.0000     -10.023807      -272.7617 
  12   2.0000     -10.013400      -272.4785 
  13   2.0000     -10.013371      -272.4777 
  14   2.0000     -10.013370      -272.4777 
  15   2.0000     -10.013337      -272.4768 
  16   2.0000     -10.000682      -272.1324 
  17   2.0000     -10.000672      -272.1321 
  18   2.0000     -10.000664      -272.1319 
  19   2.0000     -10.000663      -272.1319 
  20   2.0000      -9.989380      -271.8248 
  21   2.0000      -9.989371      -271.8246 
  22   2.0000      -9.989369      -271.8245 
  23   2.0000      -9.989363      -271.8244 
  24   2.0000      -9.989349      -271.8240 
  25   2.0000      -9.989341      -271.8238 
  26   2.0000      -9.989340      -271.8238 
  27   2.0000      -9.989335      -271.8236 
  28   2.0000      -9.989026      -271.8152 
  29   2.0000      -9.989018      -271.8150 
  30   2.0000      -9.989016      -271.8149 
  31   2.0000      -9.989011      -271.8148 
  32   2.0000      -9.988923      -271.8124 
  33   2.0000      -9.988916      -271.8122 
  34   2.0000      -9.988915      -271.8122 
  35   2.0000      -9.988908      -271.8120 
  36   2.0000      -9.988466      -271.8000 
  37   2.0000      -9.988462      -271.7999 
  38   2.0000      -9.988457      -271.7997 
  39   2.0000      -9.988452      -271.7996 
  40   2.0000      -9.984708      -271.6977 
  41   2.0000      -9.984705      -271.6976 
  42   2.0000      -9.984703      -271.6976 
  43   2.0000      -9.984700      -271.6975 
  44   2.0000      -9.984185      -271.6835 
  45   2.0000      -9.984182      -271.6834 
  46   2.0000      -9.984180      -271.6834 
  47   2.0000      -9.984177      -271.6833 
  48   2.0000      -3.971872      -108.0801 
  49   2.0000      -2.521297       -68.6080 
  50   2.0000      -2.509946       -68.2991 
  51   2.0000      -2.509942       -68.2990 
  52   2.0000      -0.899492       -24.4764 
  53   2.0000      -0.891758       -24.2660 
  54   2.0000      -0.891748       -24.2657 
  55   2.0000      -0.884591       -24.0709 
  56   2.0000      -0.807165       -21.9641 
  57   2.0000      -0.804247       -21.8847 
  58   2.0000      -0.804240       -21.8845 
  59   2.0000      -0.802753       -21.8440 
  60   2.0000      -0.761709       -20.7272 
  61   2.0000      -0.746175       -20.3044 
  62   2.0000      -0.746173       -20.3044 
  63   2.0000      -0.729618       -19.8539 
  64   2.0000      -0.707729       -19.2583 
  65   2.0000      -0.706703       -19.2304 
  66   2.0000      -0.706697       -19.2302 
  67   2.0000      -0.703457       -19.1420 
  68   2.0000      -0.693166       -18.8620 
  69   2.0000      -0.692903       -18.8548 
  70   2.0000      -0.692895       -18.8546 
  71   2.0000      -0.692780       -18.8515 
  72   2.0000      -0.685279       -18.6474 
  73   2.0000      -0.678650       -18.4670 
  74   2.0000      -0.678645       -18.4669 
  75   2.0000      -0.664316       -18.0770 
  76   2.0000      -0.653119       -17.7723 
  77   2.0000      -0.608633       -16.5618 
  78   2.0000      -0.608631       -16.5617 
  79   2.0000      -0.571558       -15.5529 
  80   2.0000      -0.559835       -15.2339 
  81   2.0000      -0.559147       -15.2152 
  82   2.0000      -0.559138       -15.2149 
  83   2.0000      -0.558751       -15.2044 
  84   2.0000      -0.550595       -14.9825 
  85   2.0000      -0.550593       -14.9824 
  86   2.0000      -0.545433       -14.8420 
  87   2.0000      -0.545285       -14.8380 
  88   2.0000      -0.532777       -14.4976 
  89   2.0000      -0.515939       -14.0394 
  90   2.0000      -0.515935       -14.0393 
  91   2.0000      -0.508607       -13.8399 
  92   2.0000      -0.504805       -13.7364 
  93   2.0000      -0.500853       -13.6289 
  94   2.0000      -0.489649       -13.3240 
  95   2.0000      -0.482324       -13.1247 
  96   2.0000      -0.482319       -13.1246 
  97   2.0000      -0.476432       -12.9644 
  98   2.0000      -0.471332       -12.8256 
  99   2.0000      -0.471328       -12.8255 
 100   2.0000      -0.460252       -12.5241 
 101   2.0000      -0.448046       -12.1920 
 102   2.0000      -0.448043       -12.1919 
 103   2.0000      -0.426793       -11.6136 
 104   2.0000      -0.426780       -11.6133 
 105   2.0000      -0.424765       -11.5585 
 106   2.0000      -0.417760       -11.3678 
 107   2.0000      -0.416931       -11.3453 
 108   2.0000      -0.416091       -11.3224 
 109   2.0000      -0.415341       -11.3020 
 110   2.0000      -0.412369       -11.2211 
 111   2.0000      -0.412361       -11.2209 
 112   2.0000      -0.410829       -11.1792 
 113   2.0000      -0.409419       -11.1409 
 114   2.0000      -0.409411       -11.1406 
 115   2.0000      -0.406023       -11.0484 
 116   2.0000      -0.404215       -10.9993 
 117   2.0000      -0.383825       -10.4444 
 118   2.0000      -0.381692       -10.3864 
 119   2.0000      -0.380801       -10.3621 
 120   2.0000      -0.380791       -10.3619 
 121   2.0000      -0.380529       -10.3547 
 122   2.0000      -0.378769       -10.3068 
 123   2.0000      -0.378768       -10.3068 
 124   2.0000      -0.378503       -10.2996 
 125   2.0000      -0.378016       -10.2863 
 126   2.0000      -0.370671       -10.0865 
 127   2.0000      -0.366510        -9.9733 
 128   2.0000      -0.366503        -9.9730 
 129   2.0000      -0.359775        -9.7900 
 130   2.0000      -0.359772        -9.7899 
 131   2.0000      -0.358815        -9.7639 
 132   2.0000      -0.346316        -9.4237 
 133   2.0000      -0.344041        -9.3618 
 134   2.0000      -0.341493        -9.2925 
 135   2.0000      -0.339297        -9.2327 
 136   2.0000      -0.339292        -9.2326 
 137   2.0000      -0.332364        -9.0441 
 138   2.0000      -0.330710        -8.9991 
 139   2.0000      -0.330705        -8.9989 
 140   2.0000      -0.323899        -8.8137 
 141   2.0000      -0.320842        -8.7306 
 142   2.0000      -0.311512        -8.4767 
 143   2.0000      -0.311272        -8.4701 
 144   2.0000      -0.308239        -8.3876 
 145   2.0000      -0.308230        -8.3874 
 146   2.0000      -0.307443        -8.3660 
 147   2.0000      -0.306283        -8.3344 
 148   2.0000      -0.306280        -8.3343 
 149   2.0000      -0.297371        -8.0919 
 150   2.0000      -0.283256        -7.7078 
 151   2.0000      -0.277372        -7.5477 
 152   2.0000      -0.277360        -7.5473 
 153   2.0000      -0.255221        -6.9449 
 154   2.0000      -0.255219        -6.9449 
 155   2.0000      -0.234797        -6.3891 
 156   2.0000      -0.234685        -6.3861 
 157   2.0000      -0.233817        -6.3625 
 158   2.0000      -0.233807        -6.3622 
 159   2.0000      -0.233510        -6.3541 
 160   2.0000      -0.231486        -6.2991 
 161   2.0000      -0.230130        -6.2622 
 162   2.0000      -0.229130        -6.2349 
 163   2.0000      -0.229125        -6.2348 
 164   2.0000      -0.219886        -5.9834 
 165   2.0000      -0.218869        -5.9557 
 166   2.0000      -0.218858        -5.9554 
 167   2.0000      -0.188406        -5.1268 
 168   2.0000      -0.179494        -4.8843 
 169   2.0000      -0.177047        -4.8177 
 170   0.0000      -0.107191        -2.9168 
 171   0.0000      -0.107189        -2.9168 
 172   0.0000      -0.059718        -1.6250 
 173   0.0000      -0.040550        -1.1034 
 174   0.0000      -0.039382        -1.0716 
 175   0.0000      -0.039378        -1.0715 
 176   0.0000      -0.038499        -1.0476 
 177   0.0000      -0.037446        -1.0190 
 178   0.0000      -0.037409        -1.0180 
 179   0.0000      -0.036314        -0.9881 
 180   0.0000      -0.036308        -0.9880 
*Only the first 10 virtual orbitals were printed.

                    ********************************
                    * MULLIKEN POPULATION ANALYSIS *
                    ********************************

-----------------------
MULLIKEN ATOMIC CHARGES
-----------------------
   0 N :   -0.314920
   1 H :    0.135906
   2 C :   -0.213813
   3 C :   -0.213876
   4 N :   -0.315323
   5 C :   -0.213987
   6 H :    0.135953
   7 C :    0.213807
   8 N :   -0.315377
   9 C :   -0.213866
  10 C :   -0.037355
  11 C :    0.215052
  12 N :   -0.314953
  13 C :   -0.213776
  14 C :    0.214157
  15 C :    0.214382
  16 C :    0.214613
  17 C :    0.214090
  18 C :   -0.213943
  19 C :   -0.037425
  20 C :   -0.038107
  21 C :   -0.213767
  22 C :    0.214813
  23 C :   -0.213637
  24 C :   -0.039256
  25 C :    0.214666
  26 H :    0.135806
  27 H :    0.136004
  28 H :    0.135917
  29 H :    0.135857
  30 H :    0.135890
  31 H :    0.135962
  32 Cd:    0.588560
  33 C :    0.065657
  34 C :   -0.176506
  35 C :   -0.128564
  36 C :   -0.093582
  37 C :   -0.128742
  38 C :   -0.176371
  39 H :    0.110881
  40 H :    0.115539
  41 H :    0.118310
  42 H :    0.115544
  43 H :    0.110883
  44 C :    0.066657
  45 C :   -0.177383
  46 C :   -0.128397
  47 C :   -0.093675
  48 C :   -0.128296
  49 C :   -0.177350
  50 H :    0.110903
  51 H :    0.115570
  52 H :    0.118295
  53 H :    0.115541
  54 H :    0.110901
  55 C :    0.063837
  56 C :   -0.175039
  57 C :   -0.129477
  58 C :   -0.093010
  59 C :   -0.129382
  60 C :   -0.174884
  61 H :    0.110816
  62 H :    0.115519
  63 H :    0.118311
  64 H :    0.115503
  65 H :    0.110776
  66 C :    0.063162
  67 C :   -0.174451
  68 C :   -0.129461
  69 C :   -0.092983
  70 C :   -0.129723
  71 C :   -0.174297
  72 H :    0.110762
  73 H :    0.115539
  74 H :    0.118312
  75 H :    0.115521
  76 H :    0.110779
Sum of atomic charges:    0.0000000

--------------------------------
MULLIKEN REDUCED ORBITAL CHARGES
--------------------------------
  0 N s       :     3.637488  s :     3.637488
      pz      :     1.337033  p :     3.604548
      px      :     1.229674
      py      :     1.037841
      dz2     :     0.005268  d :     0.068819
      dxz     :     0.007421
      dyz     :     0.015625
      dx2y2   :     0.020921
      dxy     :     0.019584
      f0      :     0.000682  f :     0.004065
      f+1     :     0.000330
      f-1     :     0.000444
      f+2     :     0.000181
      f-2     :     0.000627
      f+3     :     0.000741
      f-3     :     0.001061

  1 H s       :     0.843633  s :     0.843633
      pz      :     0.004836  p :     0.020461
      px      :     0.007550
      py      :     0.008075

  2 C s       :     3.303913  s :     3.303913
      pz      :     0.993256  p :     2.813170
      px      :     0.901559
      py      :     0.918355
      dz2     :     0.005784  d :     0.088751
      dxz     :     0.009861
      dyz     :     0.018451
      dx2y2   :     0.019945
      dxy     :     0.034709
      f0      :     0.001306  f :     0.007980
      f+1     :     0.000850
      f-1     :     0.000590
      f+2     :     0.001014
      f-2     :     0.000441
      f+3     :     0.002313
      f-3     :     0.001465

  3 C s       :     3.303821  s :     3.303821
      pz      :     0.993991  p :     2.813317
      px      :     0.919314
      py      :     0.900012
      dz2     :     0.005339  d :     0.088758
      dxz     :     0.019068
      dyz     :     0.009740
      dx2y2   :     0.019871
      dxy     :     0.034740
      f0      :     0.001357  f :     0.007980
      f+1     :     0.000501
      f-1     :     0.000858
      f+2     :     0.001059
      f-2     :     0.000428
      f+3     :     0.001445
      f-3     :     0.002333

  4 N s       :     3.637330  s :     3.637330
      pz      :     1.338463  p :     3.605108
      px      :     1.035611
      py      :     1.231034
      dz2     :     0.005109  d :     0.068819
      dxz     :     0.015836
      dyz     :     0.007341
      dx2y2   :     0.020877
      dxy     :     0.019656
      f0      :     0.000686  f :     0.004065
      f+1     :     0.000432
      f-1     :     0.000336
      f+2     :     0.000177
      f-2     :     0.000622
      f+3     :     0.001070
      f-3     :     0.000741

  5 C s       :     3.304010  s :     3.304010
      pz      :     0.988034  p :     2.813239
      px      :     0.921950
      py      :     0.903255
      dz2     :     0.005640  d :     0.088759
      dxz     :     0.017036
      dyz     :     0.011468
      dx2y2   :     0.018914
      dxy     :     0.035702
      f0      :     0.001341  f :     0.007979
      f+1     :     0.000560
      f-1     :     0.000818
      f+2     :     0.001327
      f-2     :     0.000156
      f+3     :     0.001567
      f-3     :     0.002210

  6 H s       :     0.843585  s :     0.843585
      pz      :     0.004857  p :     0.020462
      px      :     0.006236
      py      :     0.009369

  7 C s       :     3.187809  s :     3.187809
      pz      :     0.944078  p :     2.411946
      px      :     0.762612
      py      :     0.705256
      dz2     :     0.005306  d :     0.171766
      dxz     :     0.028357
      dyz     :     0.035659
      dx2y2   :     0.056506
      dxy     :     0.045938
      f0      :     0.001983  f :     0.014672
      f+1     :     0.000897
      f-1     :     0.001125
      f+2     :     0.000742
      f-2     :     0.002326
      f+3     :     0.003570
      f-3     :     0.004030

  8 N s       :     3.637403  s :     3.637403
      pz      :     1.338562  p :     3.605088
      px      :     1.035547
      py      :     1.230979
      dz2     :     0.005103  d :     0.068820
      dxz     :     0.015846
      dyz     :     0.007343
      dx2y2   :     0.020874
      dxy     :     0.019655
      f0      :     0.000686  f :     0.004065
      f+1     :     0.000432
      f-1     :     0.000336
      f+2     :     0.000177
      f-2     :     0.000622
      f+3     :     0.001070
      f-3     :     0.000741

  9 C s       :     3.304024  s :     3.304024
      pz      :     0.994391  p :     2.813076
      px      :     0.921555
      py      :     0.897130
      dz2     :     0.005536  d :     0.088786
      dxz     :     0.017034
      dyz     :     0.011544
      dx2y2   :     0.018988
      dxy     :     0.035684
      f0      :     0.001342  f :     0.007980
      f+1     :     0.000565
      f-1     :     0.000817
      f+2     :     0.001325
      f-2     :     0.000154
      f+3     :     0.001567
      f-3     :     0.002212

 10 C s       :     3.372787  s :     3.372787
      pz      :     0.971452  p :     2.529007
      px      :     0.773330
      py      :     0.784225
      dz2     :     0.003629  d :     0.126018
      dxz     :     0.022335
      dyz     :     0.023741
      dx2y2   :     0.033100
      dxy     :     0.043213
      f0      :     0.001434  f :     0.009544
      f+1     :     0.000747
      f-1     :     0.000772
      f+2     :     0.000812
      f-2     :     0.001190
      f+3     :     0.002641
      f-3     :     0.001948

 11 C s       :     3.188230  s :     3.188230
      pz      :     0.943901  p :     2.410206
      px      :     0.754480
      py      :     0.711825
      dz2     :     0.005356  d :     0.171837
      dxz     :     0.027351
      dyz     :     0.036612
      dx2y2   :     0.051277
      dxy     :     0.051242
      f0      :     0.001982  f :     0.014674
      f+1     :     0.000831
      f-1     :     0.001192
      f+2     :     0.001235
      f-2     :     0.001842
      f+3     :     0.002561
      f-3     :     0.005032

 12 N s       :     3.637540  s :     3.637540
      pz      :     1.336533  p :     3.604528
      px      :     1.229642
      py      :     1.038354
      dz2     :     0.005307  d :     0.068820
      dxz     :     0.007431
      dyz     :     0.015580
      dx2y2   :     0.020929
      dxy     :     0.019573
      f0      :     0.000679  f :     0.004065
      f+1     :     0.000330
      f-1     :     0.000447
      f+2     :     0.000182
      f-2     :     0.000627
      f+3     :     0.000740
      f-3     :     0.001060

 13 C s       :     3.304071  s :     3.304071
      pz      :     0.991218  p :     2.812950
      px      :     0.898767
      py      :     0.922965
      dz2     :     0.005563  d :     0.088775
      dxz     :     0.011867
      dyz     :     0.016728
      dx2y2   :     0.019017
      dxy     :     0.035601
      f0      :     0.001323  f :     0.007980
      f+1     :     0.000767
      f-1     :     0.000647
      f+2     :     0.001294
      f-2     :     0.000170
      f+3     :     0.002191
      f-3     :     0.001587

 14 C s       :     3.187807  s :     3.187807
      pz      :     0.943395  p :     2.411619
      px      :     0.704109
      py      :     0.764115
      dz2     :     0.004882  d :     0.171746
      dxz     :     0.036414
      dyz     :     0.028075
      dx2y2   :     0.056378
      dxy     :     0.045997
      f0      :     0.002013  f :     0.014671
      f+1     :     0.001087
      f-1     :     0.000893
      f+2     :     0.000757
      f-2     :     0.002300
      f+3     :     0.004048
      f-3     :     0.003573

 15 C s       :     3.188544  s :     3.188544
      pz      :     0.943860  p :     2.410589
      px      :     0.710968
      py      :     0.755760
      dz2     :     0.005085  d :     0.171811
      dxz     :     0.037744
      dyz     :     0.026810
      dx2y2   :     0.051029
      dxy     :     0.051144
      f0      :     0.002012  f :     0.014674
      f+1     :     0.001110
      f-1     :     0.000866
      f+2     :     0.001203
      f-2     :     0.001850
      f+3     :     0.005066
      f-3     :     0.002569

 16 C s       :     3.188599  s :     3.188599
      pz      :     0.941903  p :     2.410266
      px      :     0.754481
      py      :     0.713882
      dz2     :     0.005332  d :     0.171847
      dxz     :     0.027614
      dyz     :     0.036835
      dx2y2   :     0.051134
      dxy     :     0.050932
      f0      :     0.001985  f :     0.014674
      f+1     :     0.000828
      f-1     :     0.001183
      f+2     :     0.001241
      f-2     :     0.001838
      f+3     :     0.002569
      f-3     :     0.005030

 17 C s       :     3.187635  s :     3.187635
      pz      :     0.941604  p :     2.411831
      px      :     0.762617
      py      :     0.707610
      dz2     :     0.005175  d :     0.171773
      dxz     :     0.028632
      dyz     :     0.035858
      dx2y2   :     0.056399
      dxy     :     0.045709
      f0      :     0.001984  f :     0.014671
      f+1     :     0.000889
      f-1     :     0.001125
      f+2     :     0.000743
      f-2     :     0.002330
      f+3     :     0.003573
[...]
  0-1A  -> 26-1A    3.486521   28120.7   355.6   0.000002056   0.00002   0.00091  -0.00480   0.00044
  0-1A  -> 27-1A    3.495421   28192.5   354.7   0.023532871   0.27480  -0.27360   0.44560  -0.03725
  0-1A  -> 28-1A    3.495543   28193.5   354.7   0.023387573   0.27309  -0.44706  -0.26853   0.03350
  0-1A  -> 29-1A    3.503841   28260.4   353.9   0.017376430   0.20242  -0.37473  -0.24726   0.02927
  0-1A  -> 30-1A    3.503994   28261.6   353.8   0.017118559   0.19941  -0.24553   0.37168  -0.03121

----------------------------------------------------------------------------------------------------
                     ABSORPTION SPECTRUM VIA TRANSITION VELOCITY DIPOLE MOMENTS    
----------------------------------------------------------------------------------------------------
     Transition      Energy     Energy  Wavelength fosc(P2)      P2        PX        PY        PZ   
                      (eV)      (cm-1)    (nm)                 (au**2)    (au)      (au)      (au)  
----------------------------------------------------------------------------------------------------
  0-1A  ->  1-1A    1.994174   16084.1   621.7   0.000002741   0.00000   0.00053  -0.00013  -0.00000
  0-1A  ->  2-1A    1.994209   16084.4   621.7   0.000002292   0.00000   0.00003   0.00050  -0.00005
  0-1A  ->  3-1A    2.225438   17949.4   557.1   0.012779932   0.00157  -0.00103   0.03940  -0.00379
  0-1A  ->  4-1A    2.225471   17949.6   557.1   0.012787579   0.00157   0.03959   0.00095  -0.00078
  0-1A  ->  5-1A    3.135167   25286.8   395.5   0.128940189   0.02228  -0.01523   0.14784  -0.01397
  0-1A  ->  6-1A    3.135383   25288.6   395.4   0.128907698   0.02228   0.14845   0.01506  -0.00392
  0-1A  ->  7-1A    3.151926   25422.0   393.4   0.000042637   0.00001   0.00262  -0.00058   0.00043
  0-1A  ->  8-1A    3.180614   25653.4   389.8   0.000000026   0.00000  -0.00005   0.00004   0.00001
  0-1A  ->  9-1A    3.205584   25854.8   386.8   0.000000267   0.00000   0.00003  -0.00021  -0.00002
  0-1A  -> 10-1A    3.233364   26078.8   383.5   0.062396017   0.01112  -0.09743  -0.03998   0.00545
  0-1A  -> 11-1A    3.233445   26079.5   383.4   0.062516716   0.01114  -0.04032   0.09717  -0.00866
  0-1A  -> 12-1A    3.265170   26335.4   379.7   0.000003558   0.00000   0.00002   0.00080  -0.00005
  0-1A  -> 13-1A    3.270118   26375.3   379.1   0.000004024   0.00000  -0.00029  -0.00079   0.00014
  0-1A  -> 14-1A    3.314432   26732.7   374.1   0.000000078   0.00000  -0.00003  -0.00011   0.00001
  0-1A  -> 15-1A    3.333895   26889.7   371.9   0.000532716   0.00010  -0.00078   0.00096   0.00982
  0-1A  -> 16-1A    3.338320   26925.4   371.4   0.000005175   0.00000  -0.00036   0.00088  -0.00023
  0-1A  -> 17-1A    3.346477   26991.2   370.5   0.000010110   0.00000  -0.00073  -0.00115   0.00010
  0-1A  -> 18-1A    3.396348   27393.4   365.1   0.022319519   0.00418  -0.05366   0.03595  -0.00258
  0-1A  -> 19-1A    3.396469   27394.4   365.0   0.021628827   0.00405   0.03483   0.05296  -0.00565
  0-1A  -> 20-1A    3.400792   27429.2   364.6   0.010044949   0.00188   0.02851   0.03251  -0.00365
  0-1A  -> 21-1A    3.400916   27430.2   364.6   0.009260322   0.00174  -0.03190   0.02673  -0.00188
  0-1A  -> 22-1A    3.419923   27583.5   362.5   0.000006114   0.00000  -0.00105  -0.00024   0.00006
  0-1A  -> 23-1A    3.454598   27863.2   358.9   0.000361584   0.00007   0.00083   0.00081   0.00822
  0-1A  -> 24-1A    3.459730   27904.6   358.4   0.000001432   0.00000  -0.00015   0.00049  -0.00012
  0-1A  -> 25-1A    3.475006   28027.8   356.8   0.000000234   0.00000   0.00014   0.00016  -0.00001
  0-1A  -> 26-1A    3.486521   28120.7   355.6   0.000000610   0.00000   0.00004   0.00034  -0.00001
  0-1A  -> 27-1A    3.495421   28192.5   354.7   0.002901703   0.00056   0.01231  -0.02010   0.00186
  0-1A  -> 28-1A    3.495543   28193.5   354.7   0.002881765   0.00056   0.02017   0.01211  -0.00136
  0-1A  -> 29-1A    3.503841   28260.4   353.9   0.002467409   0.00048   0.01816   0.01203  -0.00148
  0-1A  -> 30-1A    3.503994   28261.6   353.8   0.002434270   0.00047   0.01191  -0.01806   0.00151

------------------------------------------------------------------------------------------
                     CD SPECTRUM VIA TRANSITION ELECTRIC DIPOLE MOMENTS    
------------------------------------------------------------------------------------------
     Transition      Energy     Energy  Wavelength    R        MX        MY        MZ   
                      (eV)      (cm-1)    (nm)   (1e40*cgs)   (au)      (au)      (au)  
------------------------------------------------------------------------------------------
  0-1A  ->  1-1A    1.994174   16084.1   621.7   -0.83041  -0.19282   0.02198  -0.00084
  0-1A  ->  2-1A    1.994209   16084.4   621.7   -0.68943  -0.02193  -0.19193   0.01861
  0-1A  ->  3-1A    2.225438   17949.4   557.1   -3.20811  -0.00026  -0.01050   0.00093
  0-1A  ->  4-1A    2.225471   17949.6   557.1   -3.16811  -0.01040  -0.00044  -0.00012
  0-1A  ->  5-1A    3.135167   25286.8   395.5  -18.49449   0.00037  -0.00869   0.00698
  0-1A  ->  6-1A    3.135383   25288.6   395.4  -17.74619  -0.00919  -0.00181  -0.01613
  0-1A  ->  7-1A    3.151926   25422.0   393.4  -13.52547   0.01490   0.08870   0.93143
  0-1A  ->  8-1A    3.180614   25653.4   389.8   -0.00076  -0.00001  -0.00036  -0.00512
  0-1A  ->  9-1A    3.205584   25854.8   386.8    0.00060   0.00009  -0.00033  -0.00048
  0-1A  -> 10-1A    3.233364   26078.8   383.5  -19.47131   0.01831   0.00734  -0.00369
  0-1A  -> 11-1A    3.233445   26079.5   383.4  -19.42519   0.00720  -0.01857  -0.00039
  0-1A  -> 12-1A    3.265170   26335.4   379.7    0.00034   0.00004   0.00008   0.00030
  0-1A  -> 13-1A    3.270118   26375.3   379.1   -0.00013   0.00001   0.00001   0.00003
  0-1A  -> 14-1A    3.314432   26732.7   374.1   -0.00050  -0.00045  -0.00040  -0.00010
  0-1A  -> 15-1A    3.333895   26889.7   371.9    5.55602   0.00294   0.01367   0.14384
  0-1A  -> 16-1A    3.338320   26925.4   371.4   -0.00211   0.00046  -0.00086  -0.00236
  0-1A  -> 17-1A    3.346477   26991.2   370.5    0.01144  -0.00060  -0.00101   0.00028
  0-1A  -> 18-1A    3.396348   27393.4   365.1   18.76050  -0.04221   0.02805  -0.00103
  0-1A  -> 19-1A    3.396469   27394.4   365.0   17.77183   0.02650   0.04142  -0.00442
  0-1A  -> 20-1A    3.400792   27429.2   364.6   21.80774   0.03264   0.03738  -0.00494
  0-1A  -> 21-1A    3.400916   27430.2   364.6   20.80298  -0.03719   0.03124  -0.00200
  0-1A  -> 22-1A    3.419923   27583.5   362.5    0.04038  -0.00225  -0.00124   0.00048
  0-1A  -> 23-1A    3.454598   27863.2   358.9   -7.47968   0.00207   0.01111   0.11517
  0-1A  -> 24-1A    3.459730   27904.6   358.4    0.00080  -0.00014   0.00063  -0.00142
  0-1A  -> 25-1A    3.475006   28027.8   356.8    0.00014   0.00007   0.00000   0.00022
  0-1A  -> 26-1A    3.486521   28120.7   355.6   -0.00080  -0.00028  -0.00039   0.00011
  0-1A  -> 27-1A    3.495421   28192.5   354.7   -3.68777  -0.00782   0.01259  -0.00193
  0-1A  -> 28-1A    3.495543   28193.5   354.7   -3.64652  -0.01262  -0.00777   0.00019
  0-1A  -> 29-1A    3.503841   28260.4   353.9    0.59681   0.00230   0.00162  -0.00015
  0-1A  -> 30-1A    3.503994   28261.6   353.8    0.62707   0.00180  -0.00242  -0.00031

------------------------------------------------------------------------------------------
                     CD SPECTRUM VIA TRANSITION VELOCITY DIPOLE MOMENTS    
------------------------------------------------------------------------------------------
     Transition      Energy     Energy  Wavelength    R        MX        MY        MZ   
                      (eV)      (cm-1)    (nm)   (1e40*cgs)   (au)      (au)      (au)  
------------------------------------------------------------------------------------------
  0-1A  ->  1-1A    1.994174   16084.1   621.7   -0.67940  -0.19282   0.02198  -0.00084
  0-1A  ->  2-1A    1.994209   16084.4   621.7   -0.62596  -0.02193  -0.19193   0.01861
  0-1A  ->  3-1A    2.225438   17949.4   557.1   -2.40242  -0.00026  -0.01050   0.00093
  0-1A  ->  4-1A    2.225471   17949.6   557.1   -2.37435  -0.01040  -0.00044  -0.00012
  0-1A  ->  5-1A    3.135167   25286.8   395.5   -5.67663   0.00037  -0.00869   0.00698
  0-1A  ->  6-1A    3.135383   25288.6   395.4   -5.43412  -0.00919  -0.00181  -0.01613
  0-1A  ->  7-1A    3.151926   25422.0   393.4    1.58068   0.01490   0.08870   0.93143
  0-1A  ->  8-1A    3.180614   25653.4   389.8   -0.00025  -0.00001  -0.00036  -0.00512
  0-1A  ->  9-1A    3.205584   25854.8   386.8    0.00034   0.00009  -0.00033  -0.00048
  0-1A  -> 10-1A    3.233364   26078.8   383.5   -8.32411   0.01831   0.00734  -0.00369
  0-1A  -> 11-1A    3.233445   26079.5   383.4   -8.29947   0.00720  -0.01857  -0.00039
  0-1A  -> 12-1A    3.265170   26335.4   379.7    0.00018   0.00004   0.00008   0.00030
  0-1A  -> 13-1A    3.270118   26375.3   379.1   -0.00004   0.00001   0.00001   0.00003
  0-1A  -> 14-1A    3.314432   26732.7   374.1    0.00023  -0.00045  -0.00040  -0.00010
  0-1A  -> 15-1A    3.333895   26889.7   371.9    5.47510   0.00294   0.01367   0.14384
  0-1A  -> 16-1A    3.338320   26925.4   371.4   -0.00142   0.00046  -0.00086  -0.00236
  0-1A  -> 17-1A    3.346477   26991.2   370.5    0.00624  -0.00060  -0.00101   0.00028
  0-1A  -> 18-1A    3.396348   27393.4   365.1   12.37558  -0.04221   0.02805  -0.00103
  0-1A  -> 19-1A    3.396469   27394.4   365.0   11.86457   0.02650   0.04142  -0.00442
  0-1A  -> 20-1A    3.400792   27429.2   364.6    8.16322   0.03264   0.03738  -0.00494
  0-1A  -> 21-1A    3.400916   27430.2   364.6    7.64030  -0.03719   0.03124  -0.00200
  0-1A  -> 22-1A    3.419923   27583.5   362.5    0.01005  -0.00225  -0.00124   0.00048
  0-1A  -> 23-1A    3.454598   27863.2   358.9    3.55390   0.00207   0.01111   0.11517
  0-1A  -> 24-1A    3.459730   27904.6   358.4    0.00184  -0.00014   0.00063  -0.00142
  0-1A  -> 25-1A    3.475006   28027.8   356.8    0.00003   0.00007   0.00000   0.00022
  0-1A  -> 26-1A    3.486521   28120.7   355.6   -0.00054  -0.00028  -0.00039   0.00011
  0-1A  -> 27-1A    3.495421   28192.5   354.7   -1.29546  -0.00782   0.01259  -0.00193
  0-1A  -> 28-1A    3.495543   28193.5   354.7   -1.28040  -0.01262  -0.00777   0.00019
  0-1A  -> 29-1A    3.503841   28260.4   353.9    0.22490   0.00230   0.00162  -0.00015
  0-1A  -> 30-1A    3.503994   28261.6   353.8    0.23647   0.00180  -0.00242  -0.00031

Total run time:     3121.017 sec

           *** ORCA-CIS/TD-DFT FINISHED WITHOUT ERROR ***
-----------------------
CIS/TD-DFT TOTAL ENERGY
-----------------------

    E(SCF)  =  -2081.324943448 Eh
    DE(CIS) =      0.073284535 Eh (Root  1)
    ----------------------------- ---------
    E(tot)  =  -2081.251658913 Eh


Maximum memory used throughout the entire CIS-calculation: 2983.1 MB
=> NOW LEAVING ORCA_CIS

-------------------------   --------------------
FINAL SINGLE POINT ENERGY     -2081.251658912734
-------------------------   --------------------



           ************************************************************
           *        Program running with 8 parallel MPI-processes     *
           *              working on a common directory               *
           ************************************************************

------------------------------------------------------------------------------
                              ORCA PROPERTY CALCULATIONS
------------------------------------------------------------------------------

GBWName                                 ... tddft.gbw
Number of atoms                         ...     77
Number of basis functions               ...   1696
Max core memory                         ...   3000 MB

Electric properties:
Dipole moment                           ... YES
Quadrupole moment                       ...  NO
Static polarizability (Dipole/Dipole)   ...  NO
Static polarizability (Dipole/Quad.)    ...  NO
Static polarizability (Quad./Quad.)     ...  NO
Static polarizability (Velocity)        ...  NO
Static hyperpolarizability              ...  NO

Atomic electric properties:
Dipole moment                           ...  NO
Quadrupole moment                       ...  NO
Static polarizability                   ...  NO

Choice of electric origin               ... Center of mass
Position of electric origin             ...    -0.159974     5.088857     6.550132

General magnetic properties:
Magnetizability                         ...  NO

EPR properties:
g-Tensor (aka g-matrix)                 ...  NO
Zero-Field splitting spin-orbit         ...  NO
Zero-field splitting spin-spin          ...  NO
Hyperfine couplings                     ...  NO (   0 nuclei)
Quadrupole couplings                    ...  NO (   0 nuclei)
Contact density                         ...  NO (   0 nuclei)

NMR properties:
Chemical shifts                         ...  NO (   0 nuclei)
Spin-rotation constants                 ...  NO (   0 nuclei)
Spin-spin couplings                     ...  NO (   0 nuclei,    0 pairs)

Choice of magnetic origin               ... GIAO
Position of magnetic origin             ...     0.000000     0.000000     0.000000

Properties with geometric perturbations:
SCF Hessian                             ...  NO
IR spectrum                             ...  NO
VCD spectrum                            ...  NO
X-ray spectroscopy properties:
SCF XES/XAS/RIXS spectra                ...  NO

SCF SOC stabilization energy            ...  NO
Diagonal Born-Oppenheimer correction    ...  NO

-------------
DIPOLE MOMENT
-------------

Method             : SCF
Type of density    : Electron Density
Multiplicity       :   1
Irrep              :   0
Energy             : -2081.3249434479921547 Eh
Basis              : AO
                                X                 Y                 Z
Electronic contribution:     -0.029457146      -0.000716626       0.324623739
Nuclear contribution   :      0.030057604       0.000456680      -0.325649688
                        -----------------------------------------
Total Dipole Moment    :      0.000600458      -0.000259947      -0.001025949
                        -----------------------------------------
Magnitude (a.u.)       :      0.001216838
Magnitude (Debye)      :      0.003092956



--------------------
Rotational spectrum 
--------------------
 
Rotational constants in cm-1:             0.001920             0.001920             0.000998 
Rotational constants in MHz :            57.569607            57.564626            29.904507 

Dipole components along the rotational axes: 
x,y,z [a.u.] :    -0.000293     0.000566    -0.001036 
x,y,z [Debye]:    -0.000745     0.001439    -0.002634 

 

Dipole moment calculation done in   0.3 sec 

Maximum memory used throughout the entire PROP-calculation: 230.8 MB

--------------------------------
SUGGESTED CITATIONS FOR THIS RUN
--------------------------------

Below you find a list of papers that are relevant to this ORCA run
We neither can nor want to force you to cite these papers, but we appreciate if you do
You receive ORCA, which is the product of decades of hard work by many enthusiastic individuals, for free
The only thing we kindly ask in return is that you cite our papers,
We deeply appreciate it, if you show your appreciation for ORCA by not just citing the generic ORCA reference.

Please note that relegating all ORCA citations to the supporting information does *not* help us.
SI sections are not indexed - citations you put there will not count into any citation statistics
But we need these citations in order to attract the funding resources that allow us to do what we are doing

Therefore, if you are a happy ORCA user, please consider citing a few of the papers listed below in the main body of your paper

In addition to the list printed below, the program has created the file tddft.bibtex that contains the list in bibtex format
You can import this file easily into all common literature databanks and citation aid programs

It goes without saying that in many instances, there are alternative algorithms to achieve similar
results as the ones you have gotten from ORCA. It is, of course, also the case that in some instances
ORCA just re-implements algorithms worked out by others. We are fully aware of that and we are also
fully appreciative of our colleagues work. Hence this citation list should not be read as indicating
that the listed papers, which are focused on our own work, are the only ones worth citing. It simply
meant to make it easier for users to cite ORCA specific papers. It is not a substitute for doing your
own literature research and citing the relevant literature in a scientifically appropriate manner.

List of essential papers. We consider these as the minimum necessary citations

  1. Neese, F.
     Software update: the ORCA program system, version 6.0
     WIRES Comput. Molec. Sci. 2025 15(1), e70019
     doi.org/10.1002/wcms.70019

List of papers to cite with high priority. The work reported in these papers was absolutely
necessary for this run to complete.
Our perspective: the developers of density functionals and basis sets usually get cited in chemistry papers
Good! But without the algorithms to do something with them, the functionals or basis sets would not do anything.
Hence, in our opinion, the algorithm design and method developments papers are equally worthy of getting cited

  1. Neese, F.; Olbrich, G.
     Efficient use of the resolution of the identity approximation in time-dependent density functional calculations with hybrid density functionals
     Chem. Phys. Lett. 2002 362 , 170-178
     doi.org/10.1016/s0009-2614(02)01053-9
  2. Neese, F.
     An improvement of the resolution of the identity approximation for the formation of the Coulomb matrix
     J. Comp. Chem. 2003 24(14), 1740-1747
     doi.org/10.1002/jcc.10318
  3. Garcia-Rates, M.; Neese, F.
     Effect of the Solute Cavity on the Solvation Energy and its Derivatives within the Framework of the Gaussian Charge Scheme
     J. Comput. Chem. 2020 41 , 922-939
     doi.org/10.1002/jcc.26139
  4. Neese, F.
     The SHARK Integral Generation and Digestion System
     J. Comp. Chem. 2022 44(3), 381
     doi.org/10.1002/jcc.26942

List of suggested additional citations. These are papers that are important in the 'surrounding' of 
of this run, or papers that preceded the highly important papers. If you like your results we are grateful for a citation.

  1. Neese, F.
     The ORCA program system
     WIRES Comput. Molec. Sci. 2012 2(1), 73-78
     doi.org/10.1002/wcms.81
  2. Neese, F.
     Software update: the ORCA program system, version 4.0
     WIRES Comput. Molec. Sci. 2018 8(1), 1-6
     doi.org/10.1002/wcms.1327
  3. Neese, F.; Wennmohs, F.; Becker, U.; Riplinger, C.
     The ORCA quantum chemistry program package
     J. Chem. Phys. 2020 152(22), 224108
     doi.org/10.1063/5.0004608
  4. Neese, F.
     Software update: The ORCA program system—Version 5.0
     WIRES Comput. Molec. Sci. 2022 12(1), e1606
     doi.org/10.1002/wcms.1606

List of optional additional citations

  1. Neese, F.
     Approximate second-order SCF convergence for spin unrestricted wavefunctions
     Chem. Phys. Lett. 2000 325(1-3), 93-98
     doi.org/10.1016/s0009-2614(00)00662-x

Timings for individual modules:

Sum of individual times          ...     3804.585 sec (=  63.410 min)
Startup calculation              ...       27.225 sec (=   0.454 min)   0.7 %
SCF iterations                   ...      650.484 sec (=  10.841 min)  17.1 %
Property integrals               ...        3.695 sec (=   0.062 min)   0.1 %
Property calculations            ...        1.427 sec (=   0.024 min)   0.0 %
CIS module                       ...     3121.754 sec (=  52.029 min)  82.1 %
                             ****ORCA TERMINATED NORMALLY****
TOTAL RUN TIME: 0 days 1 hours 3 minutes 25 seconds 100 msec
