
                                 *****************
                                 * O   R   C   A *
                                 *****************

                                            #,                                       
                                            ###                                      
                                            ####                                     
                                            #####                                    
                                            ######                                   
                                           ########,                                 
                                     ,,################,,,,,                         
                               ,,#################################,,                 
                          ,,##########################################,,             
                       ,#########################################, ''#####,          
                    ,#############################################,,   '####,        
                  ,##################################################,,,,####,       
                ,###########''''           ''''###############################       
              ,#####''   ,,,,##########,,,,          '''####'''          '####       
            ,##' ,,,,###########################,,,                        '##       
           ' ,,###''''                  '''############,,,                           
         ,,##''                                '''############,,,,        ,,,,,,###''
      ,#''                                            '''#######################'''  
     '                                                          ''''####''''         
             ,#######,   #######,   ,#######,      ##                                
            ,#'     '#,  ##    ##  ,#'     '#,    #''#        ,####,    ,#,          
            ##       ##  ##   ,#'  ##            #'  '#       #'       ,# #          
            ##       ##  #######   ##           ,######,      #####,      #          
            '#,     ,#'  ##    ##  '#,     ,#' ,#      #,     #,   #      #          
             '#######'   ##     ##  '#######'  #'      '#     '####' #    #          



                #########################################################
                #                        -***-                          #
                #          Department of theory and spectroscopy        #
                #                                                       #
                #                      Frank Neese                      #
                #                                                       #
                #     Directorship, Architecture, Infrastructure        #
                #                    SHARK, DRIVERS                     #
                #        Core code/Algorithms in most modules           #
                #                                                       #
                #        Max Planck Institute fuer Kohlenforschung      #
                #                Kaiser Wilhelm Platz 1                 #
                #                 D-45470 Muelheim/Ruhr                 #
                #                      Germany                          #
                #                                                       #
                #                  All rights reserved                  #
                #                        -***-                          #
                #########################################################


                         Program Version 6.1.1  -  RELEASE   -
                                (GIT: $487d211c$)
                          ($2025-11-21 10:33:24 +0100$)


 With contributions from (in alphabetic order):
[Max-Planck-Institut fuer Kohlenforschung]                               
  Daniel Aravena         : Magnetic Suceptibility                        
  Michael Atanasov       : Ab Initio Ligand Field Theory (pilot matlab implementation)
  Alexander A. Auer      : GIAO ZORA, VPT2 properties, NMR spectrum      
  Ute Becker             : All parallelization in ORCA, NUMFREQ, NUMCALC 
  Giovanni Bistoni       : ED, misc. LED, open-shell LED, HFLD           
  Dmytro Bykov           : pre 5.0 version of the SCF Hessian            
  Marcos Casanova-Páez   : Triplet and SCS-CIS(D). UHF-(DLPNO)-IP/EA/STEOM-CCSD. UHF-CVS-IP/STEOM-CCSD   
  Vijay G. Chilkuri      : MRCI spin determinant printing, contributions to CSF-ICE 
  Pauline Colinet        : FMM embedding                                 
  Dipayan Datta          : RHF DLPNO-CCSD density                        
  Achintya Kumar Dutta   : EOM-CC, STEOM-CC                              
  Nicolas Foglia         : Exact transition moments, OPA infrastructure, MCD improvements    
  Dmitry Ganyushin       : Spin-Orbit,Spin-Spin,Magnetic field MRCI      
  Miquel Garcia-Rates    : C-PCM and meta-GGA Hessian, CCSD/C-PCM, Gaussian charge scheme 
  Tiago L. C. Gouveia    : GS-ROHF, GS-ROCIS                             
  Yang Guo               : DLPNO-NEVPT2, F12-NEVPT2, CIM, IAO-localization        
  Andreas Hansen         : Spin unrestricted coupled pair/coupled cluster methods 
  Ingolf Harden          : AUTO-CI MPn and infrastructure                
  Benjamin Helmich-Paris : MC-RPA, TRAH-(SCF,CASSCF), AVAS, COSX integrals, SCF dyn. polar., MC-PDFT, srDFT 
  Lee Huntington         : MR-EOM, pCC                                   
  Robert Izsak           : Overlap fitted RIJCOSX, COSX-SCS-MP3, EOM     
  Riya Kayal             : Wick's Theorem for AUTO-CI, AUTO-CI UHF-CCSDT 
  Emily Kempfer          : AUTO-CI RHF CISDT and CCSDT, approximate NEVPT4
  Christian Kollmar      : KDIIS, OOCD, Brueckner-CCSD(T), CCSD density, CASPT2, CASPT2-K, improved NEVPT2 
  Axel Koslowski         : Symmetry handling                             
  Simone Kossmann        : meta-GGA functionals, TD-DFT gradient, OOMP2, (MP2 Hessian; deprecated post 5.0) 
  Lucas Lang             : DCDCAS, Hyperfine gauge corrections, ICE-SOC+SSC
  Marvin Lechner         : AUTO-CI (C++ implementation), FIC-MRCC        
  Spencer Leger          : CASSCF response                               
  Dagmar Lenk            : GEPOL surface, SMD, ORCA-2-JSON               
  Dimitrios Liakos       : Extrapolation schemes; Compound Job, Property file
  Dimitrios Manganas     : Further ROCIS development; embedding schemes. LFT, Crystal Embedding 
  Dimitrios Pantazis     : SARC Basis sets                               
  Anastasios Papadopoulos: AUTO-CI, single reference methods and gradients 
  Taras Petrenko         : pre 6.0 DFT Hessian and TD-DFT gradient,  ECA, NRVS 
  Petra Pikulova         : Analytic Raman intensities                    
  Peter Pinski           : DLPNO-MP2, DLPNO-MP2 Gradient                 
  Shashank Vittal Rao    : ES-AILFT, MagRelax                            
  Christoph Reimann      : Effective Core Potentials                     
  Marius Retegan         : Local ZFS, SOC                                
  Christoph Riplinger    : Optimizer, TS searches, QM/MM, DLPNO-CCSD(T), (RO)-DLPNO pert. Triples 
  Michael Roemelt        : Original ROCIS implementation, recursive CI coupling coefficients
  Masaaki Saitow         : Open-shell DLPNO-CCSD energy and density      
  Barbara Sandhoefer     : DKH picture change effects                    
  Yorick L. A. Schmerwitz: GMF and freeze-and-release deltaSCF, NEB S-IDPP initial path                    
  Kantharuban Sivalingam : CASSCF convergence/infrastructure, NEVPT2, NEVPT3, NEVPT4(SD), FIC-MRCI and CEPA variants
  Bernardo de Souza      : ESD, SOC TD-DFT                               
  Georgi L. Stoychev     : AutoAux, RI-MP2 NMR, DLPNO-MP2 response, X2C  
  Van Anh Tran           : RI-MP2 g-tensors                              
  Willem Van den Heuvel  : Paramagnetic NMR                              
  Zikuan Wang            : NOTCH, Electric field optimization            
  Frank Wennmohs         : Technical directorship and infrastructure     
  Hang Xu                : AUTO-CI-Response properties                   
                                                                         
[FACCTs GmbH]                                                            
  Markus Bursch, Nicolas Foglia, Miquel Garcia-Rates, Ingolf Harden, Hagen Neugebauer, Anastasios Papadopoulos, 
  Christoph Riplinger, Bernardo de Souza, Georgi L. Stoychev                                                    
                                                                 
  APM, various basis sets, CI-OPT, improved COSX, DLPNO-Multilevel,           
  DOCKER, DRACO, updates on ESD, Fragmentator, GOAT, IRC, LR-CPCM, L-BFGS, MBIS, meta-GGA TD-DFT gradient, ML-optimized integration grids, 
  MM, NACMEs, nearIR, NEB, NEB-TS, NL-DFT gradient (VV10), 2- and 3-layer-ONIOM, interface openCOSMO-RS, QMMM,   
  Crystal-QMMM, RESP, rigid body optimization, SF, symmetry and pop. for TD-DFT, various functionals, SOLVATOR                                   
                                                                         
[Other institutions]                                                     
  V. Asgeirsson          : NEB                                           
  Christoph Bannwarth    : sTDA-DFT, sTD-DFT, PBEh-3c, B97-3c, D3        
  Giovanni Bistoni       : ETS/NOCV, ADLD/ADEX, COVALED                  
  Martin Brehm           : Molecular dynamics                            
  Ronald Cardenas        : ETS/NOCV                                      
  Martina Colucci        : COVALED                                       
  Sebastian Ehlert       : rSCAN, r2SCAN, r2SCAN-3c, D4, dhf basis sets  
  Marvin Friede          : D4 for Fr, Ra, Ac-Lr                          
  Lars Goerigk           : TD-DFT with DH, B97 family of functionals     
  Stefan Grimme          : VdW corrections, initial TS optimization, DFT functionals, gCP, sTDA/sTD-DF 
  Waldemar Hujo          : DFT-NL                                        
  H. Jonsson             : NEB                                           
  Holger Kruse           : gCP                                           
  Marcel Mueller         : wB97X-3c, vDZP basis set                      
  Hagen Neugebauer       : wr2SCAN, Native XTB                           
  Gianluca Regni         : ADLD/ADEX                                     
  Tobias Risthaus        : pre 6.0 range-separated hybrid DFT and stability analysis
  Lukas Wittmann         : regularized MP2, r2SCAN double-hybrids, wr2SCAN        
                                                                         
We gratefully acknowledge several colleagues who have allowed us to      
interface, adapt or use parts of their codes:                            
  Ed Valeev, F. Pavosevic, A. Kumar             : LibInt (2-el integral package), F12 methods 
  Garnet Chan, S. Sharma, J. Yang, R. Olivares  : DMRG                   
  Ulf Ekstrom                                   : XCFun DFT Library      
  Mihaly Kallay                                 : mrcc  (arbitrary order and MRCC methods)
  Frank Weinhold                                : gennbo (NPA and NBO analysis)           
  Simon Mueller                                 : openCOSMO-RS                            
  Christopher J. Cramer and Donald G. Truhlar   : smd solvation model                     
  S Lehtola, MJT Oliveira, MAL Marques          : LibXC Library                           
  Liviu Ungur et al                             : ANISO software                          


 Your calculation uses the libint2 library for the computation of 2-el integrals
 For citations please refer to: http://libint.valeyev.net

 Your ORCA version has been built with support for libXC version: 7.0.0
 For citations please refer to: https://libxc.gitlab.io

 This ORCA versions uses:
   CBLAS   interface :  Fast vector & matrix operations
   LAPACKE interface :  Fast linear algebra routines
   SCALAPACK package :  Parallel linear algebra routines
   Shared memory     :  Shared parallel matrices
   BLAS/LAPACK       :  OpenBLAS 0.3.29  USE64BITINT DYNAMIC_ARCH NO_AFFINITY Haswell SINGLE_THREADED
        Core in use  :  Haswell
   Copyright (c) 2011-2014, The OpenBLAS Project


  ***********************************
  * Starting time: Thu Jun 18 07:10:24 2026
  * Host name:     steezy
  * Process ID:    3551423
  * Working dir.:  /home/jannes/metaltpp/cdtpp/02_tddft_tda_comparison/runs/tdaoff_bp86
  ***********************************

NOTE: MaxCore=3000 MB was set to SCF,MP2,MDCI,CIPSI,MRCI,RASCI and CIS
      => If you want to overwrite this, your respective input block should be placed after the MaxCore statement


***************************************
The coordinates will be read from file: /home/jannes/metaltpp/cdtpp/01_opt/cdtpp_opt_b3lyp_tzvp.xyz
***************************************


================================================================================

cite the ECPs for Cd [Def2-ECP] as follows:
Ce-Yb(ecp-28): M. Dolg, H. Stoll, H.Preuss, J. Chem. Phys., 1989, 90, 1730-1734.
Y-Cd(ecp-28), Hf-Hg(ecp-46): D. Andrae,U. Haeussermann, M. Dolg, H. Stoll, H. Preuss, Theor. Chim. Acta, 1990, 77, 123-141.
In-Sb(ecp-28), Tl-Bi(ecp-46): B. Metz, H. Stoll, M. Dolg, J. Chem. Phys., 2000, 113, 2563-2569.
Te-Xe(ecp-28), Po-Rn(ecp-46): K. A. Peterson, D. Figgen, E. Goll, H. Stoll, M. Dolg, J. Chem. Phys., 2003, 119, 11113-11123.
Rb(ecp-28), Cs(ecp-46): T. Leininger, A. Nicklass, W. Kuechle, H. Stoll, M. Dolg, A. Bergner, Chem. Phys. Lett., 1996, 255, 274-280.
Sr(ecp-28), Ba(ecp-46): M. Kaupp, P. V. Schleyer, H. Stoll and H. Preuss, J. Chem. Phys., 1991, 94, 1360-1366.
La(ecp-46): M. Dolg, H. Stoll, A. Savin, H. Preuss, Theor. Chim. Acta, 1989, 75, 173-194.
Lu(ecp-28): X. Cao, M. Dolg, J. Chem. Phys., 2001, 115, 7348-7355.

ECP parameters for Cd [Def2-ECP] have been obtained from:
TURBOMOLE (7.0.2)

----- Orbital basis set information -----
Your calculation utilizes the basis: def2-TZVP
   F. Weigend and R. Ahlrichs, Phys. Chem. Chem. Phys. 7, 3297 (2005).

----- AuxJ basis set information -----
Your calculation utilizes the auxiliary basis: def2/J
   H-Rn: F. Weigend, Phys. Chem. Chem. Phys. 8, 1057 (2006).
   Fr-Lr: K. Eichkorn, F. Weigend, O. Treutler, R. Ahlrichs; Theor. Chem. Acc. 97, 119 (1997).

================================================================================
                                        WARNINGS
                       Please study these warnings very carefully!
================================================================================



WARNING: Found flag for RIJCOSX approximation but no HF exchange needed!
  ===> : RIJCOSX  will be disabled and Split-RI-J is turned on

WARNING: CIS/ROCIS methods need fully converged wavefunctions
  ===> : Setting SCFConvForced true
         You can overwrite this default with %scf ConvForced false 


================================================================================
                                       INPUT FILE
================================================================================
NAME = tddft.inp
|  1> %pal nprocs 8 end
|  2> %maxcore 3000
|  3> ! BP86 def2-TZVP def2/J RIJCOSX DefGrid3 TightSCF CPCM(Toluene)
|  4> %tddft
|  5>   nroots 30
|  6>   triplets false
|  7>   tda false
|  8> end
|  9> * xyzfile 0 1 /home/jannes/metaltpp/cdtpp/01_opt/cdtpp_opt_b3lyp_tzvp.xyz
| 10> 
| 11>                          ****END OF INPUT****
================================================================================

                       ****************************
                       * Single Point Calculation *
                       ****************************

---------------------------------
CARTESIAN COORDINATES (ANGSTROEM)
---------------------------------
  N     -2.221533    2.513479    3.517972
  H      1.677888   -2.324647    3.919784
  C     -4.433906    3.008485    3.506264
  C     -0.395415   -1.637172    3.880196
  N      0.098324    0.565268    3.667761
  C      0.961221   -1.523184    3.850953
  H     -0.964981   -2.547322    3.969094
  C      2.923779    1.828518    3.506213
  N     -0.268174    4.820323    3.268916
  C     -1.130971    6.908632    3.083380
  C      2.576354    0.457586    3.638074
  C      2.732593    4.045673    3.290807
  N      2.051541    2.872082    3.418533
  C      4.147611    3.728062    3.301568
  C     -0.948789   -0.301255    3.768946
  C      1.278498   -0.115154    3.709120
  C     -2.902825    1.339187    3.637649
  C     -3.093559    3.557800    3.436495
  C     -4.317697    1.657915    3.635877
  C     -2.325955    0.046427    3.754628
  C     -2.746191    4.927914    3.296676
  C      4.263945    2.377017    3.425894
  C     -1.448412    5.499936    3.218653
  C      0.225571    7.021994    3.048123
  C      2.155913    5.338858    3.179397
  C      0.779022    5.687272    3.172243
  H     -5.348304    3.576532    3.462380
  H     -5.122066    0.946402    3.722088
  H      5.178309    1.808236    3.459501
  H      4.951846    4.440789    3.224480
  H      0.795073    7.930930    2.946978
  H     -1.847365    7.711003    3.022647
  Cd    -0.084956    2.692974    3.470075
  C      3.723574   -0.505615    3.711217
  C      4.056221   -1.305457    2.615092
  C      5.121090   -2.197482    2.681657
  C      5.870332   -2.306013    3.848066
  C      5.548238   -1.515957    4.946133
  C      4.484478   -0.622813    4.877011
  H      3.477543   -1.221850    1.703352
  H      5.366273   -2.805744    1.819613
  H      6.699071   -3.001073    3.900898
  H      6.123587   -1.595606    5.860385
  H      4.235725   -0.011513    5.735838
  C     -3.291752   -1.094116    3.878794
  C     -4.007035   -1.549047    2.768257
  C     -4.902029   -2.607364    2.882424
  C     -5.098479   -3.227443    4.111485
  C     -4.393236   -2.782806    5.224411
  C     -3.496974   -1.725846    5.107909
  H     -3.855067   -1.071280    1.808165
  H     -5.443874   -2.948550    2.008798
  H     -5.795952   -4.050950    4.201349
  H     -4.541934   -3.256642    6.187014
  H     -2.952437   -1.380919    5.978324
  C     -3.892897    5.891489    3.220617
  C     -4.262577    6.466576    2.002206
  C     -5.325510    7.360425    1.930034
  C     -6.035966    7.696070    3.077324
  C     -5.676830    7.131048    4.296114
  C     -4.614977    6.235689    4.366041
  H     -3.714021    6.206231    1.105293
  H     -5.599397    7.792496    0.975300
  H     -6.863235    8.392693    3.022056
  H     -6.221597    7.388684    5.196154
  H     -4.337167    5.800605    5.318250
  C      3.121976    6.478877    3.051412
  C      3.787407    6.719168    1.846718
  C      4.682771    7.776456    1.726386
  C      4.929295    8.610885    2.811133
  C      4.273696    8.381318    4.015762
  C      3.377008    7.324841    4.133629
  H      3.596896    6.073673    0.998062
  H      5.185755    7.948959    0.782730
  H      5.626954    9.433926    2.718431
  H      4.461185    9.023498    4.867614
  H      2.871020    7.148204    5.074878

----------------------------
CARTESIAN COORDINATES (A.U.)
----------------------------
  NO LB      ZA    FRAG     MASS         X           Y           Z
   0 N     7.0000    0    14.007   -4.198090    4.749786    6.648003
   1 H     1.0000    0     1.008    3.170750   -4.392946    7.407319
   2 C     6.0000    0    12.011   -8.378868    5.685212    6.625879
   3 C     6.0000    0    12.011   -0.747226   -3.093806    7.332507
   4 N     7.0000    0    14.007    0.185806    1.068201    6.931064
   5 C     6.0000    0    12.011    1.816445   -2.878401    7.277246
   6 H     1.0000    0     1.008   -1.823549   -4.813740    7.500501
   7 C     6.0000    0    12.011    5.525141    3.455398    6.625783
   8 N     7.0000    0    14.007   -0.506776    9.109090    6.177355
   9 C     6.0000    0    12.011   -2.137225   13.055422    5.826744
  10 C     6.0000    0    12.011    4.868603    0.864712    6.874964
  11 C     6.0000    0    12.011    5.163853    7.645213    6.218723
  12 N     7.0000    0    14.007    3.876851    5.427449    6.460091
  13 C     6.0000    0    12.011    7.837849    7.045015    6.239059
  14 C     6.0000    0    12.011   -1.792951   -0.569289    7.122275
  15 C     6.0000    0    12.011    2.416011   -0.217609    7.009221
  16 C     6.0000    0    12.011   -5.485544    2.530697    6.874160
  17 C     6.0000    0    12.011   -5.845979    6.723267    6.494034
  18 C     6.0000    0    12.011   -8.159265    3.133005    6.870812
  19 C     6.0000    0    12.011   -4.395418    0.087735    7.095218
  20 C     6.0000    0    12.011   -5.189549    9.312408    6.229815
  21 C     6.0000    0    12.011    8.057689    4.491910    6.474002
  22 C     6.0000    0    12.011   -2.737102   10.393373    6.082373
  23 C     6.0000    0    12.011    0.426267   13.269646    5.760119
  24 C     6.0000    0    12.011    4.074086   10.088979    6.008189
  25 C     6.0000    0    12.011    1.472137   10.747387    5.994670
  26 H     1.0000    0     1.008  -10.106829    6.758666    6.542951
  27 H     1.0000    0     1.008   -9.679301    1.788440    7.033727
  28 H     1.0000    0     1.008    9.785586    3.417071    6.537509
  29 H     1.0000    0     1.008    9.357632    8.391875    6.093385
  30 H     1.0000    0     1.008    1.502469   14.987286    5.568981
  31 H     1.0000    0     1.008   -3.491013   14.571683    5.711975
  32 Cd   20.0000*   0   112.410   -0.160544    5.088984    6.557491
  33 C     6.0000    0    12.011    7.036535   -0.955473    7.013185
  34 C     6.0000    0    12.011    7.665147   -2.466956    4.941807
  35 C     6.0000    0    12.011    9.677457   -4.152639    5.067597
  36 C     6.0000    0    12.011   11.093320   -4.357733    7.271792
  37 C     6.0000    0    12.011   10.484651   -2.864744    9.346837
  38 C     6.0000    0    12.011    8.474436   -1.176946    9.216214
  39 H     1.0000    0     1.008    6.571603   -2.308962    3.218869
  40 H     1.0000    0     1.008   10.140786   -5.302087    3.438571
  41 H     1.0000    0     1.008   12.659409   -5.671206    7.371628
  42 H     1.0000    0     1.008   11.571903   -3.015258   11.074522
  43 H     1.0000    0     1.008    8.004360   -0.021757   10.839163
  44 C     6.0000    0    12.011   -6.220510   -2.067579    7.329858
  45 C     6.0000    0    12.011   -7.572199   -2.927274    5.231247
  46 C     6.0000    0    12.011   -9.263492   -4.927203    5.446992
  47 C     6.0000    0    12.011   -9.634728   -6.098983    7.769581
  48 C     6.0000    0    12.011   -8.302014   -5.258741    9.872706
  49 C     6.0000    0    12.011   -6.608324   -3.261376    9.652550
  50 H     1.0000    0     1.008   -7.285020   -2.024426    3.416937
  51 H     1.0000    0     1.008  -10.287432   -5.571952    3.796079
  52 H     1.0000    0     1.008  -10.952763   -7.655186    7.939398
  53 H     1.0000    0     1.008   -8.583011   -6.154162   11.691761
  54 H     1.0000    0     1.008   -5.579297   -2.609559   11.297395
  55 C     6.0000    0    12.011   -7.356509   11.133300    6.086084
  56 C     6.0000    0    12.011   -8.055104   12.220058    3.783621
  57 C     6.0000    0    12.011  -10.063756   13.909187    3.647236
  58 C     6.0000    0    12.011  -11.406322   14.543464    5.815300
  59 C     6.0000    0    12.011  -10.727655   13.475728    8.118480
  60 C     6.0000    0    12.011   -8.721042   11.783745    8.250622
  61 H     1.0000    0     1.008   -7.018482   11.728077    2.088701
  62 H     1.0000    0     1.008  -10.581327   14.725684    1.843049
  63 H     1.0000    0     1.008  -12.969634   15.859891    5.710858
  64 H     1.0000    0     1.008  -11.757115   13.962589    9.819308
  65 H     1.0000    0     1.008   -8.196059   10.961555   10.050035
  66 C     6.0000    0    12.011    5.899680   12.243302    5.766332
  67 C     6.0000    0    12.011    7.157161   12.697388    3.489791
  68 C     6.0000    0    12.011    8.849155   14.695372    3.262397
  69 C     6.0000    0    12.011    9.315018   16.272215    5.312272
  70 C     6.0000    0    12.011    8.076116   15.838395    7.588691
  71 C     6.0000    0    12.011    6.381620   13.841944    7.811427
  72 H     1.0000    0     1.008    6.797148   11.477579    1.886064
  73 H     1.0000    0     1.008    9.799657   15.021355    1.479146
  74 H     1.0000    0     1.008   10.633402   17.827537    5.137090
  75 H     1.0000    0     1.008    8.430419   17.051940    9.198458
  76 H     1.0000    0     1.008    5.425442   13.508147    9.590130
* core charge reduced due to ECP

--------------------------------
INTERNAL COORDINATES (ANGSTROEM)
--------------------------------
 N      0   0   0     0.000000000000     0.00000000     0.00000000
 H      1   0   0     6.226909584323     0.00000000     0.00000000
 C      1   2   0     2.267104250437   141.35977369     0.00000000
 C      2   1   3     2.184668519511    32.86339705     0.34280941
 N      4   2   1     2.267078764736    95.78079355     0.08531973
 C      2   1   3     1.077354096091     2.92918026     3.53991666
 H      4   2   1     1.077348867078   103.55530413   179.90701124
 C      5   4   2     3.099208523477   126.82809258     0.21163959
 N      1   2   6     3.033013543834   101.12435337   183.45655203
 C      9   1   2     2.267129203555   117.52976755   180.00756343
 C      8   5   4     1.420403395029    51.59344702     0.05111827
 C      8   5   4     2.235783449825   109.34597485   179.66737486
 N     12   8   5     1.362886722424    34.89222548     0.24565151
 C     12   8   5     1.450264622529    72.46275824   180.07175052
 C      5   4   2     1.362917654010    37.63314937   180.50541806
 C      5   4   2     1.362899475432    72.58641748     0.36330981
 C      1   2   6     1.362879768119    68.77191694     3.34948301
 C      1   2   6     1.362964757384   178.97075037    14.70592998
 C      3   1   2     1.361742651855    72.52309798     0.07378407
 C     15   5   4     1.420448439227   126.05123773   180.53742367
 C     18   1  17     1.420361822745   126.05206197   180.38454889
 C     14  12   8     1.361731833191   107.53664106     0.30455902
 C      9   1   2     1.362850690822    79.89631003   179.85746444
 C     10   9   1     1.361726818909    72.52334945   180.17075694
 C     12   8   5     1.420317097298   160.94073403     0.99277551
 C      9   1   2     1.362925442895   169.88676824   359.60781380
 H      3   1   2     1.077369932890   160.66065628   180.65688984
 H     19   3   1     1.077354199394   126.79181051   179.75899513
 H     22  14  12     1.077358568224   126.80909247   179.52265103
 H     14  12   8     1.077365299891   125.65684331   180.30577475
 H     24  10   9     1.077370299954   126.81660426   179.77309827
 H     10   9   1     1.077361458895   160.68000721     0.75406544
 Cd    13  12   8     2.144611716681   124.88913229   180.11559583
 C     11   8   5     1.499739680849   115.93179297   180.11580825
 C     34  11   8     1.397101723469   120.76738948   255.16980924
 C     35  34  11     1.390714049158   120.79511174   179.90944824
 C     36  35  34     1.390559144059   120.18369120     0.11306297
 C     37  36  35     1.390569318757   119.55241508   359.93986629
 C     38  37  36     1.390708114914   120.18578262   359.94908443
 H     35  34  11     1.083110169783   119.27710586     0.23019603
 H     36  35  34     1.083150949848   119.69802581   180.28345548
 H     37  36  35     1.082916265007   120.22234294   179.94262356
 H     38  37  36     1.083156130749   120.11268666   179.78514681
 H     39  38  37     1.083120770646   119.91553040   179.83176155
 C     20  15   5     1.499673432332   115.93770093   179.87380418
 C     45  20  15     1.397098248641   120.76713961   254.92722925
 C     46  45  20     1.390713391699   120.79886578   179.94805577
 C     47  46  45     1.390568884609   120.18624231     0.11744045
 C     48  47  46     1.390565227206   119.54805341   359.94259037
 C     49  48  47     1.390691346122   120.18711192   359.94809691
 H     46  45  20     1.083111432517   119.28375793     0.25681515
 H     47  46  45     1.083155797025   119.69796567   180.27828763
 H     48  47  46     1.082917312426   120.22740328   179.93951826
 H     49  48  47     1.083160048472   120.11647248   179.76605881
 H     50  49  48     1.083105322768   119.91592100   179.79604125
 C     21  18   1     1.499731602429   115.96147196   179.64337059
 C     56  21  18     1.397109427489   120.73150475   255.42390513
 C     57  56  21     1.390683386907   120.80188229   180.01087857
 C     58  57  56     1.390567970688   120.18696767     0.10537659
 C     59  58  57     1.390567148330   119.54498689   359.94724761
 C     60  59  58     1.390715522621   120.18937770   359.94786260
 H     57  56  21     1.083118996624   119.28894598     0.28208980
 H     58  57  56     1.083151660135   119.69626606   180.25545697
 H     59  58  57     1.082918801112   120.22920896   179.94654250
 H     60  59  58     1.083152397365   120.11630662   179.78011393
 H     61  60  59     1.083133142888   119.91082613   179.81218228
 C     25  12   8     1.499766884519   115.92851934   179.35228029
 C     67  25  12     1.397077168329   120.73917841    75.56881185
 C     68  67  25     1.390688588142   120.79913498   179.95591962
 C     69  68  67     1.390583248430   120.18824870     0.09799309
 C     70  69  68     1.390554462844   119.54591143   359.94521623
 C     71  70  69     1.390714141738   120.18679576   359.95030171
 H     68  67  25     1.083131832442   119.29777949     0.21256277
 H     69  68  67     1.083160630609   119.69831804   180.25645058
 H     70  69  68     1.082921088834   120.23113687   179.95226165
 H     71  70  69     1.083143554453   120.12040902   179.79842175
 H     72  71  70     1.083131507327   119.91684896   179.81504118

---------------------------
INTERNAL COORDINATES (A.U.)
---------------------------
 N      0   0   0     0.000000000000     0.00000000     0.00000000
 H      1   0   0    11.767153775060     0.00000000     0.00000000
 C      1   2   0     4.284206150375   141.35977369     0.00000000
 C      2   1   3     4.128425195274    32.86339705     0.34280941
 N      4   2   1     4.284157989380    95.78079355     0.08531973
 C      2   1   3     2.035904190870     2.92918026     3.53991666
 H      4   2   1     2.035894309468   103.55530413   179.90701124
 C      5   4   2     5.856655341286   126.82809258     0.21163959
 N      1   2   6     5.731564958321   101.12435337   183.45655203
 C      9   1   2     4.284253304934   117.52976755   180.00756343
 C      8   5   4     2.684173416297    51.59344702     0.05111827
 C      8   5   4     4.225018414922   109.34597485   179.66737486
 N     12   8   5     2.575482656939    34.89222548     0.24565151
 C     12   8   5     2.740602958294    72.46275824   180.07175052
 C      5   4   2     2.575541109164    37.63314937   180.50541806
 C      5   4   2     2.575506756632    72.58641748     0.36330981
 C      1   2   6     2.575469515208    68.77191694     3.34948301
 C      1   2   6     2.575630121642   178.97075037    14.70592998
 C      3   1   2     2.573320676885    72.52309798     0.07378407
 C     15   5   4     2.684258537495   126.05123773   180.53742367
 C     18   1  17     2.684094856065   126.05206197   180.38454889
 C     14  12   8     2.573300232573   107.53664106     0.30455902
 C      9   1   2     2.575414567079    79.89631003   179.85746444
 C     10   9   1     2.573290756953    72.52334945   180.17075694
 C     12   8   5     2.684010337218   160.94073403     0.99277551
 C      9   1   2     2.575555828026   169.88676824   359.60781380
 H      3   1   2     2.035934118084   160.66065628   180.65688984
 H     19   3   1     2.035904386085   126.79181051   179.75899513
 H     22  14  12     2.035912641977   126.80909247   179.52265103
 H     14  12   8     2.035925362983   125.65684331   180.30577475
 H     24  10   9     2.035934811734   126.81660426   179.77309827
 H     10   9   1     2.035918104553   160.68000721     0.75406544
 Cd    13  12   8     4.052728808125   124.88913229   180.11559583
 C     11   8   5     2.834097268980   115.93179297   180.11580825
 C     34  11   8     2.640139638587   120.76738948   255.16980924
 C     35  34  11     2.628068683505   120.79511174   179.90944824
 C     36  35  34     2.627775955292   120.18369120     0.11306297
 C     37  36  35     2.627795182684   119.55241508   359.93986629
 C     38  37  36     2.628057469409   120.18578262   359.94908443
 H     35  34  11     2.046781593754   119.27710586     0.23019603
 H     36  35  34     2.046858656909   119.69802581   180.28345548
 H     37  36  35     2.046415166832   120.22234294   179.94262356
 H     38  37  36     2.046868447394   120.11268666   179.78514681
 H     39  38  37     2.046801626483   119.91553040   179.83176155
 C     20  15   5     2.833972077425   115.93770093   179.87380418
 C     45  20  15     2.640133072112   120.76713961   254.92722925
 C     46  45  20     2.628067441089   120.79886578   179.94805577
 C     47  46  45     2.627794362264   120.18624231     0.11744045
 C     48  47  46     2.627787450774   119.54805341   359.94259037
 C     49  48  47     2.628025780985   120.18711192   359.94809691
 H     46  45  20     2.046783979976   119.28375793     0.25681515
 H     47  46  45     2.046867816746   119.69796567   180.27828763
 H     48  47  46     2.046417146167   120.22740328   179.93951826
 H     49  48  47     2.046875850817   120.11647248   179.76605881
 H     50  49  48     2.046772434223   119.91592100   179.79604125
 C     21  18   1     2.834082002978   115.96147196   179.64337059
 C     56  21  18     2.640154197074   120.73150475   255.42390513
 C     57  56  21     2.628010740248   120.80188229   180.01087857
 C     58  57  56     2.627792635202   120.18696767     0.10537659
 C     59  58  57     2.627791081172   119.54498689   359.94724761
 C     60  59  58     2.628071467947   120.18937770   359.94786260
 H     57  56  21     2.046798274066   119.28894598     0.28208980
 H     58  57  56     2.046859999158   119.69626606   180.25545697
 H     59  58  57     2.046419959377   120.22920896   179.94654250
 H     60  59  58     2.046861392320   120.11630662   179.78011393
 H     61  60  59     2.046825006631   119.91082613   179.81218228
 C     25  12   8     2.834148676465   115.92851934   179.35228029
 C     67  25  12     2.640093236096   120.73917841    75.56881185
 C     68  67  25     2.628020569159   120.79913498   179.95591962
 C     69  68  67     2.627821505951   120.18824870     0.09799309
 C     70  69  68     2.627767109077   119.54591143   359.94521623
 C     71  70  69     2.628068858456   120.18679576   359.95030171
 H     68  67  25     2.046822530248   119.29777949     0.21256277
 H     69  68  67     2.046876950897   119.69831804   180.25645058
 H     70  69  68     2.046424282545   120.23113687   179.95226165
 H     71  70  69     2.046844681638   120.12040902   179.79842175
 H     72  71  70     2.046821915869   119.91684896   179.81504118

---------------------
BASIS SET INFORMATION
---------------------
There are 4 groups of distinct atoms

 Group   1 Type N   : 11s6p2d1f contracted to 5s3p2d1f pattern {62111/411/11/1}
 Group   2 Type H   : 5s1p contracted to 3s1p pattern {311/1}
 Group   3 Type C   : 11s6p2d1f contracted to 5s3p2d1f pattern {62111/411/11/1}
 Group   4 Type Cd  : 7s7p6d1f contracted to 6s4p3d1f pattern {211111/4111/411/1}

Atom   0N    basis set group =>   1
Atom   1H    basis set group =>   2
Atom   2C    basis set group =>   3
Atom   3C    basis set group =>   3
Atom   4N    basis set group =>   1
Atom   5C    basis set group =>   3
Atom   6H    basis set group =>   2
Atom   7C    basis set group =>   3
Atom   8N    basis set group =>   1
Atom   9C    basis set group =>   3
Atom  10C    basis set group =>   3
Atom  11C    basis set group =>   3
Atom  12N    basis set group =>   1
Atom  13C    basis set group =>   3
Atom  14C    basis set group =>   3
Atom  15C    basis set group =>   3
Atom  16C    basis set group =>   3
Atom  17C    basis set group =>   3
Atom  18C    basis set group =>   3
Atom  19C    basis set group =>   3
Atom  20C    basis set group =>   3
Atom  21C    basis set group =>   3
Atom  22C    basis set group =>   3
Atom  23C    basis set group =>   3
Atom  24C    basis set group =>   3
Atom  25C    basis set group =>   3
Atom  26H    basis set group =>   2
Atom  27H    basis set group =>   2
Atom  28H    basis set group =>   2
Atom  29H    basis set group =>   2
Atom  30H    basis set group =>   2
Atom  31H    basis set group =>   2
Atom  32Cd   basis set group =>   4
Atom  33C    basis set group =>   3
Atom  34C    basis set group =>   3
Atom  35C    basis set group =>   3
Atom  36C    basis set group =>   3
Atom  37C    basis set group =>   3
Atom  38C    basis set group =>   3
Atom  39H    basis set group =>   2
Atom  40H    basis set group =>   2
Atom  41H    basis set group =>   2
Atom  42H    basis set group =>   2
Atom  43H    basis set group =>   2
Atom  44C    basis set group =>   3
Atom  45C    basis set group =>   3
Atom  46C    basis set group =>   3
Atom  47C    basis set group =>   3
Atom  48C    basis set group =>   3
Atom  49C    basis set group =>   3
Atom  50H    basis set group =>   2
Atom  51H    basis set group =>   2
Atom  52H    basis set group =>   2
Atom  53H    basis set group =>   2
Atom  54H    basis set group =>   2
Atom  55C    basis set group =>   3
Atom  56C    basis set group =>   3
Atom  57C    basis set group =>   3
Atom  58C    basis set group =>   3
Atom  59C    basis set group =>   3
Atom  60C    basis set group =>   3
Atom  61H    basis set group =>   2
Atom  62H    basis set group =>   2
Atom  63H    basis set group =>   2
Atom  64H    basis set group =>   2
Atom  65H    basis set group =>   2
Atom  66C    basis set group =>   3
Atom  67C    basis set group =>   3
Atom  68C    basis set group =>   3
Atom  69C    basis set group =>   3
Atom  70C    basis set group =>   3
Atom  71C    basis set group =>   3
Atom  72H    basis set group =>   2
Atom  73H    basis set group =>   2
Atom  74H    basis set group =>   2
Atom  75H    basis set group =>   2
Atom  76H    basis set group =>   2
---------------------------------
AUXILIARY/J BASIS SET INFORMATION
---------------------------------
There are 4 groups of distinct atoms

 Group   1 Type N   : 12s5p4d2f1g contracted to 6s4p3d1f1g pattern {711111/2111/211/2/1}
 Group   2 Type H   : 5s2p1d contracted to 3s1p1d pattern {311/2/1}
 Group   3 Type C   : 12s5p4d2f1g contracted to 6s4p3d1f1g pattern {711111/2111/211/2/1}
 Group   4 Type Cd  : 11s5p5d3f3g contracted to 8s5p5d2f3g pattern {41111111/11111/11111/21/111}

Atom   0N    basis set group =>   1
Atom   1H    basis set group =>   2
Atom   2C    basis set group =>   3
Atom   3C    basis set group =>   3
Atom   4N    basis set group =>   1
Atom   5C    basis set group =>   3
Atom   6H    basis set group =>   2
Atom   7C    basis set group =>   3
Atom   8N    basis set group =>   1
Atom   9C    basis set group =>   3
Atom  10C    basis set group =>   3
Atom  11C    basis set group =>   3
Atom  12N    basis set group =>   1
Atom  13C    basis set group =>   3
Atom  14C    basis set group =>   3
Atom  15C    basis set group =>   3
Atom  16C    basis set group =>   3
Atom  17C    basis set group =>   3
Atom  18C    basis set group =>   3
Atom  19C    basis set group =>   3
Atom  20C    basis set group =>   3
Atom  21C    basis set group =>   3
Atom  22C    basis set group =>   3
Atom  23C    basis set group =>   3
Atom  24C    basis set group =>   3
Atom  25C    basis set group =>   3
Atom  26H    basis set group =>   2
Atom  27H    basis set group =>   2
Atom  28H    basis set group =>   2
Atom  29H    basis set group =>   2
Atom  30H    basis set group =>   2
Atom  31H    basis set group =>   2
Atom  32Cd   basis set group =>   4
Atom  33C    basis set group =>   3
Atom  34C    basis set group =>   3
Atom  35C    basis set group =>   3
Atom  36C    basis set group =>   3
Atom  37C    basis set group =>   3
Atom  38C    basis set group =>   3
Atom  39H    basis set group =>   2
Atom  40H    basis set group =>   2
Atom  41H    basis set group =>   2
Atom  42H    basis set group =>   2
Atom  43H    basis set group =>   2
Atom  44C    basis set group =>   3
Atom  45C    basis set group =>   3
Atom  46C    basis set group =>   3
Atom  47C    basis set group =>   3
Atom  48C    basis set group =>   3
Atom  49C    basis set group =>   3
Atom  50H    basis set group =>   2
Atom  51H    basis set group =>   2
Atom  52H    basis set group =>   2
Atom  53H    basis set group =>   2
Atom  54H    basis set group =>   2
Atom  55C    basis set group =>   3
Atom  56C    basis set group =>   3
Atom  57C    basis set group =>   3
Atom  58C    basis set group =>   3
Atom  59C    basis set group =>   3
Atom  60C    basis set group =>   3
Atom  61H    basis set group =>   2
Atom  62H    basis set group =>   2
Atom  63H    basis set group =>   2
Atom  64H    basis set group =>   2
Atom  65H    basis set group =>   2
Atom  66C    basis set group =>   3
Atom  67C    basis set group =>   3
Atom  68C    basis set group =>   3
Atom  69C    basis set group =>   3
Atom  70C    basis set group =>   3
Atom  71C    basis set group =>   3
Atom  72H    basis set group =>   2
Atom  73H    basis set group =>   2
Atom  74H    basis set group =>   2
Atom  75H    basis set group =>   2
Atom  76H    basis set group =>   2
-------------------------
ECP PARAMETER INFORMATION
-------------------------

 Group 1, Type Cd ECP Def2-ECP (replacing 28 core electrons, lmax=3)

Atom  32Cd   ECP group =>   1



           ************************************************************
           *        Program running with 8 parallel MPI-processes     *
           *              working on a common directory               *
           ************************************************************
------------------------------------------------------------------------------
                             ORCA STARTUP CALCULATIONS
                           -- RI-GTO INTEGRALS CHOSEN --
------------------------------------------------------------------------------
------------------------------------------------------------------------------
                   ___                                                        
                  /   \      - P O W E R E D   B Y -                         
                 /     \                                                     
                 |  |  |   _    _      __       _____    __    __             
                 |  |  |  | |  | |    /  \     |  _  \  |  |  /  |          
                  \  \/   | |  | |   /    \    | | | |  |  | /  /          
                 / \  \   | |__| |  /  /\  \   | |_| |  |  |/  /          
                |  |  |   |  __  | /  /__\  \  |    /   |      \           
                |  |  |   | |  | | |   __   |  |    \   |  |\   \          
                \     /   | |  | | |  |  |  |  | |\  \  |  | \   \       
                 \___/    |_|  |_| |__|  |__|  |_| \__\ |__|  \__/        
                                                                              
                      - O R C A' S   B I G   F R I E N D -                    
                                      &                                       
                       - I N T E G R A L  F E E D E R -                       
                                                                              
 v1 FN, 2020, v2 2021, v3 2022-2024                                           
------------------------------------------------------------------------------


----------------------
SHARK INTEGRAL PACKAGE
----------------------

Number of atoms                             ...     77
Number of basis functions                   ...   1696
Number of shells                            ...    654
Maximum angular momentum                    ...      3
Integral batch strategy                     ... SHARK/LIBINT Hybrid
RI-J (if used) integral strategy            ... SPLIT-RIJ (Revised 2003 algorithm where possible)
Printlevel                                  ...      1
Contraction scheme used                     ... SEGMENTED contraction
Prescreening option                         ... SCHWARTZ
   Thresh                                   ... 2.500e-11
   Tcut                                     ... 2.500e-12
   Tpresel                                  ... 2.500e-12 
Coulomb Range Separation                    ... NOT USED
Exchange Range Separation                   ... NOT USED
Multipole approximations                    ... NOT USED
Finite Nucleus Model                        ... NOT USED
CABS basis                                  ... NOT available
Auxiliary Coulomb fitting basis             ... AVAILABLE
   # of basis functions in Aux-J            ...   2749
   # of shells in Aux-J                     ...    883
   Maximum angular momentum in Aux-J        ...      4
Auxiliary J/K fitting basis                 ... NOT available
Auxiliary Correlation fitting basis         ... NOT available
Auxiliary 'external' fitting basis          ... NOT available

Checking pre-screening integrals            ... done (  0.0 sec) Dimension = 654
   => SHARK Basis and OBASIS are compatible. Storing Pre-screening
Shell pair information
Shell pair cut-off parameter TPreSel        ...   2.5e-12
Total number of shell pairs                 ...    214185
Shell pairs after pre-screening             ...    102923
Total number of primitive shell pairs       ...    661828
Primitive shell pairs kept                  ...    195318
          la=0 lb=0:  24466 shell pairs
          la=1 lb=0:  30251 shell pairs
          la=1 lb=1:   9264 shell pairs
          la=2 lb=0:  14569 shell pairs
          la=2 lb=1:   9131 shell pairs
          la=2 lb=2:   2183 shell pairs
          la=3 lb=0:   6534 shell pairs
          la=3 lb=1:   4213 shell pairs
          la=3 lb=2:   1859 shell pairs
          la=3 lb=3:    453 shell pairs

Checking whether 4 symmetric matrices of dimension 1696 fit in memory
:Max Core in MB      =   3000.00
 MB in use           =    125.13
 MB left             =   2874.87
 MB needed           =     43.92
 Data fit in memory  = YES
Calculating RI/J V-Matrix + Cholesky decomp.... done (  0.7 sec)
Calculating Nuclear repulsion               ... done (  0.0 sec) ENN=   6024.933714368106 Eh

Diagonalization of the overlap matrix:
Smallest eigenvalue                        ... 3.288e-06
Time for diagonalization                   ...    0.862 sec
Threshold for overlap eigenvalues          ... 1.000e-07
Number of eigenvalues below threshold      ... 0
Time for construction of square roots      ...    1.436 sec
Total time needed                          ...    2.378 sec

-------------------
DFT GRID GENERATION
-------------------

General Integration Accuracy     IntAcc      ... 4.959
Radial Grid Type                 RadialGrid  ... OptM3 with GC (2021)
Angular Grid (max. ang.)         AngularGrid ... 6 (Lebedev-590)
Angular grid pruning method      GridPruning ... 4 (adaptive)
Weight generation scheme         WeightScheme... mBecke (2022)
Basis function cutoff            BFCut       ... 1.0000e-11
Integration weight cutoff        WCut        ... 1.0000e-14
Partially contracted basis set               ... off
Rotationally invariant grid construction     ... off
Angular grids for H and He will be reduced by one unit

Total number of grid points                  ...   932479
Total number of batches                      ...    14611
Average number of points per batch           ...       63
Average number of grid points per atom       ...    12110
Grids setup in  25.5 sec
Initializing property integral containers    ... done (  0.0 sec)

SHARK setup successfully completed in  36.4 seconds

Maximum memory used throughout the entire STARTUP-calculation: 302.5 MB


           ************************************************************
           *        Program running with 8 parallel MPI-processes     *
           *              working on a common directory               *
           ************************************************************
-------------------------------------------------------------------------------
                                 ORCA GUESS
                   Start orbitals & Density for SCF / CASSCF
-------------------------------------------------------------------------------

------------
SCF SETTINGS
------------
Hamiltonian:
 Density Functional     Method          .... DFT(GTOs)
 Exchange Functional    Exchange        .... B88
   X-Alpha parameter    XAlpha          ....  0.666667
   Becke's b parameter  XBeta           ....  0.004200
 Correlation Functional Correlation     .... P86
 LDA part of GGA corr.  LDAOpt          .... PW91-LDA
 Gradients option       PostSCFGGA      .... off
   NL short-range parameter             ....  4.400000
 RI-approximation to the Coulomb term is turned on
   Number of AuxJ basis functions       .... 2749


General Settings:
 Integral files         IntName         .... tddft
 Hartree-Fock type      HFTyp           .... RHF
 Total Charge           Charge          ....    0
 Multiplicity           Mult            ....    1
 Number of Electrons    NEL             ....  340
 Basis Dimension        Dim             .... 1696
 Nuclear Repulsion      ENuc            ....   6024.9337143681 Eh

Convergence Acceleration:
 AO-DIIS                CNVDIIS         .... on
   Start iteration      DIISMaxIt       ....    12
   Startup error        DIISStart       ....  0.200000
   # of expansion vecs  DIISMaxEq       ....     5
   Bias factor          DIISBfac        ....   1.050
   Max. coefficient     DIISMaxC        ....  10.000
 MO-DIIS                CNVKDIIS        .... off
 Trust-Rad. Augm. Hess. CNVTRAH         .... auto
   Auto Start mean grad. ratio tolernc. ....  1.125000
   Auto Start start iteration           ....    50
   Auto Start num. interpolation iter.  ....    10
   Max. Number of Micro iterations      ....    24
   Max. Number of Macro iterations      .... Maxiter - #DIIS iter
   Number of Davidson start vectors     ....     2
   Converg. threshold    (grad. norm)   ....   1.000e-05
   Grad. Scal. Fac. for Micro threshold ....   0.100
   Minimum threshold for Micro iter.    ....   1.000e-02
   NR start threshold (gradient norm)   ....   1.000e-04
   Initial trust radius                 ....   0.400
   Minimum AH scaling param. (alpha)    ....   1.000
   Maximum AH scaling param. (alpha)    .... 1000.000
   Quad. conv. algorithm                .... NR
   White noise on init. David. guess    .... on
   Maximum white noise                  ....   0.010
   Pseudo random numbers                .... off
   Inactive MOs                         .... canonical
   Orbital update algorithm             .... Taylor
   Preconditioner                       .... Diag
   Full preconditioner red. dimension   ....   250
 SOSCF                 CNVSOSCF           .... on
   Start iteration     SOSCFMaxIt         ....   150
   Startup grad/error  SOSCFStart         ....  0.003300
   Hessian update      SOSCFHessUp        .... L-BFGS
   Autom. constraints  SOSCFAutoConstrain .... off
 Level Shifting         CNVShift        .... on
   Level shift para.    LevelShift      ....    0.2500
   Turn off err/grad.   ShiftErr        ....    0.0010
 Zerner damping         CNVZerner       .... off
 Static damping         CNVDamp         .... on
   Fraction old density DampFac         ....    0.7000
   Max. Damping (<1)    DampMax         ....    0.9800
   Min. Damping (>=0)   DampMin         ....    0.0000
   Turn off err/grad.   DampErr         ....    0.1000

SCF Procedure:
 Maximum # iterations   MaxIter         ....   125
 SCF integral mode      SCFMode         .... Direct
   Integral package                     .... SHARK and LIBINT hybrid scheme
 Reset frequency        DirectResetFreq ....    20
 Integral Threshold     Thresh          ....  2.500e-11 Eh
 Primitive CutOff       TCut            ....  2.500e-12 Eh

Convergence Tolerance:
 Convergence Check Mode ConvCheckMode   .... Total+1el-Energy
 Convergence forced     ConvForced      .... 1
 Energy Change          TolE            ....  1.000e-08 Eh
 1-El. energy change                    ....  1.000e-05 Eh
 Orbital Gradient       TolG            ....  1.000e-05
 Orbital Rotation angle TolX            ....  1.000e-05
 DIIS Error             TolErr          ....  5.000e-07

------------------------------
INITIAL GUESS: MODEL POTENTIAL
------------------------------
Loading Hartree-Fock densities                     ... done
Atomic calculation to generate a density for atom 32 (Cd with ECP)
  Multiplicity assumed   :    1
  Atomic configuration   : 1s2 2s2 2p6 3s2 3p6 4s2 3d10 4p6 5s2 4d10 
  Number of open shells  : 1
  Command: /opt/orca/orca tddft_atom48.inp "" > tddft_atom48.out
Returned from the atomic calculation with res=0
Calculating cut-offs                               ... done
Initializing the effective Hamiltonian             ... done
Setting up the integral package (SHARK)            ... done
Starting the Coulomb interaction                   ... done (  10.3 sec)
Making the grid                                    ... done (   3.1 sec)
Mapping shells                                     ... done
Starting the XC term evaluation                    ... done (   5.4 sec)
  promolecular density results
     # of electrons  =    367.983777213
     EX              =   -409.980447949
     EC              =    -14.680657266
     EX+EC           =   -424.661105215
Transforming the Hamiltonian                       ... done (   1.0 sec)
Diagonalizing the Hamiltonian                      ... done (   3.0 sec)
Back transforming the eigenvectors                 ... done (   2.9 sec)
Now organizing SCF variables                       ... done
                      ------------------
                      INITIAL GUESS DONE (  28.9 sec)
                      ------------------
             **** ENERGY FILE WAS UPDATED (tddft.en.tmp) ****
Finished Guess after  33.4 sec
Maximum memory used throughout the entire GUESS-calculation: 203.8 MB


           ************************************************************
           *        Program running with 8 parallel MPI-processes     *
           *              working on a common directory               *
           ************************************************************

-------------------------------------------------------------------------------------------
                                      ORCA LEAN-SCF
                              memory conserving SCF solver
-------------------------------------------------------------------------------------------

--------------------
CPCM SOLVATION MODEL
--------------------
CPCM parameters:
  Epsilon                                         ...       2.3870
  Refrac                                          ...       1.4961
  Rsolv                                           ...       1.3000
  Surface type                                    ... GAUSSIAN VDW
  Discretization scheme                           ... Constant charge density
    Threshold for H atoms                         ...       5.0000 (charges/Ang^2)
    Threshold for non-H atoms                     ...       5.0000 (charges/Ang^2)
  Epsilon function type                           ...         CPCM
Solvent:                                          ... TOLUENE
Radii:
  Scheme                                          ... Element-dependent radii
  Radius for N  used is    3.5149 Bohr (=   1.8600 Ang.)
  Radius for H  used is    2.4944 Bohr (=   1.3200 Ang.)
  Radius for C  used is    3.8550 Bohr (=   2.0400 Ang.)
  Radius for Cd used is    3.5829 Bohr (=   1.8960 Ang.)
Calculating surface                               ...        done! (  0.1s)
Cavity surface points                             ...         6818
Cavity Volume                                     ...    4957.4798
Cavity Surface-area                               ...    2298.4400
Calculating surface distance matrix               ...        done! (  2.2s)
Performing Cholesky decomposition & store         ...        done! (  9.6s)
Overall time for CPCM initialization              ...                11.9s

----------------------------------------D-I-I-S--------------------------------------------
Iteration    Energy (Eh)           Delta-E    RMSDP     MaxDP     DIISErr   Damp  Time(sec)
-------------------------------------------------------------------------------------------
               ***  Starting incremental Fock matrix formation  ***
    1    -2080.2586397443437818     0.00e+00  2.23e-03  1.15e-01  5.06e-01  0.700  77.8
Warning: op=0 Small HOMO/LUMO gap (   0.053) - skipping pre-diagonalization
         Will do a full diagonalization
    2    -2080.6868167941620413    -4.28e-01  1.84e-03  8.86e-02  3.49e-01  0.700  77.6
    3    -2080.8523476233140173    -1.66e-01  9.81e-04  3.79e-02  2.41e-01  0.700  72.9
                               ***Turning on AO-DIIS***
    4    -2080.9432559976621633    -9.09e-02  4.72e-04  1.64e-02  1.66e-01  0.700  82.8
    5    -2081.0092590043768723    -6.60e-02  3.30e-04  1.30e-02  1.15e-01  0.700  65.8
    6    -2081.0555119843438661    -4.63e-02  2.61e-04  1.06e-02  8.08e-02  0.700  62.7
    7    -2081.0878208530530173    -3.23e-02  6.64e-04  2.68e-02  5.66e-02  0.000  59.7
                              *** Initializing SOSCF ***
---------------------------------------S-O-S-C-F--------------------------------------
Iteration    Energy (Eh)           Delta-E    RMSDP     MaxDP     MaxGrad    Time(sec)
--------------------------------------------------------------------------------------
    8    -2081.1628847421634418    -7.51e-02  5.08e-05  2.17e-03  1.18e-03    73.2
               *** Restarting incremental Fock matrix formation ***
    9    -2081.1629055251332829    -2.08e-05  6.69e-05  3.20e-03  2.80e-04    74.7
   10    -2081.1628845678660582     2.10e-05  2.04e-05  1.04e-03  7.48e-04    56.1
   11    -2081.1629141843250181    -2.96e-05  1.85e-05  4.76e-04  5.99e-05    57.7
   12    -2081.1629130847732085     1.10e-06  9.25e-06  4.36e-04  1.29e-04    51.6
   13    -2081.1629146617724473    -1.58e-06  1.50e-05  5.58e-04  1.07e-05    58.6
   14    -2081.1629147343328441    -7.26e-08  6.87e-06  3.64e-04  1.75e-05    46.6
   15    -2081.1629146369696173     9.74e-08  1.44e-05  6.88e-04  1.86e-06    43.3
                  *** Gradient check signals convergence ***

               *****************************************************
               *                     SUCCESS                       *
               *           SCF CONVERGED AFTER  15 CYCLES          *
               *****************************************************

             **** ENERGY FILE WAS UPDATED (tddft.en.tmp) ****

----------------
TOTAL SCF ENERGY
----------------

Total Energy       :      -2081.16291462416575 Eh          -56631.32199 eV

Components:
Nuclear Repulsion  :       6024.93371436810594 Eh          163946.78126 eV
Electronic Energy  :      -8106.08495411040803 Eh         -220577.78556 eV
One Electron Energy:     -14888.35765577134771 Eh         -405132.80837 eV
Two Electron Energy:       6782.27270166093967 Eh          184555.02281 eV
CPCM Dielectric    :         -0.01167488186371 Eh              -0.31769 eV

Virial components:
Potential Energy   :      -4050.67671636272007 Eh         -110224.51716 eV
Kinetic Energy     :       1969.51380173855432 Eh           53593.19517 eV
Virial Ratio       :          2.05668866741988

DFT components:
N(Alpha)           :      170.000020583782 electrons
N(Beta)            :      170.000020583782 electrons
N(Total)           :      340.000041167563 electrons
E(X)               :     -280.404600527593 Eh       
E(C)               :      -12.692483884374 Eh       
E(XC)              :     -293.097084411967 Eh       

CPCM Solvation Model Properties:
Surface-charge          :         -0.05092879913377
Corrected charge        :          0.00000000000000
Outlying charge corr.   :          0.00005900418069 Eh               0.00161 eV
Free-energy (cav+disp)  :  This term is not implemented in the current solvation scheme

---------------
SCF CONVERGENCE
---------------

  Last Energy change         ...   -9.7363e-08  Tolerance :   1.0000e-08
  Last MAX-Density change    ...    6.8848e-04  Tolerance :   1.0000e-07
  Last RMS-Density change    ...    1.4389e-05  Tolerance :   5.0000e-09
  Last DIIS Error            ...    1.1806e-03  Tolerance :   5.0000e-07
  Last Orbital Gradient      ...    1.8629e-06  Tolerance :   1.0000e-05
  Last Orbital Rotation      ...    6.8708e-06  Tolerance :   1.0000e-05


----------------
ORBITAL ENERGIES
----------------

  NO   OCC          E(Eh)            E(eV) 
   0   2.0000     -13.999448      -380.9444 
   1   2.0000     -13.999444      -380.9442 
   2   2.0000     -13.999431      -380.9439 
   3   2.0000     -13.999422      -380.9436 
   4   2.0000      -9.938548      -270.4416 
   5   2.0000      -9.938529      -270.4411 
   6   2.0000      -9.938524      -270.4410 
   7   2.0000      -9.938510      -270.4406 
   8   2.0000      -9.938497      -270.4402 
   9   2.0000      -9.938493      -270.4401 
  10   2.0000      -9.938484      -270.4399 
  11   2.0000      -9.938469      -270.4395 
  12   2.0000      -9.928210      -270.1603 
  13   2.0000      -9.928183      -270.1596 
  14   2.0000      -9.928182      -270.1596 
  15   2.0000      -9.928150      -270.1587 
  16   2.0000      -9.915550      -269.8158 
  17   2.0000      -9.915539      -269.8155 
  18   2.0000      -9.915532      -269.8153 
  19   2.0000      -9.915530      -269.8153 
  20   2.0000      -9.902278      -269.4547 
  21   2.0000      -9.902270      -269.4545 
  22   2.0000      -9.902266      -269.4544 
  23   2.0000      -9.902263      -269.4543 
  24   2.0000      -9.902259      -269.4542 
  25   2.0000      -9.902258      -269.4541 
  26   2.0000      -9.902257      -269.4541 
  27   2.0000      -9.902250      -269.4539 
  28   2.0000      -9.901935      -269.4453 
  29   2.0000      -9.901928      -269.4452 
  30   2.0000      -9.901926      -269.4451 
  31   2.0000      -9.901920      -269.4449 
  32   2.0000      -9.901851      -269.4431 
  33   2.0000      -9.901845      -269.4429 
  34   2.0000      -9.901844      -269.4429 
  35   2.0000      -9.901836      -269.4427 
  36   2.0000      -9.901315      -269.4285 
  37   2.0000      -9.901311      -269.4284 
  38   2.0000      -9.901306      -269.4282 
  39   2.0000      -9.901301      -269.4281 
  40   2.0000      -9.897734      -269.3310 
  41   2.0000      -9.897729      -269.3309 
  42   2.0000      -9.897727      -269.3308 
  43   2.0000      -9.897724      -269.3307 
  44   2.0000      -9.897221      -269.3171 
  45   2.0000      -9.897217      -269.3170 
  46   2.0000      -9.897214      -269.3169 
  47   2.0000      -9.897211      -269.3168 
  48   2.0000      -3.952091      -107.5419 
  49   2.0000      -2.508798       -68.2679 
  50   2.0000      -2.497468       -67.9596 
  51   2.0000      -2.497464       -67.9595 
  52   2.0000      -0.889318       -24.1996 
  53   2.0000      -0.881843       -23.9962 
  54   2.0000      -0.881834       -23.9959 
  55   2.0000      -0.875001       -23.8100 
  56   2.0000      -0.796016       -21.6607 
  57   2.0000      -0.793089       -21.5810 
  58   2.0000      -0.793082       -21.5808 
  59   2.0000      -0.791578       -21.5399 
  60   2.0000      -0.752087       -20.4653 
  61   2.0000      -0.736976       -20.0541 
  62   2.0000      -0.736974       -20.0541 
  63   2.0000      -0.720376       -19.6024 
  64   2.0000      -0.698418       -19.0049 
  65   2.0000      -0.697206       -18.9719 
  66   2.0000      -0.697200       -18.9718 
  67   2.0000      -0.693780       -18.8787 
  68   2.0000      -0.682773       -18.5792 
  69   2.0000      -0.682485       -18.5714 
  70   2.0000      -0.682477       -18.5711 
  71   2.0000      -0.682364       -18.5681 
  72   2.0000      -0.676351       -18.4044 
  73   2.0000      -0.669783       -18.2257 
  74   2.0000      -0.669779       -18.2256 
  75   2.0000      -0.657641       -17.8953 
  76   2.0000      -0.645154       -17.5555 
  77   2.0000      -0.602977       -16.4079 
  78   2.0000      -0.602975       -16.4078 
  79   2.0000      -0.566718       -15.4212 
  80   2.0000      -0.553487       -15.0611 
  81   2.0000      -0.552770       -15.0416 
  82   2.0000      -0.552761       -15.0414 
  83   2.0000      -0.552179       -15.0256 
  84   2.0000      -0.545486       -14.8434 
  85   2.0000      -0.545483       -14.8434 
  86   2.0000      -0.539805       -14.6888 
  87   2.0000      -0.539407       -14.6780 
  88   2.0000      -0.530160       -14.4264 
  89   2.0000      -0.512119       -13.9355 
  90   2.0000      -0.512115       -13.9354 
  91   2.0000      -0.506321       -13.7777 
  92   2.0000      -0.501186       -13.6380 
  93   2.0000      -0.498888       -13.5754 
  94   2.0000      -0.490042       -13.3347 
  95   2.0000      -0.479341       -13.0435 
  96   2.0000      -0.479337       -13.0434 
  97   2.0000      -0.473409       -12.8821 
  98   2.0000      -0.468460       -12.7475 
  99   2.0000      -0.468457       -12.7474 
 100   2.0000      -0.457391       -12.4462 
 101   2.0000      -0.446473       -12.1492 
 102   2.0000      -0.446470       -12.1491 
 103   2.0000      -0.431156       -11.7323 
 104   2.0000      -0.431143       -11.7320 
 105   2.0000      -0.427352       -11.6288 
 106   2.0000      -0.419151       -11.4057 
 107   2.0000      -0.418007       -11.3745 
 108   2.0000      -0.417211       -11.3529 
 109   2.0000      -0.413785       -11.2597 
 110   2.0000      -0.413779       -11.2595 
 111   2.0000      -0.413231       -11.2446 
 112   2.0000      -0.412994       -11.2381 
 113   2.0000      -0.408184       -11.1072 
 114   2.0000      -0.405626       -11.0376 
 115   2.0000      -0.405619       -11.0375 
 116   2.0000      -0.402009       -10.9392 
 117   2.0000      -0.384810       -10.4712 
 118   2.0000      -0.381269       -10.3749 
 119   2.0000      -0.378912       -10.3107 
 120   2.0000      -0.378903       -10.3105 
 121   2.0000      -0.378569       -10.3014 
 122   2.0000      -0.378568       -10.3013 
 123   2.0000      -0.378409       -10.2970 
 124   2.0000      -0.377802       -10.2805 
 125   2.0000      -0.377025       -10.2594 
 126   2.0000      -0.370094       -10.0708 
 127   2.0000      -0.368157       -10.0181 
 128   2.0000      -0.368149       -10.0179 
 129   2.0000      -0.360532        -9.8106 
 130   2.0000      -0.360018        -9.7966 
 131   2.0000      -0.360014        -9.7965 
 132   2.0000      -0.346343        -9.4245 
 133   2.0000      -0.345371        -9.3980 
 134   2.0000      -0.343821        -9.3558 
 135   2.0000      -0.340354        -9.2615 
 136   2.0000      -0.340348        -9.2614 
 137   2.0000      -0.333737        -9.0814 
 138   2.0000      -0.331895        -9.0313 
 139   2.0000      -0.331892        -9.0312 
 140   2.0000      -0.328111        -8.9284 
 141   2.0000      -0.322169        -8.7667 
 142   2.0000      -0.311975        -8.4893 
 143   2.0000      -0.310717        -8.4550 
 144   2.0000      -0.307531        -8.3684 
 145   2.0000      -0.307524        -8.3682 
 146   2.0000      -0.307214        -8.3597 
 147   2.0000      -0.307213        -8.3597 
 148   2.0000      -0.306743        -8.3469 
 149   2.0000      -0.299356        -8.1459 
 150   2.0000      -0.286174        -7.7872 
 151   2.0000      -0.279996        -7.6191 
 152   2.0000      -0.279985        -7.6188 
 153   2.0000      -0.259044        -7.0489 
 154   2.0000      -0.259042        -7.0489 
 155   2.0000      -0.239045        -6.5047 
 156   2.0000      -0.238948        -6.5021 
 157   2.0000      -0.238010        -6.4766 
 158   2.0000      -0.238001        -6.4763 
 159   2.0000      -0.237595        -6.4653 
 160   2.0000      -0.235477        -6.4077 
 161   2.0000      -0.234330        -6.3764 
 162   2.0000      -0.233224        -6.3464 
 163   2.0000      -0.233220        -6.3462 
 164   2.0000      -0.224081        -6.0975 
 165   2.0000      -0.223270        -6.0755 
 166   2.0000      -0.223260        -6.0752 
 167   2.0000      -0.194072        -5.2810 
 168   2.0000      -0.182820        -4.9748 
 169   2.0000      -0.182536        -4.9670 
 170   0.0000      -0.114771        -3.1231 
 171   0.0000      -0.114770        -3.1230 
 172   0.0000      -0.068934        -1.8758 
 173   0.0000      -0.050209        -1.3663 
 174   0.0000      -0.049058        -1.3349 
 175   0.0000      -0.049055        -1.3349 
 176   0.0000      -0.048539        -1.3208 
 177   0.0000      -0.047528        -1.2933 
 178   0.0000      -0.047073        -1.2809 
 179   0.0000      -0.046302        -1.2600 
 180   0.0000      -0.046298        -1.2598 
*Only the first 10 virtual orbitals were printed.

                    ********************************
                    * MULLIKEN POPULATION ANALYSIS *
                    ********************************

-----------------------
MULLIKEN ATOMIC CHARGES
-----------------------
   0 N :   -0.274319
   1 H :    0.156455
   2 C :   -0.228952
   3 C :   -0.229320
   4 N :   -0.274637
   5 C :   -0.229392
   6 H :    0.156526
   7 C :    0.155893
   8 N :   -0.274690
   9 C :   -0.229396
  10 C :    0.039526
  11 C :    0.156647
  12 N :   -0.274350
  13 C :   -0.229074
  14 C :    0.156279
  15 C :    0.156450
  16 C :    0.156225
  17 C :    0.156556
  18 C :   -0.229605
  19 C :    0.039718
  20 C :    0.038224
  21 C :   -0.229074
  22 C :    0.156882
  23 C :   -0.228788
  24 C :    0.037966
  25 C :    0.156480
  26 H :    0.156314
  27 H :    0.156557
  28 H :    0.156464
  29 H :    0.156367
  30 H :    0.156376
  31 H :    0.156473
  32 Cd:    0.525411
  33 C :    0.049270
  34 C :   -0.188095
  35 C :   -0.134131
  36 C :   -0.111683
  37 C :   -0.134281
  38 C :   -0.187929
  39 H :    0.130358
  40 H :    0.127079
  41 H :    0.128921
  42 H :    0.127078
  43 H :    0.130342
  44 C :    0.050261
  45 C :   -0.188886
  46 C :   -0.134011
  47 C :   -0.111848
  48 C :   -0.133848
  49 C :   -0.188903
  50 H :    0.130416
  51 H :    0.127120
  52 H :    0.128916
  53 H :    0.127100
  54 H :    0.130437
  55 C :    0.047369
  56 C :   -0.186575
  57 C :   -0.134827
  58 C :   -0.111365
  59 C :   -0.134669
  60 C :   -0.186548
  61 H :    0.130281
  62 H :    0.127079
  63 H :    0.128927
  64 H :    0.127070
  65 H :    0.130231
  66 C :    0.046849
  67 C :   -0.186029
  68 C :   -0.134771
  69 C :   -0.111242
  70 C :   -0.134965
  71 C :   -0.186012
  72 H :    0.130165
  73 H :    0.127060
  74 H :    0.128885
  75 H :    0.127057
  76 H :    0.130153
Sum of atomic charges:   -0.0000000

--------------------------------
MULLIKEN REDUCED ORBITAL CHARGES
--------------------------------
  0 N s       :     3.656639  s :     3.656639
      pz      :     1.336235  p :     3.544243
      px      :     1.199737
      py      :     1.008270
      dz2     :     0.005388  d :     0.069603
      dxz     :     0.007592
      dyz     :     0.015571
      dx2y2   :     0.022555
      dxy     :     0.018496
      f0      :     0.000646  f :     0.003834
      f+1     :     0.000329
      f-1     :     0.000395
      f+2     :     0.000176
      f-2     :     0.000599
      f+3     :     0.000622
      f-3     :     0.001066

  1 H s       :     0.821163  s :     0.821163
      pz      :     0.005098  p :     0.022382
      px      :     0.008262
      py      :     0.009022

  2 C s       :     3.296568  s :     3.296568
      pz      :     0.994730  p :     2.848520
      px      :     0.920270
      py      :     0.933521
      dz2     :     0.005623  d :     0.076558
      dxz     :     0.009783
      dyz     :     0.017668
      dx2y2   :     0.015866
      dxy     :     0.027618
      f0      :     0.001329  f :     0.007305
      f+1     :     0.000676
      f-1     :     0.000516
      f+2     :     0.000918
      f-2     :     0.000400
      f+3     :     0.002260
      f-3     :     0.001206

  3 C s       :     3.296541  s :     3.296541
      pz      :     0.994302  p :     2.848900
      px      :     0.935302
      py      :     0.919296
      dz2     :     0.005279  d :     0.076574
      dxz     :     0.018144
      dyz     :     0.009649
      dx2y2   :     0.015834
      dxy     :     0.027668
      f0      :     0.001372  f :     0.007306
      f+1     :     0.000427
      f-1     :     0.000694
      f+2     :     0.000962
      f-2     :     0.000387
      f+3     :     0.001187
      f-3     :     0.002277

  4 N s       :     3.656477  s :     3.656477
      pz      :     1.337715  p :     3.544723
      px      :     1.005649
      py      :     1.201359
      dz2     :     0.005227  d :     0.069603
      dxz     :     0.015762
      dyz     :     0.007544
      dx2y2   :     0.022497
      dxy     :     0.018573
      f0      :     0.000652  f :     0.003834
      f+1     :     0.000384
      f-1     :     0.000334
      f+2     :     0.000173
      f-2     :     0.000595
      f+3     :     0.001075
      f-3     :     0.000621

  5 C s       :     3.296753  s :     3.296753
      pz      :     0.989597  p :     2.848763
      px      :     0.947405
      py      :     0.911761
      dz2     :     0.005550  d :     0.076571
      dxz     :     0.016041
      dyz     :     0.011511
      dx2y2   :     0.015817
      dxy     :     0.027652
      f0      :     0.001358  f :     0.007305
      f+1     :     0.000463
      f-1     :     0.000675
      f+2     :     0.001222
      f-2     :     0.000121
      f+3     :     0.001332
      f-3     :     0.002133

  6 H s       :     0.821089  s :     0.821089
      pz      :     0.005124  p :     0.022386
      px      :     0.006725
      py      :     0.010537

  7 C s       :     3.202823  s :     3.202823
      pz      :     0.946483  p :     2.466727
      px      :     0.814954
      py      :     0.705290
      dz2     :     0.004864  d :     0.160475
      dxz     :     0.028437
      dyz     :     0.034973
      dx2y2   :     0.049139
      dxy     :     0.043062
      f0      :     0.001915  f :     0.014082
      f+1     :     0.000840
      f-1     :     0.001067
      f+2     :     0.000695
      f-2     :     0.002211
      f+3     :     0.003528
      f-3     :     0.003825

  8 N s       :     3.656510  s :     3.656510
      pz      :     1.337770  p :     3.544742
      px      :     1.005619
      py      :     1.201353
      dz2     :     0.005216  d :     0.069604
      dxz     :     0.015776
      dyz     :     0.007551
      dx2y2   :     0.022490
      dxy     :     0.018570
      f0      :     0.000652  f :     0.003834
      f+1     :     0.000384
      f-1     :     0.000333
      f+2     :     0.000173
      f-2     :     0.000596
      f+3     :     0.001075
      f-3     :     0.000622

  9 C s       :     3.296905  s :     3.296905
      pz      :     0.994805  p :     2.848590
      px      :     0.946757
      py      :     0.907027
      dz2     :     0.005435  d :     0.076595
      dxz     :     0.016063
      dyz     :     0.011574
      dx2y2   :     0.015890
      dxy     :     0.027632
      f0      :     0.001361  f :     0.007306
      f+1     :     0.000467
      f-1     :     0.000672
      f+2     :     0.001222
      f-2     :     0.000120
      f+3     :     0.001332
      f-3     :     0.002134

 10 C s       :     3.368706  s :     3.368706
      pz      :     0.971294  p :     2.461167
      px      :     0.737699
      py      :     0.752174
      dz2     :     0.005395  d :     0.121566
      dxz     :     0.022006
      dyz     :     0.023529
      dx2y2   :     0.032412
      dxy     :     0.038224
      f0      :     0.001383  f :     0.009035
      f+1     :     0.000655
      f-1     :     0.000681
      f+2     :     0.000756
      f-2     :     0.001139
      f+3     :     0.002561
      f-3     :     0.001860

 11 C s       :     3.202244  s :     3.202244
      pz      :     0.945767  p :     2.466542
      px      :     0.818186
      py      :     0.702589
      dz2     :     0.004891  d :     0.160485
      dxz     :     0.027502
      dyz     :     0.035913
      dx2y2   :     0.043962
      dxy     :     0.048217
      f0      :     0.001916  f :     0.014082
      f+1     :     0.000765
      f-1     :     0.001142
      f+2     :     0.001170
      f-2     :     0.001747
      f+3     :     0.002461
      f-3     :     0.004881

 12 N s       :     3.656660  s :     3.656660
      pz      :     1.335853  p :     3.544250
      px      :     1.199733
      py      :     1.008664
      dz2     :     0.005447  d :     0.069605
      dxz     :     0.007592
      dyz     :     0.015498
      dx2y2   :     0.022571
      dxy     :     0.018497
      f0      :     0.000643  f :     0.003834
      f+1     :     0.000330
      f-1     :     0.000399
      f+2     :     0.000177
      f-2     :     0.000598
      f+3     :     0.000623
      f-3     :     0.001065

 13 C s       :     3.296753  s :     3.296753
      pz      :     0.991667  p :     2.848441
      px      :     0.908040
      py      :     0.948734
      dz2     :     0.005516  d :     0.076575
      dxz     :     0.011828
      dyz     :     0.015708
      dx2y2   :     0.015948
      dxy     :     0.027575
      f0      :     0.001341  f :     0.007305
      f+1     :     0.000617
      f-1     :     0.000556
      f+2     :     0.001190
      f-2     :     0.000134
      f+3     :     0.002115
      f-3     :     0.001352

 14 C s       :     3.202693  s :     3.202693
      pz      :     0.943188  p :     2.466498
      px      :     0.706583
      py      :     0.816726
      dz2     :     0.004483  d :     0.160450
      dxz     :     0.035825
      dyz     :     0.028126
      dx2y2   :     0.048949
      dxy     :     0.043067
      f0      :     0.001945  f :     0.014081
      f+1     :     0.001026
      f-1     :     0.000841
      f+2     :     0.000711
      f-2     :     0.002184
      f+3     :     0.003842
      f-3     :     0.003532

 15 C s       :     3.202346  s :     3.202346
      pz      :     0.944985  p :     2.466660
      px      :     0.703940
      py      :     0.817734
      dz2     :     0.004620  d :     0.160462
      dxz     :     0.036982
      dyz     :     0.026877
      dx2y2   :     0.043767
      dxy     :     0.048216
      f0      :     0.001943  f :     0.014082
      f+1     :     0.001063
      f-1     :     0.000804
      f+2     :     0.001133
      f-2     :     0.001753
      f+3     :     0.004913
      f-3     :     0.002472

 16 C s       :     3.202629  s :     3.202629
      pz      :     0.938231  p :     2.466565
      px      :     0.817834
      py      :     0.710501
      dz2     :     0.004884  d :     0.160498
      dxz     :     0.027689
      dyz     :     0.036071
      dx2y2   :     0.043863
      dxy     :     0.047990
      f0      :     0.001922  f :     0.014082
      f+1     :     0.000763
      f-1     :     0.001131
      f+2     :     0.001173
      f-2     :     0.001742
      f+3     :     0.002469
      f-3     :     0.004881

 17 C s       :     3.202427  s :     3.202427
      pz      :     0.937941  p :     2.466454
      px      :     0.814973
      py      :     0.713540
      dz2     :     0.004779  d :     0.160483
      dxz     :     0.028655
      dyz     :     0.035153
      dx2y2   :     0.049009
      dxy     :     0.042886
      f0      :     0.001920  f :     0.014081
      f+1     :     0.000834
[...]
  0-1A  -> 26-1A    3.380747   27267.6   366.7   0.000000344   0.00000   0.00147   0.00141   0.00005
  0-1A  -> 27-1A    3.398499   27410.7   364.8   0.007368609   0.08850  -0.16620   0.24592  -0.02004
  0-1A  -> 28-1A    3.398542   27411.1   364.8   0.006943396   0.08339  -0.24058  -0.15857   0.01913
  0-1A  -> 29-1A    3.401670   27436.3   364.5   0.004921507   0.05905  -0.17866  -0.16363   0.01904
  0-1A  -> 30-1A    3.401755   27437.0   364.5   0.004484711   0.05381  -0.16037   0.16710  -0.01310

----------------------------------------------------------------------------------------------------
                     ABSORPTION SPECTRUM VIA TRANSITION VELOCITY DIPOLE MOMENTS    
----------------------------------------------------------------------------------------------------
     Transition      Energy     Energy  Wavelength fosc(P2)      P2        PX        PY        PZ   
                      (eV)      (cm-1)    (nm)                 (au**2)    (au)      (au)      (au)  
----------------------------------------------------------------------------------------------------
  0-1A  ->  1-1A    1.881362   15174.2   659.0   0.000002358   0.00000   0.00045  -0.00021   0.00001
  0-1A  ->  2-1A    1.881391   15174.4   659.0   0.000001339   0.00000  -0.00012   0.00035  -0.00003
  0-1A  ->  3-1A    2.122961   17122.8   584.0   0.039188632   0.00459  -0.00941   0.06677  -0.00626
  0-1A  ->  4-1A    2.122993   17123.1   584.0   0.039162608   0.00458   0.06703   0.00928  -0.00193
  0-1A  ->  5-1A    2.825504   22789.2   438.8   1.324360450   0.20627   0.00538   0.45208  -0.04318
  0-1A  ->  6-1A    2.825621   22790.2   438.8   1.324246051   0.20626   0.45407  -0.00599  -0.00669
  0-1A  ->  7-1A    3.047525   24580.0   406.8   0.000059973   0.00001  -0.00058   0.00042   0.00309
  0-1A  ->  8-1A    3.068445   24748.7   404.1   0.000000550   0.00000   0.00020   0.00023   0.00000
  0-1A  ->  9-1A    3.083766   24872.3   402.1   0.000000183   0.00000   0.00004   0.00017  -0.00002
  0-1A  -> 10-1A    3.096803   24977.4   400.4   0.040277109   0.00688  -0.07412  -0.03687   0.00471
  0-1A  -> 11-1A    3.096824   24977.6   400.4   0.040491504   0.00691  -0.03716   0.07409  -0.00648
  0-1A  -> 12-1A    3.107092   25060.4   399.0   0.000011327   0.00000  -0.00008  -0.00138   0.00013
  0-1A  -> 13-1A    3.129872   25244.1   396.1   0.000000844   0.00000   0.00016   0.00035  -0.00001
  0-1A  -> 14-1A    3.208769   25880.5   386.4   0.000000017   0.00000  -0.00004   0.00003  -0.00001
  0-1A  -> 15-1A    3.237289   26110.5   383.0   0.000542875   0.00010  -0.00103   0.00107   0.00973
  0-1A  -> 16-1A    3.241867   26147.4   382.4   0.000007378   0.00000  -0.00051   0.00100  -0.00023
  0-1A  -> 17-1A    3.249092   26205.7   381.6   0.000011879   0.00000  -0.00081  -0.00121   0.00007
  0-1A  -> 18-1A    3.287930   26518.9   377.1   0.013215152   0.00240   0.03309  -0.03593   0.00298
  0-1A  -> 19-1A    3.287996   26519.5   377.1   0.012810274   0.00232  -0.03558  -0.03230   0.00354
  0-1A  -> 20-1A    3.298572   26604.8   375.9   0.012163507   0.00221  -0.04273  -0.01949   0.00244
  0-1A  -> 21-1A    3.298646   26605.4   375.9   0.011796874   0.00215  -0.01871   0.04219  -0.00391
  0-1A  -> 22-1A    3.308069   26681.4   374.8   0.000015731   0.00000  -0.00128  -0.00110   0.00013
  0-1A  -> 23-1A    3.361734   27114.2   368.8   0.001275511   0.00024   0.00004   0.00111   0.01533
  0-1A  -> 24-1A    3.365518   27144.7   368.4   0.000000540   0.00000   0.00018   0.00018   0.00018
  0-1A  -> 25-1A    3.377701   27243.0   367.1   0.000005127   0.00000   0.00053   0.00082  -0.00001
  0-1A  -> 26-1A    3.380747   27267.6   366.7   0.000000329   0.00000  -0.00018  -0.00017  -0.00001
  0-1A  -> 27-1A    3.398499   27410.7   364.8   0.007019614   0.00132   0.02026  -0.02998   0.00244
  0-1A  -> 28-1A    3.398542   27411.1   364.8   0.006609779   0.00124   0.02932   0.01932  -0.00233
  0-1A  -> 29-1A    3.401670   27436.3   364.5   0.004806914   0.00090   0.02207   0.02021  -0.00236
  0-1A  -> 30-1A    3.401755   27437.0   364.5   0.004385760   0.00082   0.01983  -0.02066   0.00162

------------------------------------------------------------------------------------------
                     CD SPECTRUM VIA TRANSITION ELECTRIC DIPOLE MOMENTS    
------------------------------------------------------------------------------------------
     Transition      Energy     Energy  Wavelength    R        MX        MY        MZ   
                      (eV)      (cm-1)    (nm)   (1e40*cgs)   (au)      (au)      (au)  
------------------------------------------------------------------------------------------
  0-1A  ->  1-1A    1.881362   15174.2   659.0   -0.37430  -0.12703   0.01912  -0.00158
  0-1A  ->  2-1A    1.881391   15174.4   659.0   -0.24805  -0.01911  -0.12642   0.01222
  0-1A  ->  3-1A    2.122961   17122.8   584.0   -8.65792   0.00256  -0.02076   0.00195
  0-1A  ->  4-1A    2.122993   17123.1   584.0   -8.67418  -0.02083  -0.00301   0.00039
  0-1A  ->  5-1A    2.825504   22789.2   438.8  -87.79179  -0.00146  -0.04216   0.00427
  0-1A  ->  6-1A    2.825621   22790.2   438.8  -87.68549  -0.04234   0.00104  -0.00034
  0-1A  ->  7-1A    3.047525   24580.0   406.8  -13.13294  -0.01694  -0.09893  -1.04019
  0-1A  ->  8-1A    3.068445   24748.7   404.1   -0.00018   0.00020  -0.00040  -0.00708
  0-1A  ->  9-1A    3.083766   24872.3   402.1    0.00012  -0.00014   0.00029   0.00071
  0-1A  -> 10-1A    3.096803   24977.4   400.4    1.04152  -0.00282  -0.00126  -0.00137
  0-1A  -> 11-1A    3.096824   24977.6   400.4    1.13737  -0.00144   0.00274  -0.00240
  0-1A  -> 12-1A    3.107092   25060.4   399.0    0.00071  -0.00004  -0.00016  -0.00044
  0-1A  -> 13-1A    3.129872   25244.1   396.1   -0.00033  -0.00005  -0.00021  -0.00019
  0-1A  -> 14-1A    3.208769   25880.5   386.4    0.00005  -0.00044  -0.00042  -0.00010
  0-1A  -> 15-1A    3.237289   26110.5   383.0    6.65650   0.00370   0.01561   0.16711
  0-1A  -> 16-1A    3.241867   26147.4   382.4   -0.00054   0.00038  -0.00056  -0.00267
  0-1A  -> 17-1A    3.249092   26205.7   381.6    0.01236  -0.00098  -0.00190   0.00033
  0-1A  -> 18-1A    3.287930   26518.9   377.1   20.26494   0.07150  -0.07722   0.00505
  0-1A  -> 19-1A    3.287996   26519.5   377.1   19.75030  -0.07662  -0.07021   0.00882
  0-1A  -> 20-1A    3.298572   26604.8   375.9   11.20101  -0.05524  -0.02530   0.00327
  0-1A  -> 21-1A    3.298646   26605.4   375.9   10.80743  -0.02392   0.05444  -0.00429
  0-1A  -> 22-1A    3.308069   26681.4   374.8   -0.00413   0.00097  -0.00019  -0.00020
  0-1A  -> 23-1A    3.361734   27114.2   368.8   -7.59325  -0.00408  -0.01184  -0.12837
  0-1A  -> 24-1A    3.365518   27144.7   368.4   -0.00169   0.00044  -0.00095  -0.00194
  0-1A  -> 25-1A    3.377701   27243.0   367.1    0.00017   0.00009   0.00000   0.00034
  0-1A  -> 26-1A    3.380747   27267.6   366.7    0.00012  -0.00007  -0.00012   0.00024
  0-1A  -> 27-1A    3.398499   27410.7   364.8    7.71082   0.03087  -0.04549   0.00188
  0-1A  -> 28-1A    3.398542   27411.1   364.8    7.28298   0.04440   0.02949  -0.00471
  0-1A  -> 29-1A    3.401670   27436.3   364.5    4.36972   0.02784   0.02582  -0.00373
  0-1A  -> 30-1A    3.401755   27437.0   364.5    3.94329   0.02489  -0.02604   0.00156

------------------------------------------------------------------------------------------
                     CD SPECTRUM VIA TRANSITION VELOCITY DIPOLE MOMENTS    
------------------------------------------------------------------------------------------
     Transition      Energy     Energy  Wavelength    R        MX        MY        MZ   
                      (eV)      (cm-1)    (nm)   (1e40*cgs)   (au)      (au)      (au)  
------------------------------------------------------------------------------------------
  0-1A  ->  1-1A    1.881362   15174.2   659.0   -0.41589  -0.12703   0.01912  -0.00158
  0-1A  ->  2-1A    1.881391   15174.4   659.0   -0.29046  -0.01911  -0.12642   0.01222
  0-1A  ->  3-1A    2.122961   17122.8   584.0   -8.59397   0.00256  -0.02076   0.00195
  0-1A  ->  4-1A    2.122993   17123.1   584.0   -8.61032  -0.02083  -0.00301   0.00039
  0-1A  ->  5-1A    2.825504   22789.2   438.8  -87.41221  -0.00146  -0.04216   0.00427
  0-1A  ->  6-1A    2.825621   22790.2   438.8  -87.30634  -0.04234   0.00104  -0.00034
  0-1A  ->  7-1A    3.047525   24580.0   406.8  -13.67406  -0.01694  -0.09893  -1.04019
  0-1A  ->  8-1A    3.068445   24748.7   404.1   -0.00022   0.00020  -0.00040  -0.00708
  0-1A  ->  9-1A    3.083766   24872.3   402.1    0.00012  -0.00014   0.00029   0.00071
  0-1A  -> 10-1A    3.096803   24977.4   400.4    1.03155  -0.00282  -0.00126  -0.00137
  0-1A  -> 11-1A    3.096824   24977.6   400.4    1.12650  -0.00144   0.00274  -0.00240
  0-1A  -> 12-1A    3.107092   25060.4   399.0    0.00071  -0.00004  -0.00016  -0.00044
  0-1A  -> 13-1A    3.129872   25244.1   396.1   -0.00033  -0.00005  -0.00021  -0.00019
  0-1A  -> 14-1A    3.208769   25880.5   386.4    0.00003  -0.00044  -0.00042  -0.00010
  0-1A  -> 15-1A    3.237289   26110.5   383.0    6.49479   0.00370   0.01561   0.16711
  0-1A  -> 16-1A    3.241867   26147.4   382.4   -0.00057   0.00038  -0.00056  -0.00267
  0-1A  -> 17-1A    3.249092   26205.7   381.6    0.01230  -0.00098  -0.00190   0.00033
  0-1A  -> 18-1A    3.287930   26518.9   377.1   20.11783   0.07150  -0.07722   0.00505
  0-1A  -> 19-1A    3.287996   26519.5   377.1   19.60697  -0.07662  -0.07021   0.00882
  0-1A  -> 20-1A    3.298572   26604.8   375.9   11.12817  -0.05524  -0.02530   0.00327
  0-1A  -> 21-1A    3.298646   26605.4   375.9   10.73729  -0.02392   0.05444  -0.00429
  0-1A  -> 22-1A    3.308069   26681.4   374.8   -0.00411   0.00097  -0.00019  -0.00020
  0-1A  -> 23-1A    3.361734   27114.2   368.8   -7.56254  -0.00408  -0.01184  -0.12837
  0-1A  -> 24-1A    3.365518   27144.7   368.4   -0.00168   0.00044  -0.00095  -0.00194
  0-1A  -> 25-1A    3.377701   27243.0   367.1    0.00017   0.00009   0.00000   0.00034
  0-1A  -> 26-1A    3.380747   27267.6   366.7    0.00012  -0.00007  -0.00012   0.00024
  0-1A  -> 27-1A    3.398499   27410.7   364.8    7.52603   0.03087  -0.04549   0.00188
  0-1A  -> 28-1A    3.398542   27411.1   364.8    7.10586   0.04440   0.02949  -0.00471
  0-1A  -> 29-1A    3.401670   27436.3   364.5    4.31856   0.02784   0.02582  -0.00373
  0-1A  -> 30-1A    3.401755   27437.0   364.5    3.89954   0.02489  -0.02604   0.00156

Total run time:     5840.945 sec

           *** ORCA-CIS/TD-DFT FINISHED WITHOUT ERROR ***
-----------------------
CIS/TD-DFT TOTAL ENERGY
-----------------------

    E(SCF)  =  -2081.162914624 Eh
    DE(CIS) =      0.069138790 Eh (Root  1)
    ----------------------------- ---------
    E(tot)  =  -2081.093775834 Eh


Maximum memory used throughout the entire CIS-calculation: 2981.0 MB
=> NOW LEAVING ORCA_CIS

-------------------------   --------------------
FINAL SINGLE POINT ENERGY     -2081.093775833678
-------------------------   --------------------



           ************************************************************
           *        Program running with 8 parallel MPI-processes     *
           *              working on a common directory               *
           ************************************************************

------------------------------------------------------------------------------
                              ORCA PROPERTY CALCULATIONS
------------------------------------------------------------------------------

GBWName                                 ... tddft.gbw
Number of atoms                         ...     77
Number of basis functions               ...   1696
Max core memory                         ...   3000 MB

Electric properties:
Dipole moment                           ... YES
Quadrupole moment                       ...  NO
Static polarizability (Dipole/Dipole)   ...  NO
Static polarizability (Dipole/Quad.)    ...  NO
Static polarizability (Quad./Quad.)     ...  NO
Static polarizability (Velocity)        ...  NO
Static hyperpolarizability              ...  NO

Atomic electric properties:
Dipole moment                           ...  NO
Quadrupole moment                       ...  NO
Static polarizability                   ...  NO

Choice of electric origin               ... Center of mass
Position of electric origin             ...    -0.159974     5.088857     6.550132

General magnetic properties:
Magnetizability                         ...  NO

EPR properties:
g-Tensor (aka g-matrix)                 ...  NO
Zero-Field splitting spin-orbit         ...  NO
Zero-field splitting spin-spin          ...  NO
Hyperfine couplings                     ...  NO (   0 nuclei)
Quadrupole couplings                    ...  NO (   0 nuclei)
Contact density                         ...  NO (   0 nuclei)

NMR properties:
Chemical shifts                         ...  NO (   0 nuclei)
Spin-rotation constants                 ...  NO (   0 nuclei)
Spin-spin couplings                     ...  NO (   0 nuclei,    0 pairs)

Choice of magnetic origin               ... GIAO
Position of magnetic origin             ...     0.000000     0.000000     0.000000

Properties with geometric perturbations:
SCF Hessian                             ...  NO
IR spectrum                             ...  NO
VCD spectrum                            ...  NO
X-ray spectroscopy properties:
SCF XES/XAS/RIXS spectra                ...  NO

SCF SOC stabilization energy            ...  NO
Diagonal Born-Oppenheimer correction    ...  NO

-------------
DIPOLE MOMENT
-------------

Method             : SCF
Type of density    : Electron Density
Multiplicity       :   1
Irrep              :   0
Energy             : -2081.1629146241657509 Eh
Basis              : AO
                                X                 Y                 Z
Electronic contribution:     -0.029413814      -0.000785435       0.324459773
Nuclear contribution   :      0.030057604       0.000456680      -0.325649688
                        -----------------------------------------
Total Dipole Moment    :      0.000643790      -0.000328755      -0.001189915
                        -----------------------------------------
Magnitude (a.u.)       :      0.001392279
Magnitude (Debye)      :      0.003538893



--------------------
Rotational spectrum 
--------------------
 
Rotational constants in cm-1:             0.001920             0.001920             0.000998 
Rotational constants in MHz :            57.569607            57.564626            29.904507 

Dipole components along the rotational axes: 
x,y,z [a.u.] :    -0.000355     0.000599    -0.001205 
x,y,z [Debye]:    -0.000902     0.001523    -0.003064 

 

Dipole moment calculation done in   0.3 sec 

Maximum memory used throughout the entire PROP-calculation: 230.8 MB

--------------------------------
SUGGESTED CITATIONS FOR THIS RUN
--------------------------------

Below you find a list of papers that are relevant to this ORCA run
We neither can nor want to force you to cite these papers, but we appreciate if you do
You receive ORCA, which is the product of decades of hard work by many enthusiastic individuals, for free
The only thing we kindly ask in return is that you cite our papers,
We deeply appreciate it, if you show your appreciation for ORCA by not just citing the generic ORCA reference.

Please note that relegating all ORCA citations to the supporting information does *not* help us.
SI sections are not indexed - citations you put there will not count into any citation statistics
But we need these citations in order to attract the funding resources that allow us to do what we are doing

Therefore, if you are a happy ORCA user, please consider citing a few of the papers listed below in the main body of your paper

In addition to the list printed below, the program has created the file tddft.bibtex that contains the list in bibtex format
You can import this file easily into all common literature databanks and citation aid programs

It goes without saying that in many instances, there are alternative algorithms to achieve similar
results as the ones you have gotten from ORCA. It is, of course, also the case that in some instances
ORCA just re-implements algorithms worked out by others. We are fully aware of that and we are also
fully appreciative of our colleagues work. Hence this citation list should not be read as indicating
that the listed papers, which are focused on our own work, are the only ones worth citing. It simply
meant to make it easier for users to cite ORCA specific papers. It is not a substitute for doing your
own literature research and citing the relevant literature in a scientifically appropriate manner.

List of essential papers. We consider these as the minimum necessary citations

  1. Neese, F.
     Software update: the ORCA program system, version 6.0
     WIRES Comput. Molec. Sci. 2025 15(1), e70019
     doi.org/10.1002/wcms.70019

List of papers to cite with high priority. The work reported in these papers was absolutely
necessary for this run to complete.
Our perspective: the developers of density functionals and basis sets usually get cited in chemistry papers
Good! But without the algorithms to do something with them, the functionals or basis sets would not do anything.
Hence, in our opinion, the algorithm design and method developments papers are equally worthy of getting cited

  1. Neese, F.; Olbrich, G.
     Efficient use of the resolution of the identity approximation in time-dependent density functional calculations with hybrid density functionals
     Chem. Phys. Lett. 2002 362 , 170-178
     doi.org/10.1016/s0009-2614(02)01053-9
  2. Neese, F.
     An improvement of the resolution of the identity approximation for the formation of the Coulomb matrix
     J. Comp. Chem. 2003 24(14), 1740-1747
     doi.org/10.1002/jcc.10318
  3. Garcia-Rates, M.; Neese, F.
     Effect of the Solute Cavity on the Solvation Energy and its Derivatives within the Framework of the Gaussian Charge Scheme
     J. Comput. Chem. 2020 41 , 922-939
     doi.org/10.1002/jcc.26139
  4. Neese, F.
     The SHARK Integral Generation and Digestion System
     J. Comp. Chem. 2022 44(3), 381
     doi.org/10.1002/jcc.26942

List of suggested additional citations. These are papers that are important in the 'surrounding' of 
of this run, or papers that preceded the highly important papers. If you like your results we are grateful for a citation.

  1. Neese, F.
     The ORCA program system
     WIRES Comput. Molec. Sci. 2012 2(1), 73-78
     doi.org/10.1002/wcms.81
  2. Neese, F.
     Software update: the ORCA program system, version 4.0
     WIRES Comput. Molec. Sci. 2018 8(1), 1-6
     doi.org/10.1002/wcms.1327
  3. Neese, F.; Wennmohs, F.; Becker, U.; Riplinger, C.
     The ORCA quantum chemistry program package
     J. Chem. Phys. 2020 152(22), 224108
     doi.org/10.1063/5.0004608
  4. Neese, F.
     Software update: The ORCA program system—Version 5.0
     WIRES Comput. Molec. Sci. 2022 12(1), e1606
     doi.org/10.1002/wcms.1606

List of optional additional citations

  1. Neese, F.
     Approximate second-order SCF convergence for spin unrestricted wavefunctions
     Chem. Phys. Lett. 2000 325(1-3), 93-98
     doi.org/10.1016/s0009-2614(00)00662-x

Timings for individual modules:

Sum of individual times          ...     6957.031 sec (= 115.951 min)
Startup calculation              ...       37.090 sec (=   0.618 min)   0.5 %
SCF iterations                   ...     1063.547 sec (=  17.726 min)  15.3 %
Property integrals               ...        8.329 sec (=   0.139 min)   0.1 %
Property calculations            ...        3.016 sec (=   0.050 min)   0.0 %
CIS module                       ...     5845.049 sec (=  97.417 min)  84.0 %
                             ****ORCA TERMINATED NORMALLY****
TOTAL RUN TIME: 0 days 1 hours 55 minutes 57 seconds 737 msec
