
                                 *****************
                                 * O   R   C   A *
                                 *****************

                                            #,                                       
                                            ###                                      
                                            ####                                     
                                            #####                                    
                                            ######                                   
                                           ########,                                 
                                     ,,################,,,,,                         
                               ,,#################################,,                 
                          ,,##########################################,,             
                       ,#########################################, ''#####,          
                    ,#############################################,,   '####,        
                  ,##################################################,,,,####,       
                ,###########''''           ''''###############################       
              ,#####''   ,,,,##########,,,,          '''####'''          '####       
            ,##' ,,,,###########################,,,                        '##       
           ' ,,###''''                  '''############,,,                           
         ,,##''                                '''############,,,,        ,,,,,,###''
      ,#''                                            '''#######################'''  
     '                                                          ''''####''''         
             ,#######,   #######,   ,#######,      ##                                
            ,#'     '#,  ##    ##  ,#'     '#,    #''#        ,####,    ,#,          
            ##       ##  ##   ,#'  ##            #'  '#       #'       ,# #          
            ##       ##  #######   ##           ,######,      #####,      #          
            '#,     ,#'  ##    ##  '#,     ,#' ,#      #,     #,   #      #          
             '#######'   ##     ##  '#######'  #'      '#     '####' #    #          



                #########################################################
                #                        -***-                          #
                #          Department of theory and spectroscopy        #
                #                                                       #
                #                      Frank Neese                      #
                #                                                       #
                #     Directorship, Architecture, Infrastructure        #
                #                    SHARK, DRIVERS                     #
                #        Core code/Algorithms in most modules           #
                #                                                       #
                #        Max Planck Institute fuer Kohlenforschung      #
                #                Kaiser Wilhelm Platz 1                 #
                #                 D-45470 Muelheim/Ruhr                 #
                #                      Germany                          #
                #                                                       #
                #                  All rights reserved                  #
                #                        -***-                          #
                #########################################################


                         Program Version 6.1.1  -  RELEASE   -
                                (GIT: $487d211c$)
                          ($2025-11-21 10:33:24 +0100$)


 With contributions from (in alphabetic order):
[Max-Planck-Institut fuer Kohlenforschung]                               
  Daniel Aravena         : Magnetic Suceptibility                        
  Michael Atanasov       : Ab Initio Ligand Field Theory (pilot matlab implementation)
  Alexander A. Auer      : GIAO ZORA, VPT2 properties, NMR spectrum      
  Ute Becker             : All parallelization in ORCA, NUMFREQ, NUMCALC 
  Giovanni Bistoni       : ED, misc. LED, open-shell LED, HFLD           
  Dmytro Bykov           : pre 5.0 version of the SCF Hessian            
  Marcos Casanova-Páez   : Triplet and SCS-CIS(D). UHF-(DLPNO)-IP/EA/STEOM-CCSD. UHF-CVS-IP/STEOM-CCSD   
  Vijay G. Chilkuri      : MRCI spin determinant printing, contributions to CSF-ICE 
  Pauline Colinet        : FMM embedding                                 
  Dipayan Datta          : RHF DLPNO-CCSD density                        
  Achintya Kumar Dutta   : EOM-CC, STEOM-CC                              
  Nicolas Foglia         : Exact transition moments, OPA infrastructure, MCD improvements    
  Dmitry Ganyushin       : Spin-Orbit,Spin-Spin,Magnetic field MRCI      
  Miquel Garcia-Rates    : C-PCM and meta-GGA Hessian, CCSD/C-PCM, Gaussian charge scheme 
  Tiago L. C. Gouveia    : GS-ROHF, GS-ROCIS                             
  Yang Guo               : DLPNO-NEVPT2, F12-NEVPT2, CIM, IAO-localization        
  Andreas Hansen         : Spin unrestricted coupled pair/coupled cluster methods 
  Ingolf Harden          : AUTO-CI MPn and infrastructure                
  Benjamin Helmich-Paris : MC-RPA, TRAH-(SCF,CASSCF), AVAS, COSX integrals, SCF dyn. polar., MC-PDFT, srDFT 
  Lee Huntington         : MR-EOM, pCC                                   
  Robert Izsak           : Overlap fitted RIJCOSX, COSX-SCS-MP3, EOM     
  Riya Kayal             : Wick's Theorem for AUTO-CI, AUTO-CI UHF-CCSDT 
  Emily Kempfer          : AUTO-CI RHF CISDT and CCSDT, approximate NEVPT4
  Christian Kollmar      : KDIIS, OOCD, Brueckner-CCSD(T), CCSD density, CASPT2, CASPT2-K, improved NEVPT2 
  Axel Koslowski         : Symmetry handling                             
  Simone Kossmann        : meta-GGA functionals, TD-DFT gradient, OOMP2, (MP2 Hessian; deprecated post 5.0) 
  Lucas Lang             : DCDCAS, Hyperfine gauge corrections, ICE-SOC+SSC
  Marvin Lechner         : AUTO-CI (C++ implementation), FIC-MRCC        
  Spencer Leger          : CASSCF response                               
  Dagmar Lenk            : GEPOL surface, SMD, ORCA-2-JSON               
  Dimitrios Liakos       : Extrapolation schemes; Compound Job, Property file
  Dimitrios Manganas     : Further ROCIS development; embedding schemes. LFT, Crystal Embedding 
  Dimitrios Pantazis     : SARC Basis sets                               
  Anastasios Papadopoulos: AUTO-CI, single reference methods and gradients 
  Taras Petrenko         : pre 6.0 DFT Hessian and TD-DFT gradient,  ECA, NRVS 
  Petra Pikulova         : Analytic Raman intensities                    
  Peter Pinski           : DLPNO-MP2, DLPNO-MP2 Gradient                 
  Shashank Vittal Rao    : ES-AILFT, MagRelax                            
  Christoph Reimann      : Effective Core Potentials                     
  Marius Retegan         : Local ZFS, SOC                                
  Christoph Riplinger    : Optimizer, TS searches, QM/MM, DLPNO-CCSD(T), (RO)-DLPNO pert. Triples 
  Michael Roemelt        : Original ROCIS implementation, recursive CI coupling coefficients
  Masaaki Saitow         : Open-shell DLPNO-CCSD energy and density      
  Barbara Sandhoefer     : DKH picture change effects                    
  Yorick L. A. Schmerwitz: GMF and freeze-and-release deltaSCF, NEB S-IDPP initial path                    
  Kantharuban Sivalingam : CASSCF convergence/infrastructure, NEVPT2, NEVPT3, NEVPT4(SD), FIC-MRCI and CEPA variants
  Bernardo de Souza      : ESD, SOC TD-DFT                               
  Georgi L. Stoychev     : AutoAux, RI-MP2 NMR, DLPNO-MP2 response, X2C  
  Van Anh Tran           : RI-MP2 g-tensors                              
  Willem Van den Heuvel  : Paramagnetic NMR                              
  Zikuan Wang            : NOTCH, Electric field optimization            
  Frank Wennmohs         : Technical directorship and infrastructure     
  Hang Xu                : AUTO-CI-Response properties                   
                                                                         
[FACCTs GmbH]                                                            
  Markus Bursch, Nicolas Foglia, Miquel Garcia-Rates, Ingolf Harden, Hagen Neugebauer, Anastasios Papadopoulos, 
  Christoph Riplinger, Bernardo de Souza, Georgi L. Stoychev                                                    
                                                                 
  APM, various basis sets, CI-OPT, improved COSX, DLPNO-Multilevel,           
  DOCKER, DRACO, updates on ESD, Fragmentator, GOAT, IRC, LR-CPCM, L-BFGS, MBIS, meta-GGA TD-DFT gradient, ML-optimized integration grids, 
  MM, NACMEs, nearIR, NEB, NEB-TS, NL-DFT gradient (VV10), 2- and 3-layer-ONIOM, interface openCOSMO-RS, QMMM,   
  Crystal-QMMM, RESP, rigid body optimization, SF, symmetry and pop. for TD-DFT, various functionals, SOLVATOR                                   
                                                                         
[Other institutions]                                                     
  V. Asgeirsson          : NEB                                           
  Christoph Bannwarth    : sTDA-DFT, sTD-DFT, PBEh-3c, B97-3c, D3        
  Giovanni Bistoni       : ETS/NOCV, ADLD/ADEX, COVALED                  
  Martin Brehm           : Molecular dynamics                            
  Ronald Cardenas        : ETS/NOCV                                      
  Martina Colucci        : COVALED                                       
  Sebastian Ehlert       : rSCAN, r2SCAN, r2SCAN-3c, D4, dhf basis sets  
  Marvin Friede          : D4 for Fr, Ra, Ac-Lr                          
  Lars Goerigk           : TD-DFT with DH, B97 family of functionals     
  Stefan Grimme          : VdW corrections, initial TS optimization, DFT functionals, gCP, sTDA/sTD-DF 
  Waldemar Hujo          : DFT-NL                                        
  H. Jonsson             : NEB                                           
  Holger Kruse           : gCP                                           
  Marcel Mueller         : wB97X-3c, vDZP basis set                      
  Hagen Neugebauer       : wr2SCAN, Native XTB                           
  Gianluca Regni         : ADLD/ADEX                                     
  Tobias Risthaus        : pre 6.0 range-separated hybrid DFT and stability analysis
  Lukas Wittmann         : regularized MP2, r2SCAN double-hybrids, wr2SCAN        
                                                                         
We gratefully acknowledge several colleagues who have allowed us to      
interface, adapt or use parts of their codes:                            
  Ed Valeev, F. Pavosevic, A. Kumar             : LibInt (2-el integral package), F12 methods 
  Garnet Chan, S. Sharma, J. Yang, R. Olivares  : DMRG                   
  Ulf Ekstrom                                   : XCFun DFT Library      
  Mihaly Kallay                                 : mrcc  (arbitrary order and MRCC methods)
  Frank Weinhold                                : gennbo (NPA and NBO analysis)           
  Simon Mueller                                 : openCOSMO-RS                            
  Christopher J. Cramer and Donald G. Truhlar   : smd solvation model                     
  S Lehtola, MJT Oliveira, MAL Marques          : LibXC Library                           
  Liviu Ungur et al                             : ANISO software                          


 Your calculation uses the libint2 library for the computation of 2-el integrals
 For citations please refer to: http://libint.valeyev.net

 Your ORCA version has been built with support for libXC version: 7.0.0
 For citations please refer to: https://libxc.gitlab.io

 This ORCA versions uses:
   CBLAS   interface :  Fast vector & matrix operations
   LAPACKE interface :  Fast linear algebra routines
   SCALAPACK package :  Parallel linear algebra routines
   Shared memory     :  Shared parallel matrices
   BLAS/LAPACK       :  OpenBLAS 0.3.29  USE64BITINT DYNAMIC_ARCH NO_AFFINITY Haswell SINGLE_THREADED
        Core in use  :  Haswell
   Copyright (c) 2011-2014, The OpenBLAS Project


  ***********************************
  * Starting time: Thu Jun 18 09:06:22 2026
  * Host name:     steezy
  * Process ID:    3566826
  * Working dir.:  /home/jannes/metaltpp/cdtpp/02_tddft_tda_comparison/runs/tdaoff_wb97xd
  ***********************************

NOTE: MaxCore=3000 MB was set to SCF,MP2,MDCI,CIPSI,MRCI,RASCI and CIS
      => If you want to overwrite this, your respective input block should be placed after the MaxCore statement


***************************************
The coordinates will be read from file: /home/jannes/metaltpp/cdtpp/01_opt/cdtpp_opt_b3lyp_tzvp.xyz
***************************************


Your calculation utilizes the atom-pairwise dispersion correction
with the zero-damping scheme (D30)


XCFun DFT library Copyright 2009-2010 Ulf Ekstrom and contributors.
See http://admol.org/xcfun for more information.
This is free software; see the source code for copying conditions.
There is ABSOLUTELY NO WARRANTY; not even for MERCHANTABILITY or FITNESS FOR A PARTICULAR PURPOSE.
For details see the documentation.
Scientific users of this library should cite U. Ekstrom, L. Visscher, R. Bast, A. J. Thorvaldsen and K. Ruud;
J.Chem.Theor.Comp. 2010, DOI: 10.1021/ct100117s
XCFun Version 0.99 

================================================================================

cite the ECPs for Cd [Def2-ECP] as follows:
Ce-Yb(ecp-28): M. Dolg, H. Stoll, H.Preuss, J. Chem. Phys., 1989, 90, 1730-1734.
Y-Cd(ecp-28), Hf-Hg(ecp-46): D. Andrae,U. Haeussermann, M. Dolg, H. Stoll, H. Preuss, Theor. Chim. Acta, 1990, 77, 123-141.
In-Sb(ecp-28), Tl-Bi(ecp-46): B. Metz, H. Stoll, M. Dolg, J. Chem. Phys., 2000, 113, 2563-2569.
Te-Xe(ecp-28), Po-Rn(ecp-46): K. A. Peterson, D. Figgen, E. Goll, H. Stoll, M. Dolg, J. Chem. Phys., 2003, 119, 11113-11123.
Rb(ecp-28), Cs(ecp-46): T. Leininger, A. Nicklass, W. Kuechle, H. Stoll, M. Dolg, A. Bergner, Chem. Phys. Lett., 1996, 255, 274-280.
Sr(ecp-28), Ba(ecp-46): M. Kaupp, P. V. Schleyer, H. Stoll and H. Preuss, J. Chem. Phys., 1991, 94, 1360-1366.
La(ecp-46): M. Dolg, H. Stoll, A. Savin, H. Preuss, Theor. Chim. Acta, 1989, 75, 173-194.
Lu(ecp-28): X. Cao, M. Dolg, J. Chem. Phys., 2001, 115, 7348-7355.

ECP parameters for Cd [Def2-ECP] have been obtained from:
TURBOMOLE (7.0.2)

----- Orbital basis set information -----
Your calculation utilizes the basis: def2-TZVP
   F. Weigend and R. Ahlrichs, Phys. Chem. Chem. Phys. 7, 3297 (2005).

----- AuxJ basis set information -----
Your calculation utilizes the auxiliary basis: def2/J
   H-Rn: F. Weigend, Phys. Chem. Chem. Phys. 8, 1057 (2006).
   Fr-Lr: K. Eichkorn, F. Weigend, O. Treutler, R. Ahlrichs; Theor. Chem. Acc. 97, 119 (1997).

================================================================================
                                        WARNINGS
                       Please study these warnings very carefully!
================================================================================


WARNING: CIS/ROCIS methods need fully converged wavefunctions
  ===> : Setting SCFConvForced true
         You can overwrite this default with %scf ConvForced false 


================================================================================
                                       INPUT FILE
================================================================================
NAME = tddft.inp
|  1> %pal nprocs 8 end
|  2> %maxcore 3000
|  3> ! wB97X-D3 def2-TZVP def2/J RIJCOSX DefGrid3 TightSCF CPCM(Toluene)
|  4> %tddft
|  5>   nroots 30
|  6>   triplets false
|  7>   tda false
|  8> end
|  9> * xyzfile 0 1 /home/jannes/metaltpp/cdtpp/01_opt/cdtpp_opt_b3lyp_tzvp.xyz
| 10> 
| 11>                          ****END OF INPUT****
================================================================================

                       ****************************
                       * Single Point Calculation *
                       ****************************

---------------------------------
CARTESIAN COORDINATES (ANGSTROEM)
---------------------------------
  N     -2.221533    2.513479    3.517972
  H      1.677888   -2.324647    3.919784
  C     -4.433906    3.008485    3.506264
  C     -0.395415   -1.637172    3.880196
  N      0.098324    0.565268    3.667761
  C      0.961221   -1.523184    3.850953
  H     -0.964981   -2.547322    3.969094
  C      2.923779    1.828518    3.506213
  N     -0.268174    4.820323    3.268916
  C     -1.130971    6.908632    3.083380
  C      2.576354    0.457586    3.638074
  C      2.732593    4.045673    3.290807
  N      2.051541    2.872082    3.418533
  C      4.147611    3.728062    3.301568
  C     -0.948789   -0.301255    3.768946
  C      1.278498   -0.115154    3.709120
  C     -2.902825    1.339187    3.637649
  C     -3.093559    3.557800    3.436495
  C     -4.317697    1.657915    3.635877
  C     -2.325955    0.046427    3.754628
  C     -2.746191    4.927914    3.296676
  C      4.263945    2.377017    3.425894
  C     -1.448412    5.499936    3.218653
  C      0.225571    7.021994    3.048123
  C      2.155913    5.338858    3.179397
  C      0.779022    5.687272    3.172243
  H     -5.348304    3.576532    3.462380
  H     -5.122066    0.946402    3.722088
  H      5.178309    1.808236    3.459501
  H      4.951846    4.440789    3.224480
  H      0.795073    7.930930    2.946978
  H     -1.847365    7.711003    3.022647
  Cd    -0.084956    2.692974    3.470075
  C      3.723574   -0.505615    3.711217
  C      4.056221   -1.305457    2.615092
  C      5.121090   -2.197482    2.681657
  C      5.870332   -2.306013    3.848066
  C      5.548238   -1.515957    4.946133
  C      4.484478   -0.622813    4.877011
  H      3.477543   -1.221850    1.703352
  H      5.366273   -2.805744    1.819613
  H      6.699071   -3.001073    3.900898
  H      6.123587   -1.595606    5.860385
  H      4.235725   -0.011513    5.735838
  C     -3.291752   -1.094116    3.878794
  C     -4.007035   -1.549047    2.768257
  C     -4.902029   -2.607364    2.882424
  C     -5.098479   -3.227443    4.111485
  C     -4.393236   -2.782806    5.224411
  C     -3.496974   -1.725846    5.107909
  H     -3.855067   -1.071280    1.808165
  H     -5.443874   -2.948550    2.008798
  H     -5.795952   -4.050950    4.201349
  H     -4.541934   -3.256642    6.187014
  H     -2.952437   -1.380919    5.978324
  C     -3.892897    5.891489    3.220617
  C     -4.262577    6.466576    2.002206
  C     -5.325510    7.360425    1.930034
  C     -6.035966    7.696070    3.077324
  C     -5.676830    7.131048    4.296114
  C     -4.614977    6.235689    4.366041
  H     -3.714021    6.206231    1.105293
  H     -5.599397    7.792496    0.975300
  H     -6.863235    8.392693    3.022056
  H     -6.221597    7.388684    5.196154
  H     -4.337167    5.800605    5.318250
  C      3.121976    6.478877    3.051412
  C      3.787407    6.719168    1.846718
  C      4.682771    7.776456    1.726386
  C      4.929295    8.610885    2.811133
  C      4.273696    8.381318    4.015762
  C      3.377008    7.324841    4.133629
  H      3.596896    6.073673    0.998062
  H      5.185755    7.948959    0.782730
  H      5.626954    9.433926    2.718431
  H      4.461185    9.023498    4.867614
  H      2.871020    7.148204    5.074878

----------------------------
CARTESIAN COORDINATES (A.U.)
----------------------------
  NO LB      ZA    FRAG     MASS         X           Y           Z
   0 N     7.0000    0    14.007   -4.198090    4.749786    6.648003
   1 H     1.0000    0     1.008    3.170750   -4.392946    7.407319
   2 C     6.0000    0    12.011   -8.378868    5.685212    6.625879
   3 C     6.0000    0    12.011   -0.747226   -3.093806    7.332507
   4 N     7.0000    0    14.007    0.185806    1.068201    6.931064
   5 C     6.0000    0    12.011    1.816445   -2.878401    7.277246
   6 H     1.0000    0     1.008   -1.823549   -4.813740    7.500501
   7 C     6.0000    0    12.011    5.525141    3.455398    6.625783
   8 N     7.0000    0    14.007   -0.506776    9.109090    6.177355
   9 C     6.0000    0    12.011   -2.137225   13.055422    5.826744
  10 C     6.0000    0    12.011    4.868603    0.864712    6.874964
  11 C     6.0000    0    12.011    5.163853    7.645213    6.218723
  12 N     7.0000    0    14.007    3.876851    5.427449    6.460091
  13 C     6.0000    0    12.011    7.837849    7.045015    6.239059
  14 C     6.0000    0    12.011   -1.792951   -0.569289    7.122275
  15 C     6.0000    0    12.011    2.416011   -0.217609    7.009221
  16 C     6.0000    0    12.011   -5.485544    2.530697    6.874160
  17 C     6.0000    0    12.011   -5.845979    6.723267    6.494034
  18 C     6.0000    0    12.011   -8.159265    3.133005    6.870812
  19 C     6.0000    0    12.011   -4.395418    0.087735    7.095218
  20 C     6.0000    0    12.011   -5.189549    9.312408    6.229815
  21 C     6.0000    0    12.011    8.057689    4.491910    6.474002
  22 C     6.0000    0    12.011   -2.737102   10.393373    6.082373
  23 C     6.0000    0    12.011    0.426267   13.269646    5.760119
  24 C     6.0000    0    12.011    4.074086   10.088979    6.008189
  25 C     6.0000    0    12.011    1.472137   10.747387    5.994670
  26 H     1.0000    0     1.008  -10.106829    6.758666    6.542951
  27 H     1.0000    0     1.008   -9.679301    1.788440    7.033727
  28 H     1.0000    0     1.008    9.785586    3.417071    6.537509
  29 H     1.0000    0     1.008    9.357632    8.391875    6.093385
  30 H     1.0000    0     1.008    1.502469   14.987286    5.568981
  31 H     1.0000    0     1.008   -3.491013   14.571683    5.711975
  32 Cd   20.0000*   0   112.410   -0.160544    5.088984    6.557491
  33 C     6.0000    0    12.011    7.036535   -0.955473    7.013185
  34 C     6.0000    0    12.011    7.665147   -2.466956    4.941807
  35 C     6.0000    0    12.011    9.677457   -4.152639    5.067597
  36 C     6.0000    0    12.011   11.093320   -4.357733    7.271792
  37 C     6.0000    0    12.011   10.484651   -2.864744    9.346837
  38 C     6.0000    0    12.011    8.474436   -1.176946    9.216214
  39 H     1.0000    0     1.008    6.571603   -2.308962    3.218869
  40 H     1.0000    0     1.008   10.140786   -5.302087    3.438571
  41 H     1.0000    0     1.008   12.659409   -5.671206    7.371628
  42 H     1.0000    0     1.008   11.571903   -3.015258   11.074522
  43 H     1.0000    0     1.008    8.004360   -0.021757   10.839163
  44 C     6.0000    0    12.011   -6.220510   -2.067579    7.329858
  45 C     6.0000    0    12.011   -7.572199   -2.927274    5.231247
  46 C     6.0000    0    12.011   -9.263492   -4.927203    5.446992
  47 C     6.0000    0    12.011   -9.634728   -6.098983    7.769581
  48 C     6.0000    0    12.011   -8.302014   -5.258741    9.872706
  49 C     6.0000    0    12.011   -6.608324   -3.261376    9.652550
  50 H     1.0000    0     1.008   -7.285020   -2.024426    3.416937
  51 H     1.0000    0     1.008  -10.287432   -5.571952    3.796079
  52 H     1.0000    0     1.008  -10.952763   -7.655186    7.939398
  53 H     1.0000    0     1.008   -8.583011   -6.154162   11.691761
  54 H     1.0000    0     1.008   -5.579297   -2.609559   11.297395
  55 C     6.0000    0    12.011   -7.356509   11.133300    6.086084
  56 C     6.0000    0    12.011   -8.055104   12.220058    3.783621
  57 C     6.0000    0    12.011  -10.063756   13.909187    3.647236
  58 C     6.0000    0    12.011  -11.406322   14.543464    5.815300
  59 C     6.0000    0    12.011  -10.727655   13.475728    8.118480
  60 C     6.0000    0    12.011   -8.721042   11.783745    8.250622
  61 H     1.0000    0     1.008   -7.018482   11.728077    2.088701
  62 H     1.0000    0     1.008  -10.581327   14.725684    1.843049
  63 H     1.0000    0     1.008  -12.969634   15.859891    5.710858
  64 H     1.0000    0     1.008  -11.757115   13.962589    9.819308
  65 H     1.0000    0     1.008   -8.196059   10.961555   10.050035
  66 C     6.0000    0    12.011    5.899680   12.243302    5.766332
  67 C     6.0000    0    12.011    7.157161   12.697388    3.489791
  68 C     6.0000    0    12.011    8.849155   14.695372    3.262397
  69 C     6.0000    0    12.011    9.315018   16.272215    5.312272
  70 C     6.0000    0    12.011    8.076116   15.838395    7.588691
  71 C     6.0000    0    12.011    6.381620   13.841944    7.811427
  72 H     1.0000    0     1.008    6.797148   11.477579    1.886064
  73 H     1.0000    0     1.008    9.799657   15.021355    1.479146
  74 H     1.0000    0     1.008   10.633402   17.827537    5.137090
  75 H     1.0000    0     1.008    8.430419   17.051940    9.198458
  76 H     1.0000    0     1.008    5.425442   13.508147    9.590130
* core charge reduced due to ECP

--------------------------------
INTERNAL COORDINATES (ANGSTROEM)
--------------------------------
 N      0   0   0     0.000000000000     0.00000000     0.00000000
 H      1   0   0     6.226909584323     0.00000000     0.00000000
 C      1   2   0     2.267104250437   141.35977369     0.00000000
 C      2   1   3     2.184668519511    32.86339705     0.34280941
 N      4   2   1     2.267078764736    95.78079355     0.08531973
 C      2   1   3     1.077354096091     2.92918026     3.53991666
 H      4   2   1     1.077348867078   103.55530413   179.90701124
 C      5   4   2     3.099208523477   126.82809258     0.21163959
 N      1   2   6     3.033013543834   101.12435337   183.45655203
 C      9   1   2     2.267129203555   117.52976755   180.00756343
 C      8   5   4     1.420403395029    51.59344702     0.05111827
 C      8   5   4     2.235783449825   109.34597485   179.66737486
 N     12   8   5     1.362886722424    34.89222548     0.24565151
 C     12   8   5     1.450264622529    72.46275824   180.07175052
 C      5   4   2     1.362917654010    37.63314937   180.50541806
 C      5   4   2     1.362899475432    72.58641748     0.36330981
 C      1   2   6     1.362879768119    68.77191694     3.34948301
 C      1   2   6     1.362964757384   178.97075037    14.70592998
 C      3   1   2     1.361742651855    72.52309798     0.07378407
 C     15   5   4     1.420448439227   126.05123773   180.53742367
 C     18   1  17     1.420361822745   126.05206197   180.38454889
 C     14  12   8     1.361731833191   107.53664106     0.30455902
 C      9   1   2     1.362850690822    79.89631003   179.85746444
 C     10   9   1     1.361726818909    72.52334945   180.17075694
 C     12   8   5     1.420317097298   160.94073403     0.99277551
 C      9   1   2     1.362925442895   169.88676824   359.60781380
 H      3   1   2     1.077369932890   160.66065628   180.65688984
 H     19   3   1     1.077354199394   126.79181051   179.75899513
 H     22  14  12     1.077358568224   126.80909247   179.52265103
 H     14  12   8     1.077365299891   125.65684331   180.30577475
 H     24  10   9     1.077370299954   126.81660426   179.77309827
 H     10   9   1     1.077361458895   160.68000721     0.75406544
 Cd    13  12   8     2.144611716681   124.88913229   180.11559583
 C     11   8   5     1.499739680849   115.93179297   180.11580825
 C     34  11   8     1.397101723469   120.76738948   255.16980924
 C     35  34  11     1.390714049158   120.79511174   179.90944824
 C     36  35  34     1.390559144059   120.18369120     0.11306297
 C     37  36  35     1.390569318757   119.55241508   359.93986629
 C     38  37  36     1.390708114914   120.18578262   359.94908443
 H     35  34  11     1.083110169783   119.27710586     0.23019603
 H     36  35  34     1.083150949848   119.69802581   180.28345548
 H     37  36  35     1.082916265007   120.22234294   179.94262356
 H     38  37  36     1.083156130749   120.11268666   179.78514681
 H     39  38  37     1.083120770646   119.91553040   179.83176155
 C     20  15   5     1.499673432332   115.93770093   179.87380418
 C     45  20  15     1.397098248641   120.76713961   254.92722925
 C     46  45  20     1.390713391699   120.79886578   179.94805577
 C     47  46  45     1.390568884609   120.18624231     0.11744045
 C     48  47  46     1.390565227206   119.54805341   359.94259037
 C     49  48  47     1.390691346122   120.18711192   359.94809691
 H     46  45  20     1.083111432517   119.28375793     0.25681515
 H     47  46  45     1.083155797025   119.69796567   180.27828763
 H     48  47  46     1.082917312426   120.22740328   179.93951826
 H     49  48  47     1.083160048472   120.11647248   179.76605881
 H     50  49  48     1.083105322768   119.91592100   179.79604125
 C     21  18   1     1.499731602429   115.96147196   179.64337059
 C     56  21  18     1.397109427489   120.73150475   255.42390513
 C     57  56  21     1.390683386907   120.80188229   180.01087857
 C     58  57  56     1.390567970688   120.18696767     0.10537659
 C     59  58  57     1.390567148330   119.54498689   359.94724761
 C     60  59  58     1.390715522621   120.18937770   359.94786260
 H     57  56  21     1.083118996624   119.28894598     0.28208980
 H     58  57  56     1.083151660135   119.69626606   180.25545697
 H     59  58  57     1.082918801112   120.22920896   179.94654250
 H     60  59  58     1.083152397365   120.11630662   179.78011393
 H     61  60  59     1.083133142888   119.91082613   179.81218228
 C     25  12   8     1.499766884519   115.92851934   179.35228029
 C     67  25  12     1.397077168329   120.73917841    75.56881185
 C     68  67  25     1.390688588142   120.79913498   179.95591962
 C     69  68  67     1.390583248430   120.18824870     0.09799309
 C     70  69  68     1.390554462844   119.54591143   359.94521623
 C     71  70  69     1.390714141738   120.18679576   359.95030171
 H     68  67  25     1.083131832442   119.29777949     0.21256277
 H     69  68  67     1.083160630609   119.69831804   180.25645058
 H     70  69  68     1.082921088834   120.23113687   179.95226165
 H     71  70  69     1.083143554453   120.12040902   179.79842175
 H     72  71  70     1.083131507327   119.91684896   179.81504118

---------------------------
INTERNAL COORDINATES (A.U.)
---------------------------
 N      0   0   0     0.000000000000     0.00000000     0.00000000
 H      1   0   0    11.767153775060     0.00000000     0.00000000
 C      1   2   0     4.284206150375   141.35977369     0.00000000
 C      2   1   3     4.128425195274    32.86339705     0.34280941
 N      4   2   1     4.284157989380    95.78079355     0.08531973
 C      2   1   3     2.035904190870     2.92918026     3.53991666
 H      4   2   1     2.035894309468   103.55530413   179.90701124
 C      5   4   2     5.856655341286   126.82809258     0.21163959
 N      1   2   6     5.731564958321   101.12435337   183.45655203
 C      9   1   2     4.284253304934   117.52976755   180.00756343
 C      8   5   4     2.684173416297    51.59344702     0.05111827
 C      8   5   4     4.225018414922   109.34597485   179.66737486
 N     12   8   5     2.575482656939    34.89222548     0.24565151
 C     12   8   5     2.740602958294    72.46275824   180.07175052
 C      5   4   2     2.575541109164    37.63314937   180.50541806
 C      5   4   2     2.575506756632    72.58641748     0.36330981
 C      1   2   6     2.575469515208    68.77191694     3.34948301
 C      1   2   6     2.575630121642   178.97075037    14.70592998
 C      3   1   2     2.573320676885    72.52309798     0.07378407
 C     15   5   4     2.684258537495   126.05123773   180.53742367
 C     18   1  17     2.684094856065   126.05206197   180.38454889
 C     14  12   8     2.573300232573   107.53664106     0.30455902
 C      9   1   2     2.575414567079    79.89631003   179.85746444
 C     10   9   1     2.573290756953    72.52334945   180.17075694
 C     12   8   5     2.684010337218   160.94073403     0.99277551
 C      9   1   2     2.575555828026   169.88676824   359.60781380
 H      3   1   2     2.035934118084   160.66065628   180.65688984
 H     19   3   1     2.035904386085   126.79181051   179.75899513
 H     22  14  12     2.035912641977   126.80909247   179.52265103
 H     14  12   8     2.035925362983   125.65684331   180.30577475
 H     24  10   9     2.035934811734   126.81660426   179.77309827
 H     10   9   1     2.035918104553   160.68000721     0.75406544
 Cd    13  12   8     4.052728808125   124.88913229   180.11559583
 C     11   8   5     2.834097268980   115.93179297   180.11580825
 C     34  11   8     2.640139638587   120.76738948   255.16980924
 C     35  34  11     2.628068683505   120.79511174   179.90944824
 C     36  35  34     2.627775955292   120.18369120     0.11306297
 C     37  36  35     2.627795182684   119.55241508   359.93986629
 C     38  37  36     2.628057469409   120.18578262   359.94908443
 H     35  34  11     2.046781593754   119.27710586     0.23019603
 H     36  35  34     2.046858656909   119.69802581   180.28345548
 H     37  36  35     2.046415166832   120.22234294   179.94262356
 H     38  37  36     2.046868447394   120.11268666   179.78514681
 H     39  38  37     2.046801626483   119.91553040   179.83176155
 C     20  15   5     2.833972077425   115.93770093   179.87380418
 C     45  20  15     2.640133072112   120.76713961   254.92722925
 C     46  45  20     2.628067441089   120.79886578   179.94805577
 C     47  46  45     2.627794362264   120.18624231     0.11744045
 C     48  47  46     2.627787450774   119.54805341   359.94259037
 C     49  48  47     2.628025780985   120.18711192   359.94809691
 H     46  45  20     2.046783979976   119.28375793     0.25681515
 H     47  46  45     2.046867816746   119.69796567   180.27828763
 H     48  47  46     2.046417146167   120.22740328   179.93951826
 H     49  48  47     2.046875850817   120.11647248   179.76605881
 H     50  49  48     2.046772434223   119.91592100   179.79604125
 C     21  18   1     2.834082002978   115.96147196   179.64337059
 C     56  21  18     2.640154197074   120.73150475   255.42390513
 C     57  56  21     2.628010740248   120.80188229   180.01087857
 C     58  57  56     2.627792635202   120.18696767     0.10537659
 C     59  58  57     2.627791081172   119.54498689   359.94724761
 C     60  59  58     2.628071467947   120.18937770   359.94786260
 H     57  56  21     2.046798274066   119.28894598     0.28208980
 H     58  57  56     2.046859999158   119.69626606   180.25545697
 H     59  58  57     2.046419959377   120.22920896   179.94654250
 H     60  59  58     2.046861392320   120.11630662   179.78011393
 H     61  60  59     2.046825006631   119.91082613   179.81218228
 C     25  12   8     2.834148676465   115.92851934   179.35228029
 C     67  25  12     2.640093236096   120.73917841    75.56881185
 C     68  67  25     2.628020569159   120.79913498   179.95591962
 C     69  68  67     2.627821505951   120.18824870     0.09799309
 C     70  69  68     2.627767109077   119.54591143   359.94521623
 C     71  70  69     2.628068858456   120.18679576   359.95030171
 H     68  67  25     2.046822530248   119.29777949     0.21256277
 H     69  68  67     2.046876950897   119.69831804   180.25645058
 H     70  69  68     2.046424282545   120.23113687   179.95226165
 H     71  70  69     2.046844681638   120.12040902   179.79842175
 H     72  71  70     2.046821915869   119.91684896   179.81504118

---------------------
BASIS SET INFORMATION
---------------------
There are 4 groups of distinct atoms

 Group   1 Type N   : 11s6p2d1f contracted to 5s3p2d1f pattern {62111/411/11/1}
 Group   2 Type H   : 5s1p contracted to 3s1p pattern {311/1}
 Group   3 Type C   : 11s6p2d1f contracted to 5s3p2d1f pattern {62111/411/11/1}
 Group   4 Type Cd  : 7s7p6d1f contracted to 6s4p3d1f pattern {211111/4111/411/1}

Atom   0N    basis set group =>   1
Atom   1H    basis set group =>   2
Atom   2C    basis set group =>   3
Atom   3C    basis set group =>   3
Atom   4N    basis set group =>   1
Atom   5C    basis set group =>   3
Atom   6H    basis set group =>   2
Atom   7C    basis set group =>   3
Atom   8N    basis set group =>   1
Atom   9C    basis set group =>   3
Atom  10C    basis set group =>   3
Atom  11C    basis set group =>   3
Atom  12N    basis set group =>   1
Atom  13C    basis set group =>   3
Atom  14C    basis set group =>   3
Atom  15C    basis set group =>   3
Atom  16C    basis set group =>   3
Atom  17C    basis set group =>   3
Atom  18C    basis set group =>   3
Atom  19C    basis set group =>   3
Atom  20C    basis set group =>   3
Atom  21C    basis set group =>   3
Atom  22C    basis set group =>   3
Atom  23C    basis set group =>   3
Atom  24C    basis set group =>   3
Atom  25C    basis set group =>   3
Atom  26H    basis set group =>   2
Atom  27H    basis set group =>   2
Atom  28H    basis set group =>   2
Atom  29H    basis set group =>   2
Atom  30H    basis set group =>   2
Atom  31H    basis set group =>   2
Atom  32Cd   basis set group =>   4
Atom  33C    basis set group =>   3
Atom  34C    basis set group =>   3
Atom  35C    basis set group =>   3
Atom  36C    basis set group =>   3
Atom  37C    basis set group =>   3
Atom  38C    basis set group =>   3
Atom  39H    basis set group =>   2
Atom  40H    basis set group =>   2
Atom  41H    basis set group =>   2
Atom  42H    basis set group =>   2
Atom  43H    basis set group =>   2
Atom  44C    basis set group =>   3
Atom  45C    basis set group =>   3
Atom  46C    basis set group =>   3
Atom  47C    basis set group =>   3
Atom  48C    basis set group =>   3
Atom  49C    basis set group =>   3
Atom  50H    basis set group =>   2
Atom  51H    basis set group =>   2
Atom  52H    basis set group =>   2
Atom  53H    basis set group =>   2
Atom  54H    basis set group =>   2
Atom  55C    basis set group =>   3
Atom  56C    basis set group =>   3
Atom  57C    basis set group =>   3
Atom  58C    basis set group =>   3
Atom  59C    basis set group =>   3
Atom  60C    basis set group =>   3
Atom  61H    basis set group =>   2
Atom  62H    basis set group =>   2
Atom  63H    basis set group =>   2
Atom  64H    basis set group =>   2
Atom  65H    basis set group =>   2
Atom  66C    basis set group =>   3
Atom  67C    basis set group =>   3
Atom  68C    basis set group =>   3
Atom  69C    basis set group =>   3
Atom  70C    basis set group =>   3
Atom  71C    basis set group =>   3
Atom  72H    basis set group =>   2
Atom  73H    basis set group =>   2
Atom  74H    basis set group =>   2
Atom  75H    basis set group =>   2
Atom  76H    basis set group =>   2
---------------------------------
AUXILIARY/J BASIS SET INFORMATION
---------------------------------
There are 4 groups of distinct atoms

 Group   1 Type N   : 12s5p4d2f1g contracted to 6s4p3d1f1g pattern {711111/2111/211/2/1}
 Group   2 Type H   : 5s2p1d contracted to 3s1p1d pattern {311/2/1}
 Group   3 Type C   : 12s5p4d2f1g contracted to 6s4p3d1f1g pattern {711111/2111/211/2/1}
 Group   4 Type Cd  : 11s5p5d3f3g contracted to 8s5p5d2f3g pattern {41111111/11111/11111/21/111}

Atom   0N    basis set group =>   1
Atom   1H    basis set group =>   2
Atom   2C    basis set group =>   3
Atom   3C    basis set group =>   3
Atom   4N    basis set group =>   1
Atom   5C    basis set group =>   3
Atom   6H    basis set group =>   2
Atom   7C    basis set group =>   3
Atom   8N    basis set group =>   1
Atom   9C    basis set group =>   3
Atom  10C    basis set group =>   3
Atom  11C    basis set group =>   3
Atom  12N    basis set group =>   1
Atom  13C    basis set group =>   3
Atom  14C    basis set group =>   3
Atom  15C    basis set group =>   3
Atom  16C    basis set group =>   3
Atom  17C    basis set group =>   3
Atom  18C    basis set group =>   3
Atom  19C    basis set group =>   3
Atom  20C    basis set group =>   3
Atom  21C    basis set group =>   3
Atom  22C    basis set group =>   3
Atom  23C    basis set group =>   3
Atom  24C    basis set group =>   3
Atom  25C    basis set group =>   3
Atom  26H    basis set group =>   2
Atom  27H    basis set group =>   2
Atom  28H    basis set group =>   2
Atom  29H    basis set group =>   2
Atom  30H    basis set group =>   2
Atom  31H    basis set group =>   2
Atom  32Cd   basis set group =>   4
Atom  33C    basis set group =>   3
Atom  34C    basis set group =>   3
Atom  35C    basis set group =>   3
Atom  36C    basis set group =>   3
Atom  37C    basis set group =>   3
Atom  38C    basis set group =>   3
Atom  39H    basis set group =>   2
Atom  40H    basis set group =>   2
Atom  41H    basis set group =>   2
Atom  42H    basis set group =>   2
Atom  43H    basis set group =>   2
Atom  44C    basis set group =>   3
Atom  45C    basis set group =>   3
Atom  46C    basis set group =>   3
Atom  47C    basis set group =>   3
Atom  48C    basis set group =>   3
Atom  49C    basis set group =>   3
Atom  50H    basis set group =>   2
Atom  51H    basis set group =>   2
Atom  52H    basis set group =>   2
Atom  53H    basis set group =>   2
Atom  54H    basis set group =>   2
Atom  55C    basis set group =>   3
Atom  56C    basis set group =>   3
Atom  57C    basis set group =>   3
Atom  58C    basis set group =>   3
Atom  59C    basis set group =>   3
Atom  60C    basis set group =>   3
Atom  61H    basis set group =>   2
Atom  62H    basis set group =>   2
Atom  63H    basis set group =>   2
Atom  64H    basis set group =>   2
Atom  65H    basis set group =>   2
Atom  66C    basis set group =>   3
Atom  67C    basis set group =>   3
Atom  68C    basis set group =>   3
Atom  69C    basis set group =>   3
Atom  70C    basis set group =>   3
Atom  71C    basis set group =>   3
Atom  72H    basis set group =>   2
Atom  73H    basis set group =>   2
Atom  74H    basis set group =>   2
Atom  75H    basis set group =>   2
Atom  76H    basis set group =>   2
-------------------------
ECP PARAMETER INFORMATION
-------------------------

 Group 1, Type Cd ECP Def2-ECP (replacing 28 core electrons, lmax=3)

Atom  32Cd   ECP group =>   1



           ************************************************************
           *        Program running with 8 parallel MPI-processes     *
           *              working on a common directory               *
           ************************************************************
------------------------------------------------------------------------------
                             ORCA STARTUP CALCULATIONS
                           -- RI-GTO INTEGRALS CHOSEN --
------------------------------------------------------------------------------
------------------------------------------------------------------------------
                   ___                                                        
                  /   \      - P O W E R E D   B Y -                         
                 /     \                                                     
                 |  |  |   _    _      __       _____    __    __             
                 |  |  |  | |  | |    /  \     |  _  \  |  |  /  |          
                  \  \/   | |  | |   /    \    | | | |  |  | /  /          
                 / \  \   | |__| |  /  /\  \   | |_| |  |  |/  /          
                |  |  |   |  __  | /  /__\  \  |    /   |      \           
                |  |  |   | |  | | |   __   |  |    \   |  |\   \          
                \     /   | |  | | |  |  |  |  | |\  \  |  | \   \       
                 \___/    |_|  |_| |__|  |__|  |_| \__\ |__|  \__/        
                                                                              
                      - O R C A' S   B I G   F R I E N D -                    
                                      &                                       
                       - I N T E G R A L  F E E D E R -                       
                                                                              
 v1 FN, 2020, v2 2021, v3 2022-2024                                           
------------------------------------------------------------------------------


----------------------
SHARK INTEGRAL PACKAGE
----------------------

Number of atoms                             ...     77
Number of basis functions                   ...   1696
Number of shells                            ...    654
Maximum angular momentum                    ...      3
Integral batch strategy                     ... SHARK/LIBINT Hybrid
RI-J (if used) integral strategy            ... SPLIT-RIJ (Revised 2003 algorithm where possible)
Printlevel                                  ...      1
Contraction scheme used                     ... SEGMENTED contraction
Prescreening option                         ... SCHWARTZ
   Thresh                                   ... 2.500e-11
   Tcut                                     ... 2.500e-12
   Tpresel                                  ... 2.500e-12 
Coulomb Range Separation                    ... NOT USED
Exchange Range Separation                   ... Long Range
   Mu parameter                             ... 2.500e-01
   Scaling (regular/separated)              ... 1.957e-01 8.043e-01
Robust (split-)RI terms used:
  metric    (central integrals)             ... YES
  density   (r.h.s.  integrals)             ... YES
  potential (l.h.s.  integrals)             ... YES
Multipole approximations                    ... NOT USED
Finite Nucleus Model                        ... NOT USED
CABS basis                                  ... NOT available
Auxiliary Coulomb fitting basis             ... AVAILABLE
   # of basis functions in Aux-J            ...   2749
   # of shells in Aux-J                     ...    883
   Maximum angular momentum in Aux-J        ...      4
Auxiliary J/K fitting basis                 ... NOT available
Auxiliary Correlation fitting basis         ... NOT available
Auxiliary 'external' fitting basis          ... NOT available

Checking pre-screening integrals            ... done (  0.0 sec) Dimension = 654
   => SHARK Basis and OBASIS are compatible. Storing Pre-screening
Shell pair information
Shell pair cut-off parameter TPreSel        ...   2.5e-12
Total number of shell pairs                 ...    214185
Shell pairs after pre-screening             ...    102923
Total number of primitive shell pairs       ...    661828
Primitive shell pairs kept                  ...    195318
          la=0 lb=0:  24466 shell pairs
          la=1 lb=0:  30251 shell pairs
          la=1 lb=1:   9264 shell pairs
          la=2 lb=0:  14569 shell pairs
          la=2 lb=1:   9131 shell pairs
          la=2 lb=2:   2183 shell pairs
          la=3 lb=0:   6534 shell pairs
          la=3 lb=1:   4213 shell pairs
          la=3 lb=2:   1859 shell pairs
          la=3 lb=3:    453 shell pairs

Checking whether 4 symmetric matrices of dimension 1696 fit in memory
:Max Core in MB      =   3000.00
 MB in use           =    125.13
 MB left             =   2874.87
 MB needed           =     43.92
 Data fit in memory  = YES
Calculating RI/J V-Matrix + Cholesky decomp.... done (  1.3 sec)
Calculating Nuclear repulsion               ... done (  0.0 sec) ENN=   6024.933714368106 Eh

Diagonalization of the overlap matrix:
Smallest eigenvalue                        ... 3.288e-06
Time for diagonalization                   ...    3.481 sec
Threshold for overlap eigenvalues          ... 1.000e-07
Number of eigenvalues below threshold      ... 0
Time for construction of square roots      ...    2.296 sec
Total time needed                          ...    6.075 sec

-------------------
DFT GRID GENERATION
-------------------

General Integration Accuracy     IntAcc      ... 4.959
Radial Grid Type                 RadialGrid  ... OptM3 with GC (2021)
Angular Grid (max. ang.)         AngularGrid ... 6 (Lebedev-590)
Angular grid pruning method      GridPruning ... 4 (adaptive)
Weight generation scheme         WeightScheme... mBecke (2022)
Basis function cutoff            BFCut       ... 1.0000e-11
Integration weight cutoff        WCut        ... 1.0000e-14
Partially contracted basis set               ... off
Rotationally invariant grid construction     ... off
Angular grids for H and He will be reduced by one unit

Total number of grid points                  ...   932479
Total number of batches                      ...    14611
Average number of points per batch           ...       63
Average number of grid points per atom       ...    12110

--------------------
COSX GRID GENERATION
--------------------

GRIDX 1
-------
General Integration Accuracy     IntAcc      ... 4.020
Radial Grid Type                 RadialGrid  ... OptM3 with GC (2021)
Angular Grid (max. ang.)         AngularGrid ... 2 (Lebedev-110)
Angular grid pruning method      GridPruning ... 4 (adaptive)
Weight generation scheme         WeightScheme... mBecke (2022)
Basis function cutoff            BFCut       ... 1.0000e-11
Integration weight cutoff        WCut        ... 1.0000e-14
Partially contracted basis set               ... on
Rotationally invariant grid construction     ... off
Angular grids for H and He will be reduced by one unit

Total number of grid points                  ...   107560
Total number of batches                      ...      886
Average number of points per batch           ...      121
Average number of grid points per atom       ...     1397
UseSFitting                                  ... on

GRIDX 2
-------
General Integration Accuracy     IntAcc      ... 4.338
Radial Grid Type                 RadialGrid  ... OptM3 with GC (2021)
Angular Grid (max. ang.)         AngularGrid ... 3 (Lebedev-194)
Angular grid pruning method      GridPruning ... 4 (adaptive)
Weight generation scheme         WeightScheme... mBecke (2022)
Basis function cutoff            BFCut       ... 1.0000e-11
Integration weight cutoff        WCut        ... 1.0000e-14
Partially contracted basis set               ... on
Rotationally invariant grid construction     ... off
Angular grids for H and He will be reduced by one unit

Total number of grid points                  ...   229854
Total number of batches                      ...     1842
Average number of points per batch           ...      124
Average number of grid points per atom       ...     2985
UseSFitting                                  ... on

GRIDX 3
-------
General Integration Accuracy     IntAcc      ... 4.871
Radial Grid Type                 RadialGrid  ... OptM3 with GC (2021)
Angular Grid (max. ang.)         AngularGrid ... 4 (Lebedev-302)
Angular grid pruning method      GridPruning ... 4 (adaptive)
Weight generation scheme         WeightScheme... mBecke (2022)
Basis function cutoff            BFCut       ... 1.0000e-11
Integration weight cutoff        WCut        ... 1.0000e-14
Partially contracted basis set               ... on
Rotationally invariant grid construction     ... off
Angular grids for H and He will be reduced by one unit

Total number of grid points                  ...   421882
Total number of batches                      ...     3331
Average number of points per batch           ...      126
Average number of grid points per atom       ...     5479
UseSFitting                                  ... on
Grids setup in  56.9 sec
Initializing property integral containers    ... done (  0.0 sec)

SHARK setup successfully completed in  77.2 seconds

Maximum memory used throughout the entire STARTUP-calculation: 302.5 MB


           ************************************************************
           *        Program running with 8 parallel MPI-processes     *
           *              working on a common directory               *
           ************************************************************
-------------------------------------------------------------------------------
                                 ORCA GUESS
                   Start orbitals & Density for SCF / CASSCF
-------------------------------------------------------------------------------

------------
SCF SETTINGS
------------
Hamiltonian:
 Density Functional     Method          .... DFT(GTOs)
 Exchange Functional    Exchange        .... WB97X-D3
 Correlation Functional Correlation     .... WB97X-D3
 Gradients option       PostSCFGGA      .... off
 Hybrid DFT is turned on
   Fraction HF Exchange ScalHFX         ....  0.195728
   Scaling of DF-GGA-X  ScalDFX         ....  0.000000
   Scaling of DF-GGA-C  ScalDFC         ....  1.000000
   Scaling of DF-LDA-C  ScalLDAC        ....  1.000000
   Perturbative correction              ....  0.000000
 Long-range corrected/Screened/Range-Separated Hybrid DFT is turned on
   Amount of maximum screened exact exchange              ....  0.804272
   Range separation parameter mu (erf(mu*r12)/r12)        ....  0.250000
 RI-approximation to the Coulomb term is turned on
   Number of AuxJ basis functions       .... 2749
   RIJ-COSX (HFX calculated with COS-X)).... on


General Settings:
 Integral files         IntName         .... tddft
 Hartree-Fock type      HFTyp           .... RHF
 Total Charge           Charge          ....    0
 Multiplicity           Mult            ....    1
 Number of Electrons    NEL             ....  340
 Basis Dimension        Dim             .... 1696
 Nuclear Repulsion      ENuc            ....   6024.9337143681 Eh

Convergence Acceleration:
 AO-DIIS                CNVDIIS         .... on
   Start iteration      DIISMaxIt       ....    12
   Startup error        DIISStart       ....  0.200000
   # of expansion vecs  DIISMaxEq       ....     5
   Bias factor          DIISBfac        ....   1.050
   Max. coefficient     DIISMaxC        ....  10.000
 MO-DIIS                CNVKDIIS        .... off
 Trust-Rad. Augm. Hess. CNVTRAH         .... auto
   Auto Start mean grad. ratio tolernc. ....  1.125000
   Auto Start start iteration           ....    50
   Auto Start num. interpolation iter.  ....    10
   Max. Number of Micro iterations      ....    24
   Max. Number of Macro iterations      .... Maxiter - #DIIS iter
   Number of Davidson start vectors     ....     2
   Converg. threshold    (grad. norm)   ....   1.000e-05
   Grad. Scal. Fac. for Micro threshold ....   0.100
   Minimum threshold for Micro iter.    ....   1.000e-02
   NR start threshold (gradient norm)   ....   1.000e-04
   Initial trust radius                 ....   0.400
   Minimum AH scaling param. (alpha)    ....   1.000
   Maximum AH scaling param. (alpha)    .... 1000.000
   Quad. conv. algorithm                .... NR
   White noise on init. David. guess    .... on
   Maximum white noise                  ....   0.010
   Pseudo random numbers                .... off
   Inactive MOs                         .... canonical
   Orbital update algorithm             .... Taylor
   Preconditioner                       .... Diag
   Full preconditioner red. dimension   ....   250
 SOSCF                 CNVSOSCF           .... on
   Start iteration     SOSCFMaxIt         ....   150
   Startup grad/error  SOSCFStart         ....  0.003300
   Hessian update      SOSCFHessUp        .... L-BFGS
   Autom. constraints  SOSCFAutoConstrain .... off
 Level Shifting         CNVShift        .... on
   Level shift para.    LevelShift      ....    0.2500
   Turn off err/grad.   ShiftErr        ....    0.0010
 Zerner damping         CNVZerner       .... off
 Static damping         CNVDamp         .... on
   Fraction old density DampFac         ....    0.7000
   Max. Damping (<1)    DampMax         ....    0.9800
   Min. Damping (>=0)   DampMin         ....    0.0000
   Turn off err/grad.   DampErr         ....    0.1000

SCF Procedure:
 Maximum # iterations   MaxIter         ....   125
 SCF integral mode      SCFMode         .... Direct
   Integral package                     .... SHARK and LIBINT hybrid scheme
 Reset frequency        DirectResetFreq ....    20
 Integral Threshold     Thresh          ....  2.500e-11 Eh
 Primitive CutOff       TCut            ....  2.500e-12 Eh

Convergence Tolerance:
 Convergence Check Mode ConvCheckMode   .... Total+1el-Energy
 Convergence forced     ConvForced      .... 1
 Energy Change          TolE            ....  1.000e-08 Eh
 1-El. energy change                    ....  1.000e-05 Eh
 Orbital Gradient       TolG            ....  1.000e-05
 Orbital Rotation angle TolX            ....  1.000e-05
 DIIS Error             TolErr          ....  5.000e-07

------------------------------
INITIAL GUESS: MODEL POTENTIAL
------------------------------
Loading Hartree-Fock densities                     ... done
Atomic calculation to generate a density for atom 32 (Cd with ECP)
  Multiplicity assumed   :    1
  Atomic configuration   : 1s2 2s2 2p6 3s2 3p6 4s2 3d10 4p6 5s2 4d10 
  Number of open shells  : 1
  Command: /opt/orca/orca tddft_atom48.inp "" > tddft_atom48.out
Returned from the atomic calculation with res=0
Calculating cut-offs                               ... done
Initializing the effective Hamiltonian             ... done
Setting up the integral package (SHARK)            ... done
Starting the Coulomb interaction                   ... done (   6.1 sec)
Making the grid                                    ... done (   2.1 sec)
Mapping shells                                     ... done
Starting the XC term evaluation                    ... done (   5.1 sec)
  promolecular density results
     # of electrons  =    367.983777213
     EX              =   -407.910380422
     EC              =    -13.361124010
     EX+EC           =   -421.271504432
Transforming the Hamiltonian                       ... done (   1.0 sec)
Diagonalizing the Hamiltonian                      ... done (   0.8 sec)
Back transforming the eigenvectors                 ... done (   0.4 sec)
Now organizing SCF variables                       ... done
                      ------------------
                      INITIAL GUESS DONE (  17.5 sec)
                      ------------------
             **** ENERGY FILE WAS UPDATED (tddft.en.tmp) ****
Finished Guess after  22.1 sec
Maximum memory used throughout the entire GUESS-calculation: 203.8 MB


           ************************************************************
           *        Program running with 8 parallel MPI-processes     *
           *              working on a common directory               *
           ************************************************************

-------------------------------------------------------------------------------------------
                                      ORCA LEAN-SCF
                              memory conserving SCF solver
-------------------------------------------------------------------------------------------

--------------------
CPCM SOLVATION MODEL
--------------------
CPCM parameters:
  Epsilon                                         ...       2.3870
  Refrac                                          ...       1.4961
  Rsolv                                           ...       1.3000
  Surface type                                    ... GAUSSIAN VDW
  Discretization scheme                           ... Constant charge density
    Threshold for H atoms                         ...       5.0000 (charges/Ang^2)
    Threshold for non-H atoms                     ...       5.0000 (charges/Ang^2)
  Epsilon function type                           ...         CPCM
Solvent:                                          ... TOLUENE
Radii:
  Scheme                                          ... Element-dependent radii
  Radius for N  used is    3.5149 Bohr (=   1.8600 Ang.)
  Radius for H  used is    2.4944 Bohr (=   1.3200 Ang.)
  Radius for C  used is    3.8550 Bohr (=   2.0400 Ang.)
  Radius for Cd used is    3.5829 Bohr (=   1.8960 Ang.)
Calculating surface                               ...        done! (  0.1s)
Cavity surface points                             ...         6818
Cavity Volume                                     ...    4957.4798
Cavity Surface-area                               ...    2298.4400
Calculating surface distance matrix               ...        done! (  0.9s)
Performing Cholesky decomposition & store         ...        done! (  8.8s)
Overall time for CPCM initialization              ...                 9.8s

----------------------------------------D-I-I-S--------------------------------------------
Iteration    Energy (Eh)           Delta-E    RMSDP     MaxDP     DIISErr   Damp  Time(sec)
-------------------------------------------------------------------------------------------
               ***  Starting incremental Fock matrix formation  ***
    1    -2079.5247295810504511     0.00e+00  1.83e-03  6.14e-02  5.21e-01  0.700 497.3
    2    -2079.8900496504711555    -3.65e-01  1.46e-03  4.82e-02  3.64e-01  0.700 216.5
    3    -2080.0883345182874109    -1.98e-01  9.93e-04  3.23e-02  2.54e-01  0.700 239.6
                               ***Turning on AO-DIIS***
    4    -2080.2072277045581359    -1.19e-01  6.90e-04  1.98e-02  1.77e-01  0.700 242.3
    5    -2080.2868048046348122    -7.96e-02  4.94e-04  1.35e-02  1.24e-01  0.700 238.5
    6    -2080.3415527793031288    -5.47e-02  3.57e-04  8.82e-03  8.68e-02  0.700 249.4
    7    -2080.3796882799806554    -3.81e-02  8.66e-04  1.91e-02  6.09e-02  0.000 199.9
                              *** Initializing SOSCF ***
---------------------------------------S-O-S-C-F--------------------------------------
Iteration    Energy (Eh)           Delta-E    RMSDP     MaxDP     MaxGrad    Time(sec)
--------------------------------------------------------------------------------------
    8    -2080.4682779795712122    -8.86e-02  7.68e-05  1.80e-03  8.22e-04   219.4
               *** Restarting incremental Fock matrix formation ***
    9    -2080.4683106509210120    -3.27e-05  1.69e-04  3.72e-03  4.14e-04   423.7
   10    -2080.4683207759635479    -1.01e-05  8.40e-05  1.74e-03  2.65e-04   363.1
   11    -2080.4683265292869692    -5.75e-06  6.71e-05  1.47e-03  4.35e-05   377.2
   12    -2080.4683266893780456    -1.60e-07  2.80e-05  9.18e-04  1.72e-05   369.6
   13    -2080.4683266631700462     2.62e-08  1.54e-05  4.16e-04  5.80e-06   294.3
   14    -2080.4683267937816709    -1.31e-07  1.55e-05  8.36e-04  1.73e-06   235.2
                  *** Gradient check signals convergence ***

               *****************************************************
               *                     SUCCESS                       *
               *           SCF CONVERGED AFTER  14 CYCLES          *
               *****************************************************

Recomputing exchange energy using gridx3       ... done (  814.981 sec)
Old exchange energy                            :    -91.022612826 Eh
New exchange energy                            :    -91.022606265 Eh
Exchange energy change after final integration :      0.000006562 Eh
Total energy after final integration           :  -2080.468320220 Eh
             **** ENERGY FILE WAS UPDATED (tddft.en.tmp) ****

----------------
TOTAL SCF ENERGY
----------------

Total Energy       :      -2080.46832022030003 Eh          -56612.42111 eV

Components:
Nuclear Repulsion  :       6024.93371436810594 Eh          163946.78126 eV
Electronic Energy  :      -8105.38847550045102 Eh         -220558.83341 eV
One Electron Energy:     -14887.74709278098453 Eh         -405116.19410 eV
Two Electron Energy:       6782.35861728053351 Eh          184557.36069 eV
CPCM Dielectric    :         -0.01356564964660 Eh              -0.36914 eV

Virial components:
Potential Energy   :      -4048.47547337643573 Eh         -110164.61829 eV
Kinetic Energy     :       1968.00715315613547 Eh           53552.19718 eV
Virial Ratio       :          2.05714469425775

DFT components:
N(Alpha)           :      170.000020362675 electrons
N(Beta)            :      170.000020362675 electrons
N(Total)           :      340.000040725351 electrons
E(XC)              :     -201.358795464171 Eh       

CPCM Solvation Model Properties:
Surface-charge          :         -0.04871172272685
Corrected charge        :          0.00000000000000
Outlying charge corr.   :          0.00005397875835 Eh               0.00147 eV
Free-energy (cav+disp)  :  This term is not implemented in the current solvation scheme

---------------
SCF CONVERGENCE
---------------

  Last Energy change         ...    1.3061e-07  Tolerance :   1.0000e-08
  Last MAX-Density change    ...    8.3608e-04  Tolerance :   1.0000e-07
  Last RMS-Density change    ...    1.5464e-05  Tolerance :   5.0000e-09
  Last DIIS Error            ...    8.2246e-04  Tolerance :   5.0000e-07
  Last Orbital Gradient      ...    1.7272e-06  Tolerance :   1.0000e-05
  Last Orbital Rotation      ...    4.5161e-06  Tolerance :   1.0000e-05


----------------
ORBITAL ENERGIES
----------------

  NO   OCC          E(Eh)            E(eV) 
   0   2.0000     -14.419675      -392.3793 
   1   2.0000     -14.419668      -392.3791 
   2   2.0000     -14.419659      -392.3789 
   3   2.0000     -14.419656      -392.3788 
   4   2.0000     -10.321553      -280.8637 
   5   2.0000     -10.321541      -280.8634 
   6   2.0000     -10.321535      -280.8632 
   7   2.0000     -10.321526      -280.8630 
   8   2.0000     -10.321509      -280.8625 
   9   2.0000     -10.321504      -280.8624 
  10   2.0000     -10.321496      -280.8622 
  11   2.0000     -10.321483      -280.8618 
  12   2.0000     -10.311171      -280.5812 
  13   2.0000     -10.311153      -280.5807 
  14   2.0000     -10.311143      -280.5805 
  15   2.0000     -10.311117      -280.5798 
  16   2.0000     -10.296698      -280.1874 
  17   2.0000     -10.296682      -280.1870 
  18   2.0000     -10.296679      -280.1869 
  19   2.0000     -10.296678      -280.1869 
  20   2.0000     -10.283327      -279.8236 
  21   2.0000     -10.283317      -279.8233 
  22   2.0000     -10.283313      -279.8232 
  23   2.0000     -10.283304      -279.8229 
  24   2.0000     -10.283253      -279.8215 
  25   2.0000     -10.283242      -279.8212 
  26   2.0000     -10.283239      -279.8212 
  27   2.0000     -10.283230      -279.8209 
  28   2.0000     -10.282768      -279.8084 
  29   2.0000     -10.282757      -279.8080 
  30   2.0000     -10.282752      -279.8079 
  31   2.0000     -10.282745      -279.8077 
  32   2.0000     -10.282649      -279.8051 
  33   2.0000     -10.282638      -279.8048 
  34   2.0000     -10.282635      -279.8047 
  35   2.0000     -10.282627      -279.8045 
  36   2.0000     -10.282160      -279.7918 
  37   2.0000     -10.282149      -279.7915 
  38   2.0000     -10.282142      -279.7913 
  39   2.0000     -10.282137      -279.7912 
  40   2.0000     -10.280422      -279.7445 
  41   2.0000     -10.280418      -279.7444 
  42   2.0000     -10.280417      -279.7444 
  43   2.0000     -10.280415      -279.7443 
  44   2.0000     -10.279695      -279.7247 
  45   2.0000     -10.279692      -279.7246 
  46   2.0000     -10.279690      -279.7246 
  47   2.0000     -10.279689      -279.7246 
  48   2.0000      -4.231700      -115.1504 
  49   2.0000      -2.751798       -74.8802 
  50   2.0000      -2.740371       -74.5693 
  51   2.0000      -2.740365       -74.5691 
  52   2.0000      -1.086572       -29.5671 
  53   2.0000      -1.078210       -29.3396 
  54   2.0000      -1.078200       -29.3393 
  55   2.0000      -1.070335       -29.1253 
  56   2.0000      -0.989934       -26.9375 
  57   2.0000      -0.986535       -26.8450 
  58   2.0000      -0.986526       -26.8447 
  59   2.0000      -0.984826       -26.7985 
  60   2.0000      -0.941720       -25.6255 
  61   2.0000      -0.924826       -25.1658 
  62   2.0000      -0.924823       -25.1657 
  63   2.0000      -0.906384       -24.6640 
  64   2.0000      -0.883944       -24.0533 
  65   2.0000      -0.882325       -24.0093 
  66   2.0000      -0.882319       -24.0091 
  67   2.0000      -0.878508       -23.9054 
  68   2.0000      -0.866428       -23.5767 
  69   2.0000      -0.866118       -23.5683 
  70   2.0000      -0.866108       -23.5680 
  71   2.0000      -0.865980       -23.5645 
  72   2.0000      -0.858510       -23.3612 
  73   2.0000      -0.851266       -23.1641 
  74   2.0000      -0.851259       -23.1639 
  75   2.0000      -0.836724       -22.7684 
  76   2.0000      -0.823110       -22.3980 
  77   2.0000      -0.774929       -21.0869 
  78   2.0000      -0.774926       -21.0868 
  79   2.0000      -0.733464       -19.9586 
  80   2.0000      -0.719584       -19.5809 
  81   2.0000      -0.718749       -19.5582 
  82   2.0000      -0.718738       -19.5579 
  83   2.0000      -0.718215       -19.5436 
  84   2.0000      -0.709947       -19.3186 
  85   2.0000      -0.709943       -19.3185 
  86   2.0000      -0.704962       -19.1830 
  87   2.0000      -0.703958       -19.1557 
  88   2.0000      -0.692350       -18.8398 
  89   2.0000      -0.671863       -18.2823 
  90   2.0000      -0.671859       -18.2822 
  91   2.0000      -0.663833       -18.0638 
  92   2.0000      -0.659915       -17.9572 
  93   2.0000      -0.658793       -17.9267 
  94   2.0000      -0.651093       -17.7171 
  95   2.0000      -0.634901       -17.2765 
  96   2.0000      -0.634896       -17.2764 
  97   2.0000      -0.627129       -17.0651 
  98   2.0000      -0.622903       -16.9501 
  99   2.0000      -0.622899       -16.9499 
 100   2.0000      -0.609931       -16.5971 
 101   2.0000      -0.596380       -16.2283 
 102   2.0000      -0.596375       -16.2282 
 103   2.0000      -0.591172       -16.0866 
 104   2.0000      -0.591160       -16.0863 
 105   2.0000      -0.583860       -15.8876 
 106   2.0000      -0.573733       -15.6121 
 107   2.0000      -0.573604       -15.6086 
 108   2.0000      -0.564773       -15.3682 
 109   2.0000      -0.562797       -15.3145 
 110   2.0000      -0.560053       -15.2398 
 111   2.0000      -0.560044       -15.2396 
 112   2.0000      -0.558463       -15.1965 
 113   2.0000      -0.552586       -15.0366 
 114   2.0000      -0.552577       -15.0364 
 115   2.0000      -0.550179       -14.9711 
 116   2.0000      -0.549310       -14.9475 
 117   2.0000      -0.530150       -14.4261 
 118   2.0000      -0.522639       -14.2217 
 119   2.0000      -0.521479       -14.1902 
 120   2.0000      -0.521468       -14.1899 
 121   2.0000      -0.520907       -14.1746 
 122   2.0000      -0.520499       -14.1635 
 123   2.0000      -0.520492       -14.1633 
 124   2.0000      -0.520484       -14.1631 
 125   2.0000      -0.519159       -14.1270 
 126   2.0000      -0.511503       -13.9187 
 127   2.0000      -0.511495       -13.9185 
 128   2.0000      -0.510686       -13.8965 
 129   2.0000      -0.501365       -13.6428 
 130   2.0000      -0.498365       -13.5612 
 131   2.0000      -0.498361       -13.5611 
 132   2.0000      -0.484812       -13.1924 
 133   2.0000      -0.482990       -13.1428 
 134   2.0000      -0.482463       -13.1285 
 135   2.0000      -0.478598       -13.0233 
 136   2.0000      -0.478590       -13.0231 
 137   2.0000      -0.470958       -12.8154 
 138   2.0000      -0.468127       -12.7384 
 139   2.0000      -0.468124       -12.7383 
 140   2.0000      -0.464528       -12.6404 
 141   2.0000      -0.456252       -12.4152 
 142   2.0000      -0.444259       -12.0889 
 143   2.0000      -0.443158       -12.0589 
 144   2.0000      -0.439528       -11.9602 
 145   2.0000      -0.439516       -11.9598 
 146   2.0000      -0.438720       -11.9382 
 147   2.0000      -0.438481       -11.9317 
 148   2.0000      -0.438477       -11.9316 
 149   2.0000      -0.428579       -11.6622 
 150   2.0000      -0.412573       -11.2267 
 151   2.0000      -0.411763       -11.2046 
 152   2.0000      -0.411748       -11.2042 
 153   2.0000      -0.372669       -10.1408 
 154   2.0000      -0.372667       -10.1408 
 155   2.0000      -0.354223        -9.6389 
 156   2.0000      -0.348643        -9.4871 
 157   2.0000      -0.346617        -9.4319 
 158   2.0000      -0.346158        -9.4194 
 159   2.0000      -0.346149        -9.4192 
 160   2.0000      -0.342328        -9.3152 
 161   2.0000      -0.342096        -9.3089 
 162   2.0000      -0.340346        -9.2613 
 163   2.0000      -0.340339        -9.2611 
 164   2.0000      -0.337039        -9.1713 
 165   2.0000      -0.336000        -9.1430 
 166   2.0000      -0.335989        -9.1427 
 167   2.0000      -0.308922        -8.4062 
 168   2.0000      -0.261239        -7.1087 
 169   2.0000      -0.253447        -6.8966 
 170   0.0000      -0.044474        -1.2102 
 171   0.0000      -0.044472        -1.2101 
 172   0.0000       0.035267         0.9597 
 173   0.0000       0.056712         1.5432 
 174   0.0000       0.057943         1.5767 
 175   0.0000       0.057947         1.5768 
 176   0.0000       0.058417         1.5896 
 177   0.0000       0.059493         1.6189 
 178   0.0000       0.060178         1.6375 
 179   0.0000       0.061514         1.6739 
 180   0.0000       0.061521         1.6741 
*Only the first 10 virtual orbitals were printed.

                    ********************************
                    * MULLIKEN POPULATION ANALYSIS *
                    ********************************

-----------------------
MULLIKEN ATOMIC CHARGES
-----------------------
   0 N :   -0.359896
   1 H :    0.176992
   2 C :   -0.245976
   3 C :   -0.246220
   4 N :   -0.360451
   5 C :   -0.246157
   6 H :    0.177100
   7 C :    0.201832
   8 N :   -0.360617
   9 C :   -0.246036
  10 C :    0.006673
  11 C :    0.202269
  12 N :   -0.360032
  13 C :   -0.245725
  14 C :    0.201240
  15 C :    0.203216
  16 C :    0.201625
  17 C :    0.202551
  18 C :   -0.246124
  19 C :    0.008817
  20 C :    0.005638
  21 C :   -0.246024
  22 C :    0.203632
  23 C :   -0.245785
  24 C :    0.005163
  25 C :    0.202628
  26 H :    0.176802
  27 H :    0.177055
  28 H :    0.177003
  29 H :    0.176999
  30 H :    0.176919
  31 H :    0.176897
  32 Cd:    0.729310
  33 C :    0.051138
  34 C :   -0.236090
  35 C :   -0.138454
  36 C :   -0.131595
  37 C :   -0.138569
  38 C :   -0.236094
  39 H :    0.150954
  40 H :    0.143537
  41 H :    0.145231
  42 H :    0.143617
  43 H :    0.150913
  44 C :    0.052633
  45 C :   -0.236910
  46 C :   -0.138429
  47 C :   -0.131581
  48 C :   -0.138192
  49 C :   -0.237405
  50 H :    0.150993
  51 H :    0.143540
  52 H :    0.145222
  53 H :    0.143621
  54 H :    0.150886
  55 C :    0.048672
  56 C :   -0.234390
  57 C :   -0.139693
  58 C :   -0.130865
  59 C :   -0.139255
  60 C :   -0.234030
  61 H :    0.150818
  62 H :    0.143519
  63 H :    0.145266
  64 H :    0.143577
  65 H :    0.150762
  66 C :    0.048276
  67 C :   -0.233716
  68 C :   -0.139775
  69 C :   -0.130654
  70 C :   -0.139684
  71 C :   -0.232937
  72 H :    0.150833
  73 H :    0.143542
  74 H :    0.145207
  75 H :    0.143561
  76 H :    0.150681
Sum of atomic charges:   -0.0000000

--------------------------------
MULLIKEN REDUCED ORBITAL CHARGES
--------------------------------
  0 N s       :     3.617750  s :     3.617750
      pz      :     1.360472  p :     3.667548
      px      :     1.266847
      py      :     1.040230
      dz2     :     0.005642  d :     0.070621
      dxz     :     0.007080
      dyz     :     0.015547
      dx2y2   :     0.021218
      dxy     :     0.021133
      f0      :     0.000699  f :     0.003977
      f+1     :     0.000350
      f-1     :     0.000456
      f+2     :     0.000181
      f-2     :     0.000602
      f+3     :     0.000663
      f-3     :     0.001027

  1 H s       :     0.800416  s :     0.800416
      pz      :     0.004602  p :     0.022592
      px      :     0.008545
      py      :     0.009444

  2 C s       :     3.240699  s :     3.240699
      pz      :     0.989737  p :     2.913924
      px      :     0.942624
      py      :     0.981563
      dz2     :     0.005517  d :     0.083715
      dxz     :     0.009312
      dyz     :     0.019334
      dx2y2   :     0.019350
      dxy     :     0.030202
      f0      :     0.001478  f :     0.007639
      f+1     :     0.000772
      f-1     :     0.000663
      f+2     :     0.000917
      f-2     :     0.000416
      f+3     :     0.002197
      f-3     :     0.001194

  3 C s       :     3.240481  s :     3.240481
      pz      :     0.987941  p :     2.914376
      px      :     0.983865
      py      :     0.942569
      dz2     :     0.005139  d :     0.083724
      dxz     :     0.019869
      dyz     :     0.009187
      dx2y2   :     0.019238
      dxy     :     0.030291
      f0      :     0.001521  f :     0.007640
      f+1     :     0.000571
      f-1     :     0.000788
      f+2     :     0.000964
      f-2     :     0.000405
      f+3     :     0.001176
      f-3     :     0.002214

  4 N s       :     3.617740  s :     3.617740
      pz      :     1.362023  p :     3.668109
      px      :     1.037939
      py      :     1.268147
      dz2     :     0.005490  d :     0.070625
      dxz     :     0.015739
      dyz     :     0.007000
      dx2y2   :     0.021178
      dxy     :     0.021218
      f0      :     0.000704  f :     0.003977
      f+1     :     0.000443
      f-1     :     0.000356
      f+2     :     0.000178
      f-2     :     0.000597
      f+3     :     0.001035
      f-3     :     0.000664

  5 C s       :     3.240705  s :     3.240705
      pz      :     0.985349  p :     2.914107
      px      :     1.001308
      py      :     0.927450
      dz2     :     0.005386  d :     0.083707
      dxz     :     0.017767
      dyz     :     0.010983
      dx2y2   :     0.020694
      dxy     :     0.028877
      f0      :     0.001507  f :     0.007639
      f+1     :     0.000606
      f-1     :     0.000772
      f+2     :     0.001229
      f-2     :     0.000134
      f+3     :     0.001317
      f-3     :     0.002075

  6 H s       :     0.800309  s :     0.800309
      pz      :     0.004633  p :     0.022592
      px      :     0.006793
      py      :     0.011165

  7 C s       :     3.177408  s :     3.177408
      pz      :     0.939119  p :     2.443405
      px      :     0.834762
      py      :     0.669524
      dz2     :     0.003150  d :     0.162822
      dxz     :     0.028283
      dyz     :     0.034907
      dx2y2   :     0.051253
      dxy     :     0.045230
      f0      :     0.002174  f :     0.014533
      f+1     :     0.000937
      f-1     :     0.001166
      f+2     :     0.000701
      f-2     :     0.002266
      f+3     :     0.003385
      f-3     :     0.003904

  8 N s       :     3.617849  s :     3.617849
      pz      :     1.362174  p :     3.668164
      px      :     1.037869
      py      :     1.268121
      dz2     :     0.005478  d :     0.070627
      dxz     :     0.015755
      dyz     :     0.007010
      dx2y2   :     0.021170
      dxy     :     0.021215
      f0      :     0.000704  f :     0.003977
      f+1     :     0.000443
      f-1     :     0.000356
      f+2     :     0.000178
      f-2     :     0.000597
      f+3     :     0.001035
      f-3     :     0.000664

  9 C s       :     3.240669  s :     3.240669
      pz      :     0.988504  p :     2.913967
      px      :     1.000636
      py      :     0.924827
      dz2     :     0.005300  d :     0.083760
      dxz     :     0.017772
      dyz     :     0.011106
      dx2y2   :     0.020693
      dxy     :     0.028888
      f0      :     0.001510  f :     0.007640
      f+1     :     0.000611
      f-1     :     0.000768
      f+2     :     0.001228
      f-2     :     0.000132
      f+3     :     0.001316
      f-3     :     0.002076

 10 C s       :     3.412542  s :     3.412542
      pz      :     0.978503  p :     2.447642
      px      :     0.723320
      py      :     0.745819
      dz2     :     0.003742  d :     0.123718
      dxz     :     0.021749
[...]
  0-1A  -> 16-1A    5.042821   40673.1   245.9   0.205731836   0.05719   0.20427   0.12344  -0.01506
  0-1A  -> 17-1A    5.043104   40675.4   245.8   0.205717053   0.05719   0.12452  -0.20342   0.01736
  0-1A  -> 18-1A    5.076560   40945.2   244.2   0.001227293   0.00034  -0.00022  -0.00054   0.01852
  0-1A  -> 19-1A    5.081406   40984.3   244.0   0.000024292   0.00001   0.00192   0.00176  -0.00018
  0-1A  -> 20-1A    5.117163   41272.7   242.3   0.020460891   0.00577   0.06097   0.04503  -0.00518
  0-1A  -> 21-1A    5.117266   41273.5   242.3   0.020375964   0.00575   0.04490  -0.06090   0.00478
  0-1A  -> 22-1A    5.124572   41332.5   241.9   0.000156678   0.00004  -0.00376  -0.00547   0.00043
  0-1A  -> 23-1A    5.300159   42748.7   233.9   0.000086055   0.00003   0.00146  -0.00476   0.00056
  0-1A  -> 24-1A    5.312776   42850.4   233.4   0.003939219   0.00115   0.02938  -0.01693   0.00201
  0-1A  -> 25-1A    5.313315   42854.8   233.3   0.004011600   0.00117  -0.01738  -0.02940   0.00294
  0-1A  -> 26-1A    5.409503   43630.6   229.2   0.000024867   0.00001   0.00228  -0.00053  -0.00140
  0-1A  -> 27-1A    5.434675   43833.6   228.1   0.000009615   0.00000  -0.00026   0.00168  -0.00003
  0-1A  -> 28-1A    5.452977   43981.2   227.4   0.000002293   0.00000  -0.00004  -0.00004   0.00083
  0-1A  -> 29-1A    5.514948   44481.1   224.8   0.000075007   0.00002  -0.00051  -0.00467  -0.00085
  0-1A  -> 30-1A    5.534796   44641.1   224.0   0.030246517   0.00923  -0.00035   0.00794   0.09573

------------------------------------------------------------------------------------------
                     CD SPECTRUM VIA TRANSITION ELECTRIC DIPOLE MOMENTS    
------------------------------------------------------------------------------------------
     Transition      Energy     Energy  Wavelength    R        MX        MY        MZ   
                      (eV)      (cm-1)    (nm)   (1e40*cgs)   (au)      (au)      (au)  
------------------------------------------------------------------------------------------
  0-1A  ->  1-1A    2.077635   16757.3   596.8   -2.31260   0.00149   0.01183  -0.00105
  0-1A  ->  2-1A    2.077761   16758.3   596.7   -2.32953   0.01196  -0.00160   0.00005
  0-1A  ->  3-1A    3.153294   25433.0   393.2   -6.74838  -0.00028   0.00296  -0.00008
  0-1A  ->  4-1A    3.153463   25434.4   393.2   -9.77680   0.00375  -0.00382   0.00022
  0-1A  ->  5-1A    3.185857   25695.7   389.2   -1.72409  -0.16322   0.10268  -0.00919
  0-1A  ->  6-1A    3.185949   25696.4   389.2  -12.09635   0.10319   0.16250  -0.01595
  0-1A  ->  7-1A    4.128497   33298.6   300.3    4.89414   0.02387   0.14166   1.48816
  0-1A  ->  8-1A    4.169478   33629.1   297.4    0.00002  -0.00005   0.00045   0.00648
  0-1A  ->  9-1A    4.363677   35195.4   284.1   -5.97349   0.00047  -0.01040   0.00131
  0-1A  -> 10-1A    4.363878   35197.1   284.1   -5.98905  -0.01048  -0.00106   0.00012
  0-1A  -> 11-1A    4.453885   35923.0   278.4   -0.00046  -0.00025   0.00028  -0.00011
  0-1A  -> 12-1A    4.696902   37883.1   264.0   -0.00026   0.00013  -0.00018   0.00010
  0-1A  -> 13-1A    4.708154   37973.8   263.3   -0.00108   0.00007   0.00076   0.00004
  0-1A  -> 14-1A    4.944340   39878.8   250.8    0.00000   0.00000  -0.00006   0.00001
  0-1A  -> 15-1A    4.989467   40242.8   248.5   -0.00917  -0.00016   0.00094   0.00097
  0-1A  -> 16-1A    5.042821   40673.1   245.9  -35.70991  -0.05046  -0.02949   0.00628
  0-1A  -> 17-1A    5.043104   40675.4   245.8  -35.71815  -0.02994   0.05004  -0.00799
  0-1A  -> 18-1A    5.076560   40945.2   244.2   23.11636   0.00740   0.04784   0.49728
  0-1A  -> 19-1A    5.081406   40984.3   244.0   -0.00952  -0.00121  -0.00074   0.00087
  0-1A  -> 20-1A    5.117163   41272.7   242.3    3.98056   0.01706   0.01234  -0.00200
  0-1A  -> 21-1A    5.117266   41273.5   242.3    4.05793   0.01293  -0.01781  -0.00576
  0-1A  -> 22-1A    5.124572   41332.5   241.9    0.05268  -0.00135  -0.00287   0.00122
  0-1A  -> 23-1A    5.300159   42748.7   233.9    0.17033   0.00376  -0.01345   0.00204
  0-1A  -> 24-1A    5.312776   42850.4   233.4    9.85409   0.10478  -0.05943   0.01012
  0-1A  -> 25-1A    5.313315   42854.8   233.3    9.95961  -0.06104  -0.10418   0.00877
  0-1A  -> 26-1A    5.409503   43630.6   229.2    1.29739   0.00460  -0.02468  -0.23355
  0-1A  -> 27-1A    5.434675   43833.6   228.1    0.03928  -0.00469   0.00903  -0.00243
  0-1A  -> 28-1A    5.452977   43981.2   227.4    0.00144   0.00042  -0.00152   0.00075
  0-1A  -> 29-1A    5.514948   44481.1   224.8    0.05352   0.00146  -0.00517   0.00054
  0-1A  -> 30-1A    5.534796   44641.1   224.0  -59.05949  -0.01529  -0.02951  -0.26396

------------------------------------------------------------------------------------------
                     CD SPECTRUM VIA TRANSITION VELOCITY DIPOLE MOMENTS    
------------------------------------------------------------------------------------------
     Transition      Energy     Energy  Wavelength    R        MX        MY        MZ   
                      (eV)      (cm-1)    (nm)   (1e40*cgs)   (au)      (au)      (au)  
------------------------------------------------------------------------------------------
  0-1A  ->  1-1A    2.077635   16757.3   596.8   -2.28481   0.00149   0.01183  -0.00105
  0-1A  ->  2-1A    2.077761   16758.3   596.7   -2.30169   0.01196  -0.00160   0.00005
  0-1A  ->  3-1A    3.153294   25433.0   393.2   -6.72892  -0.00028   0.00296  -0.00008
  0-1A  ->  4-1A    3.153463   25434.4   393.2   -9.74867   0.00375  -0.00382   0.00022
  0-1A  ->  5-1A    3.185857   25695.7   389.2   -1.71531  -0.16322   0.10268  -0.00919
  0-1A  ->  6-1A    3.185949   25696.4   389.2  -12.05910   0.10319   0.16250  -0.01595
  0-1A  ->  7-1A    4.128497   33298.6   300.3    3.54871   0.02387   0.14166   1.48816
  0-1A  ->  8-1A    4.169478   33629.1   297.4   -0.00004  -0.00005   0.00045   0.00648
  0-1A  ->  9-1A    4.363677   35195.4   284.1   -5.94749   0.00047  -0.01040   0.00131
  0-1A  -> 10-1A    4.363878   35197.1   284.1   -5.96292  -0.01048  -0.00106   0.00012
  0-1A  -> 11-1A    4.453885   35923.0   278.4   -0.00046  -0.00025   0.00028  -0.00011
  0-1A  -> 12-1A    4.696902   37883.1   264.0   -0.00026   0.00013  -0.00018   0.00010
  0-1A  -> 13-1A    4.708154   37973.8   263.3   -0.00109   0.00007   0.00076   0.00004
  0-1A  -> 14-1A    4.944340   39878.8   250.8   -0.00000   0.00000  -0.00006   0.00001
  0-1A  -> 15-1A    4.989467   40242.8   248.5   -0.00913  -0.00016   0.00094   0.00097
  0-1A  -> 16-1A    5.042821   40673.1   245.9  -35.72189  -0.05046  -0.02949   0.00628
  0-1A  -> 17-1A    5.043104   40675.4   245.8  -35.73035  -0.02994   0.05004  -0.00799
  0-1A  -> 18-1A    5.076560   40945.2   244.2   23.20716   0.00740   0.04784   0.49728
  0-1A  -> 19-1A    5.081406   40984.3   244.0   -0.00955  -0.00121  -0.00074   0.00087
  0-1A  -> 20-1A    5.117163   41272.7   242.3    4.02653   0.01706   0.01234  -0.00200
  0-1A  -> 21-1A    5.117266   41273.5   242.3    4.10498   0.01293  -0.01781  -0.00576
  0-1A  -> 22-1A    5.124572   41332.5   241.9    0.05343  -0.00135  -0.00287   0.00122
  0-1A  -> 23-1A    5.300159   42748.7   233.9    0.17111   0.00376  -0.01345   0.00204
  0-1A  -> 24-1A    5.312776   42850.4   233.4    9.91121   0.10478  -0.05943   0.01012
  0-1A  -> 25-1A    5.313315   42854.8   233.3   10.01823  -0.06104  -0.10418   0.00877
  0-1A  -> 26-1A    5.409503   43630.6   229.2    0.82952   0.00460  -0.02468  -0.23355
  0-1A  -> 27-1A    5.434675   43833.6   228.1    0.03880  -0.00469   0.00903  -0.00243
  0-1A  -> 28-1A    5.452977   43981.2   227.4    0.00158   0.00042  -0.00152   0.00075
  0-1A  -> 29-1A    5.514948   44481.1   224.8    0.05340   0.00146  -0.00517   0.00054
  0-1A  -> 30-1A    5.534796   44641.1   224.0  -59.10283  -0.01529  -0.02951  -0.26396

Total run time:    36874.119 sec

           *** ORCA-CIS/TD-DFT FINISHED WITHOUT ERROR ***
-----------------------
CIS/TD-DFT TOTAL ENERGY
-----------------------

    E(SCF)  =  -2080.468320220 Eh
    DE(CIS) =      0.076351672 Eh (Root  1)
    ----------------------------- ---------
    E(tot)  =  -2080.391968548 Eh


Maximum memory used throughout the entire CIS-calculation: 2549.4 MB
=> NOW LEAVING ORCA_CIS


-------------------------------------------------------------------------------
                          DFT DISPERSION CORRECTION                            
                                                                               
                              DFTD3 V3.1  Rev 1                                
                              USING zero damping                               
-------------------------------------------------------------------------------
The omegaB97X-D3 functional is recognized. Fit by Chai et al.
Active option DFTDOPT                   ...         3   

molecular C6(AA) [au] = 89363.589905 


            DFT-D V3
 parameters
 s6 scaling factor         :     1.0000 
 rs6 scaling factor        :     1.2810 
 s8 scaling factor         :     1.0000 
 rs8 scaling factor        :     1.0940 
 Damping factor alpha6     :    14.0000 
 Damping factor alpha8     :    16.0000 
 ad hoc parameters k1-k3   :    16.0000     1.3333    -4.0000 

 Edisp/kcal,au: -29.353231341653  -0.046777346676 
 E6   /kcal   : -14.192395282 
 E8   /kcal   : -15.160836060 
 % E8         :  51.649632312 

-------------------------   ----------------
Dispersion correction           -0.046777347
-------------------------   ----------------


-------------------------   --------------------
FINAL SINGLE POINT ENERGY     -2080.438745894597
-------------------------   --------------------



           ************************************************************
           *        Program running with 8 parallel MPI-processes     *
           *              working on a common directory               *
           ************************************************************

------------------------------------------------------------------------------
                              ORCA PROPERTY CALCULATIONS
------------------------------------------------------------------------------

GBWName                                 ... tddft.gbw
Number of atoms                         ...     77
Number of basis functions               ...   1696
Max core memory                         ...   3000 MB

Electric properties:
Dipole moment                           ... YES
Quadrupole moment                       ...  NO
Static polarizability (Dipole/Dipole)   ...  NO
Static polarizability (Dipole/Quad.)    ...  NO
Static polarizability (Quad./Quad.)     ...  NO
Static polarizability (Velocity)        ...  NO
Static hyperpolarizability              ...  NO

Atomic electric properties:
Dipole moment                           ...  NO
Quadrupole moment                       ...  NO
Static polarizability                   ...  NO

Choice of electric origin               ... Center of mass
Position of electric origin             ...    -0.159974     5.088857     6.550132

General magnetic properties:
Magnetizability                         ...  NO

EPR properties:
g-Tensor (aka g-matrix)                 ...  NO
Zero-Field splitting spin-orbit         ...  NO
Zero-field splitting spin-spin          ...  NO
Hyperfine couplings                     ...  NO (   0 nuclei)
Quadrupole couplings                    ...  NO (   0 nuclei)
Contact density                         ...  NO (   0 nuclei)

NMR properties:
Chemical shifts                         ...  NO (   0 nuclei)
Spin-rotation constants                 ...  NO (   0 nuclei)
Spin-spin couplings                     ...  NO (   0 nuclei,    0 pairs)

Choice of magnetic origin               ... GIAO
Position of magnetic origin             ...     0.000000     0.000000     0.000000

Properties with geometric perturbations:
SCF Hessian                             ...  NO
IR spectrum                             ...  NO
VCD spectrum                            ...  NO
X-ray spectroscopy properties:
SCF XES/XAS/RIXS spectra                ...  NO

SCF SOC stabilization energy            ...  NO
Diagonal Born-Oppenheimer correction    ...  NO

-------------
DIPOLE MOMENT
-------------

Method             : SCF
Type of density    : Electron Density
Multiplicity       :   1
Irrep              :   0
Energy             : -2080.4683202203000292 Eh
Basis              : AO
                                X                 Y                 Z
Electronic contribution:     -0.029226898      -0.000317351       0.324501047
Nuclear contribution   :      0.030057604       0.000456680      -0.325649688
                        -----------------------------------------
Total Dipole Moment    :      0.000830706       0.000139329      -0.001148641
                        -----------------------------------------
Magnitude (a.u.)       :      0.001424382
Magnitude (Debye)      :      0.003620490



--------------------
Rotational spectrum 
--------------------
 
Rotational constants in cm-1:             0.001920             0.001920             0.000998 
Rotational constants in MHz :            57.569607            57.564626            29.904507 

Dipole components along the rotational axes: 
x,y,z [a.u.] :     0.000055     0.000882    -0.001117 
x,y,z [Debye]:     0.000139     0.002243    -0.002839 

 

Dipole moment calculation done in   2.4 sec 

Maximum memory used throughout the entire PROP-calculation: 230.8 MB

--------------------------------
SUGGESTED CITATIONS FOR THIS RUN
--------------------------------

Below you find a list of papers that are relevant to this ORCA run
We neither can nor want to force you to cite these papers, but we appreciate if you do
You receive ORCA, which is the product of decades of hard work by many enthusiastic individuals, for free
The only thing we kindly ask in return is that you cite our papers,
We deeply appreciate it, if you show your appreciation for ORCA by not just citing the generic ORCA reference.

Please note that relegating all ORCA citations to the supporting information does *not* help us.
SI sections are not indexed - citations you put there will not count into any citation statistics
But we need these citations in order to attract the funding resources that allow us to do what we are doing

Therefore, if you are a happy ORCA user, please consider citing a few of the papers listed below in the main body of your paper

In addition to the list printed below, the program has created the file tddft.bibtex that contains the list in bibtex format
You can import this file easily into all common literature databanks and citation aid programs

It goes without saying that in many instances, there are alternative algorithms to achieve similar
results as the ones you have gotten from ORCA. It is, of course, also the case that in some instances
ORCA just re-implements algorithms worked out by others. We are fully aware of that and we are also
fully appreciative of our colleagues work. Hence this citation list should not be read as indicating
that the listed papers, which are focused on our own work, are the only ones worth citing. It simply
meant to make it easier for users to cite ORCA specific papers. It is not a substitute for doing your
own literature research and citing the relevant literature in a scientifically appropriate manner.

List of essential papers. We consider these as the minimum necessary citations

  1. Neese, F.
     Software update: the ORCA program system, version 6.0
     WIRES Comput. Molec. Sci. 2025 15(1), e70019
     doi.org/10.1002/wcms.70019

List of papers to cite with high priority. The work reported in these papers was absolutely
necessary for this run to complete.
Our perspective: the developers of density functionals and basis sets usually get cited in chemistry papers
Good! But without the algorithms to do something with them, the functionals or basis sets would not do anything.
Hence, in our opinion, the algorithm design and method developments papers are equally worthy of getting cited

  1. Neese, F.; Olbrich, G.
     Efficient use of the resolution of the identity approximation in time-dependent density functional calculations with hybrid density functionals
     Chem. Phys. Lett. 2002 362 , 170-178
     doi.org/10.1016/s0009-2614(02)01053-9
  2. Neese, F.
     An improvement of the resolution of the identity approximation for the formation of the Coulomb matrix
     J. Comp. Chem. 2003 24(14), 1740-1747
     doi.org/10.1002/jcc.10318
  3. Neese, F.; Wennmohs, F.; Hansen, A.; Becker, U.
     Efficient, approximate and parallel Hartree-Fock and hybrid DFT calculations. A 'chain-of-spheres' algorithm for the Hartree-Fock exchange
     Chem. Phys. 2009 356(1-3), 98-109
     doi.org/10.1016/j.chemphys.2008.10.036
  4. Grimme, S.; Antony, J.; Ehrlich, S.; Krieg, H.
     A consistent and accurate ab initio parametrization of density functional dispersion correction (DFT-D) for the 94 elements H-Pu
     J. Chem. Phys. 2010 132 , 154104
     doi.org/10.1063/1.3382344
  5. Garcia-Rates, M.; Neese, F.
     Effect of the Solute Cavity on the Solvation Energy and its Derivatives within the Framework of the Gaussian Charge Scheme
     J. Comput. Chem. 2020 41 , 922-939
     doi.org/10.1002/jcc.26139
  6. Helmich-Paris, B.; de Souza, B.; Neese, F.; Izsák, R.
     An improved chain of spheres for exchange algorithm
     J. Chem. Phys. 2021 155(10), 104109
     doi.org/10.1063/5.0058766
  7. Neese, F.
     The SHARK Integral Generation and Digestion System
     J. Comp. Chem. 2022 44(3), 381
     doi.org/10.1002/jcc.26942

List of suggested additional citations. These are papers that are important in the 'surrounding' of 
of this run, or papers that preceded the highly important papers. If you like your results we are grateful for a citation.

  1. Izsak, R.; Neese, F.
     An overlap fitted chain of spheres exchange method
     J. Chem. Phys. 2011 135 , 144105
     doi.org/10.1063/1.3646921
  2. Izsak, R.; Hansen, A.; Neese, F.
     The resolution of identity and chain of spheres approximations for the LPNO-CCSD singles Fock term
     Molec. Phys. 2012 110 , 2413-2417
     doi.org/10.1080/00268976.2012.687466
  3. Neese, F.
     The ORCA program system
     WIRES Comput. Molec. Sci. 2012 2(1), 73-78
     doi.org/10.1002/wcms.81
  4. Izsak, R.; Neese, F.; Klopper, W.
     Robust fitting techniques in the chain of spheres approximation to the Fock exchange: The role of the complementary space
     J. Chem. Phys. 2013 139 , 
     doi.org/10.1063/1.4819264
  5. Neese, F.
     Software update: the ORCA program system, version 4.0
     WIRES Comput. Molec. Sci. 2018 8(1), 1-6
     doi.org/10.1002/wcms.1327
  6. Neese, F.; Wennmohs, F.; Becker, U.; Riplinger, C.
     The ORCA quantum chemistry program package
     J. Chem. Phys. 2020 152(22), 224108
     doi.org/10.1063/5.0004608
  7. Neese, F.
     Software update: The ORCA program system—Version 5.0
     WIRES Comput. Molec. Sci. 2022 12(1), e1606
     doi.org/10.1002/wcms.1606

List of optional additional citations

  1. Neese, F.
     Approximate second-order SCF convergence for spin unrestricted wavefunctions
     Chem. Phys. Lett. 2000 325(1-3), 93-98
     doi.org/10.1016/s0009-2614(00)00662-x

Timings for individual modules:

Sum of individual times          ...    42193.387 sec (= 703.223 min)
Startup calculation              ...       79.683 sec (=   1.328 min)   0.2 %
SCF iterations                   ...     5215.426 sec (=  86.924 min)  12.4 %
Property integrals               ...       13.746 sec (=   0.229 min)   0.0 %
Property calculations            ...        9.116 sec (=   0.152 min)   0.0 %
CIS module                       ...    36875.417 sec (= 614.590 min)  87.4 %
                             ****ORCA TERMINATED NORMALLY****
TOTAL RUN TIME: 0 days 11 hours 43 minutes 14 seconds 489 msec
