
                                 *****************
                                 * O   R   C   A *
                                 *****************

                                            #,                                       
                                            ###                                      
                                            ####                                     
                                            #####                                    
                                            ######                                   
                                           ########,                                 
                                     ,,################,,,,,                         
                               ,,#################################,,                 
                          ,,##########################################,,             
                       ,#########################################, ''#####,          
                    ,#############################################,,   '####,        
                  ,##################################################,,,,####,       
                ,###########''''           ''''###############################       
              ,#####''   ,,,,##########,,,,          '''####'''          '####       
            ,##' ,,,,###########################,,,                        '##       
           ' ,,###''''                  '''############,,,                           
         ,,##''                                '''############,,,,        ,,,,,,###''
      ,#''                                            '''#######################'''  
     '                                                          ''''####''''         
             ,#######,   #######,   ,#######,      ##                                
            ,#'     '#,  ##    ##  ,#'     '#,    #''#        ,####,    ,#,          
            ##       ##  ##   ,#'  ##            #'  '#       #'       ,# #          
            ##       ##  #######   ##           ,######,      #####,      #          
            '#,     ,#'  ##    ##  '#,     ,#' ,#      #,     #,   #      #          
             '#######'   ##     ##  '#######'  #'      '#     '####' #    #          



                #########################################################
                #                        -***-                          #
                #          Department of theory and spectroscopy        #
                #                                                       #
                #                      Frank Neese                      #
                #                                                       #
                #     Directorship, Architecture, Infrastructure        #
                #                    SHARK, DRIVERS                     #
                #        Core code/Algorithms in most modules           #
                #                                                       #
                #        Max Planck Institute fuer Kohlenforschung      #
                #                Kaiser Wilhelm Platz 1                 #
                #                 D-45470 Muelheim/Ruhr                 #
                #                      Germany                          #
                #                                                       #
                #                  All rights reserved                  #
                #                        -***-                          #
                #########################################################


                         Program Version 6.1.1  -  RELEASE   -
                                (GIT: $487d211c$)
                          ($2025-11-21 10:33:24 +0100$)


 With contributions from (in alphabetic order):
[Max-Planck-Institut fuer Kohlenforschung]                               
  Daniel Aravena         : Magnetic Suceptibility                        
  Michael Atanasov       : Ab Initio Ligand Field Theory (pilot matlab implementation)
  Alexander A. Auer      : GIAO ZORA, VPT2 properties, NMR spectrum      
  Ute Becker             : All parallelization in ORCA, NUMFREQ, NUMCALC 
  Giovanni Bistoni       : ED, misc. LED, open-shell LED, HFLD           
  Dmytro Bykov           : pre 5.0 version of the SCF Hessian            
  Marcos Casanova-Páez   : Triplet and SCS-CIS(D). UHF-(DLPNO)-IP/EA/STEOM-CCSD. UHF-CVS-IP/STEOM-CCSD   
  Vijay G. Chilkuri      : MRCI spin determinant printing, contributions to CSF-ICE 
  Pauline Colinet        : FMM embedding                                 
  Dipayan Datta          : RHF DLPNO-CCSD density                        
  Achintya Kumar Dutta   : EOM-CC, STEOM-CC                              
  Nicolas Foglia         : Exact transition moments, OPA infrastructure, MCD improvements    
  Dmitry Ganyushin       : Spin-Orbit,Spin-Spin,Magnetic field MRCI      
  Miquel Garcia-Rates    : C-PCM and meta-GGA Hessian, CCSD/C-PCM, Gaussian charge scheme 
  Tiago L. C. Gouveia    : GS-ROHF, GS-ROCIS                             
  Yang Guo               : DLPNO-NEVPT2, F12-NEVPT2, CIM, IAO-localization        
  Andreas Hansen         : Spin unrestricted coupled pair/coupled cluster methods 
  Ingolf Harden          : AUTO-CI MPn and infrastructure                
  Benjamin Helmich-Paris : MC-RPA, TRAH-(SCF,CASSCF), AVAS, COSX integrals, SCF dyn. polar., MC-PDFT, srDFT 
  Lee Huntington         : MR-EOM, pCC                                   
  Robert Izsak           : Overlap fitted RIJCOSX, COSX-SCS-MP3, EOM     
  Riya Kayal             : Wick's Theorem for AUTO-CI, AUTO-CI UHF-CCSDT 
  Emily Kempfer          : AUTO-CI RHF CISDT and CCSDT, approximate NEVPT4
  Christian Kollmar      : KDIIS, OOCD, Brueckner-CCSD(T), CCSD density, CASPT2, CASPT2-K, improved NEVPT2 
  Axel Koslowski         : Symmetry handling                             
  Simone Kossmann        : meta-GGA functionals, TD-DFT gradient, OOMP2, (MP2 Hessian; deprecated post 5.0) 
  Lucas Lang             : DCDCAS, Hyperfine gauge corrections, ICE-SOC+SSC
  Marvin Lechner         : AUTO-CI (C++ implementation), FIC-MRCC        
  Spencer Leger          : CASSCF response                               
  Dagmar Lenk            : GEPOL surface, SMD, ORCA-2-JSON               
  Dimitrios Liakos       : Extrapolation schemes; Compound Job, Property file
  Dimitrios Manganas     : Further ROCIS development; embedding schemes. LFT, Crystal Embedding 
  Dimitrios Pantazis     : SARC Basis sets                               
  Anastasios Papadopoulos: AUTO-CI, single reference methods and gradients 
  Taras Petrenko         : pre 6.0 DFT Hessian and TD-DFT gradient,  ECA, NRVS 
  Petra Pikulova         : Analytic Raman intensities                    
  Peter Pinski           : DLPNO-MP2, DLPNO-MP2 Gradient                 
  Shashank Vittal Rao    : ES-AILFT, MagRelax                            
  Christoph Reimann      : Effective Core Potentials                     
  Marius Retegan         : Local ZFS, SOC                                
  Christoph Riplinger    : Optimizer, TS searches, QM/MM, DLPNO-CCSD(T), (RO)-DLPNO pert. Triples 
  Michael Roemelt        : Original ROCIS implementation, recursive CI coupling coefficients
  Masaaki Saitow         : Open-shell DLPNO-CCSD energy and density      
  Barbara Sandhoefer     : DKH picture change effects                    
  Yorick L. A. Schmerwitz: GMF and freeze-and-release deltaSCF, NEB S-IDPP initial path                    
  Kantharuban Sivalingam : CASSCF convergence/infrastructure, NEVPT2, NEVPT3, NEVPT4(SD), FIC-MRCI and CEPA variants
  Bernardo de Souza      : ESD, SOC TD-DFT                               
  Georgi L. Stoychev     : AutoAux, RI-MP2 NMR, DLPNO-MP2 response, X2C  
  Van Anh Tran           : RI-MP2 g-tensors                              
  Willem Van den Heuvel  : Paramagnetic NMR                              
  Zikuan Wang            : NOTCH, Electric field optimization            
  Frank Wennmohs         : Technical directorship and infrastructure     
  Hang Xu                : AUTO-CI-Response properties                   
                                                                         
[FACCTs GmbH]                                                            
  Markus Bursch, Nicolas Foglia, Miquel Garcia-Rates, Ingolf Harden, Hagen Neugebauer, Anastasios Papadopoulos, 
  Christoph Riplinger, Bernardo de Souza, Georgi L. Stoychev                                                    
                                                                 
  APM, various basis sets, CI-OPT, improved COSX, DLPNO-Multilevel,           
  DOCKER, DRACO, updates on ESD, Fragmentator, GOAT, IRC, LR-CPCM, L-BFGS, MBIS, meta-GGA TD-DFT gradient, ML-optimized integration grids, 
  MM, NACMEs, nearIR, NEB, NEB-TS, NL-DFT gradient (VV10), 2- and 3-layer-ONIOM, interface openCOSMO-RS, QMMM,   
  Crystal-QMMM, RESP, rigid body optimization, SF, symmetry and pop. for TD-DFT, various functionals, SOLVATOR                                   
                                                                         
[Other institutions]                                                     
  V. Asgeirsson          : NEB                                           
  Christoph Bannwarth    : sTDA-DFT, sTD-DFT, PBEh-3c, B97-3c, D3        
  Giovanni Bistoni       : ETS/NOCV, ADLD/ADEX, COVALED                  
  Martin Brehm           : Molecular dynamics                            
  Ronald Cardenas        : ETS/NOCV                                      
  Martina Colucci        : COVALED                                       
  Sebastian Ehlert       : rSCAN, r2SCAN, r2SCAN-3c, D4, dhf basis sets  
  Marvin Friede          : D4 for Fr, Ra, Ac-Lr                          
  Lars Goerigk           : TD-DFT with DH, B97 family of functionals     
  Stefan Grimme          : VdW corrections, initial TS optimization, DFT functionals, gCP, sTDA/sTD-DF 
  Waldemar Hujo          : DFT-NL                                        
  H. Jonsson             : NEB                                           
  Holger Kruse           : gCP                                           
  Marcel Mueller         : wB97X-3c, vDZP basis set                      
  Hagen Neugebauer       : wr2SCAN, Native XTB                           
  Gianluca Regni         : ADLD/ADEX                                     
  Tobias Risthaus        : pre 6.0 range-separated hybrid DFT and stability analysis
  Lukas Wittmann         : regularized MP2, r2SCAN double-hybrids, wr2SCAN        
                                                                         
We gratefully acknowledge several colleagues who have allowed us to      
interface, adapt or use parts of their codes:                            
  Ed Valeev, F. Pavosevic, A. Kumar             : LibInt (2-el integral package), F12 methods 
  Garnet Chan, S. Sharma, J. Yang, R. Olivares  : DMRG                   
  Ulf Ekstrom                                   : XCFun DFT Library      
  Mihaly Kallay                                 : mrcc  (arbitrary order and MRCC methods)
  Frank Weinhold                                : gennbo (NPA and NBO analysis)           
  Simon Mueller                                 : openCOSMO-RS                            
  Christopher J. Cramer and Donald G. Truhlar   : smd solvation model                     
  S Lehtola, MJT Oliveira, MAL Marques          : LibXC Library                           
  Liviu Ungur et al                             : ANISO software                          


 Your calculation uses the libint2 library for the computation of 2-el integrals
 For citations please refer to: http://libint.valeyev.net

 Your ORCA version has been built with support for libXC version: 7.0.0
 For citations please refer to: https://libxc.gitlab.io

 This ORCA versions uses:
   CBLAS   interface :  Fast vector & matrix operations
   LAPACKE interface :  Fast linear algebra routines
   SCALAPACK package :  Parallel linear algebra routines
   Shared memory     :  Shared parallel matrices
   BLAS/LAPACK       :  OpenBLAS 0.3.29  USE64BITINT DYNAMIC_ARCH NO_AFFINITY Haswell SINGLE_THREADED
        Core in use  :  Haswell
   Copyright (c) 2011-2014, The OpenBLAS Project


  ***********************************
  * Starting time: Sun Jun 14 19:13:06 2026
  * Host name:     steezy
  * Process ID:    2915826
  * Working dir.:  /home/jannes/mgtpp/04_tddft_tda_comparison/runs/tdaoff_pbe0
  ***********************************

NOTE: MaxCore=3000 MB was set to SCF,MP2,MDCI,CIPSI,MRCI,RASCI and CIS
      => If you want to overwrite this, your respective input block should be placed after the MaxCore statement


***************************************
The coordinates will be read from file: /home/jannes/mgtpp/01_opt/mgtpp_opt_b3lyp_tzvp.xyz
***************************************


================================================================================

----- Orbital basis set information -----
Your calculation utilizes the basis: def2-TZVP
   F. Weigend and R. Ahlrichs, Phys. Chem. Chem. Phys. 7, 3297 (2005).

----- AuxJ basis set information -----
Your calculation utilizes the auxiliary basis: def2/J
   H-Rn: F. Weigend, Phys. Chem. Chem. Phys. 8, 1057 (2006).
   Fr-Lr: K. Eichkorn, F. Weigend, O. Treutler, R. Ahlrichs; Theor. Chem. Acc. 97, 119 (1997).

================================================================================
                                        WARNINGS
                       Please study these warnings very carefully!
================================================================================


WARNING: CIS/ROCIS methods need fully converged wavefunctions
  ===> : Setting SCFConvForced true
         You can overwrite this default with %scf ConvForced false 


================================================================================
                                       INPUT FILE
================================================================================
NAME = tddft.inp
|  1> %pal nprocs 8 end
|  2> %maxcore 3000
|  3> ! PBE0 def2-TZVP def2/J RIJCOSX DefGrid3 TightSCF CPCM(Toluene)
|  4> %tddft
|  5>   nroots 30
|  6>   triplets false
|  7>   tda false
|  8> end
|  9> * xyzfile 0 1 /home/jannes/mgtpp/01_opt/mgtpp_opt_b3lyp_tzvp.xyz
| 10> 
| 11>                          ****END OF INPUT****
================================================================================

                       ****************************
                       * Single Point Calculation *
                       ****************************

---------------------------------
CARTESIAN COORDINATES (ANGSTROEM)
---------------------------------
  N     -2.132782    2.520982    3.513584
  H      1.679617   -2.258823    3.910366
  C     -4.375479    3.011680    3.504687
  C     -0.398226   -1.579010    3.872638
  N      0.090830    0.653535    3.656021
  C      0.954286   -1.465385    3.843438
  H     -0.977688   -2.482435    3.962791
  C      2.868723    1.838465    3.504305
  N     -0.260569    4.732470    3.276338
  C     -1.123876    6.851501    3.089028
  C      2.556883    0.474350    3.636098
  C      2.680107    4.027385    3.292968
  N      1.962924    2.864942    3.418265
  C      4.089820    3.721502    3.302785
  C     -0.939102   -0.246509    3.759221
  C      1.259741   -0.062511    3.703416
  C     -2.850174    1.358051    3.633086
  C     -3.038341    3.548279    3.434420
  C     -4.259729    1.665028    3.631888
  C     -2.309465    0.065876    3.749063
  C     -2.726504    4.911917    3.298069
  C      4.205746    2.374704    3.428271
  C     -1.429470    5.448150    3.224446
  C      0.228548    6.964522    3.054127
  C      2.139518    5.319764    3.180041
  C      0.769411    5.632748    3.175667
  H     -5.283234    3.589919    3.462669
  H     -5.055915    0.944668    3.717118
  H      5.113506    1.796209    3.466048
  H      4.885916    4.442736    3.224054
  H      0.808093    7.867022    2.955342
  H     -1.849084    7.645562    3.028370
  Mg    -0.084919    2.692996    3.466091
  C      3.703495   -0.488201    3.711904
  C      4.101097   -1.215525    2.587737
  C      5.165592   -2.108030    2.657336
  C      5.849374   -2.288349    3.854678
  C      5.462233   -1.570166    4.980745
  C      4.398318   -0.677200    4.908689
  H      3.572273   -1.076734    1.652653
  H      5.461204   -2.660972    1.774105
  H      6.677910   -2.983489    3.909795
  H      5.987070   -1.705473    5.918549
  H      4.098897   -0.121111    5.788694
  C     -3.274743   -1.074068    3.873336
  C     -3.919889   -1.589806    2.746971
  C     -4.815224   -2.648008    2.861564
  C     -5.081050   -3.207004    4.106767
  C     -4.445489   -2.701389    5.235531
  C     -3.549452   -1.644091    5.118594
  H     -3.714517   -1.158773    1.774687
  H     -5.303562   -3.036316    1.976146
  H     -5.778536   -4.030491    4.196889
  H     -4.647956   -3.128218    6.210244
  H     -3.058018   -1.252160    6.000733
  C     -3.872844    5.874939    3.223553
  C     -4.310229    6.369574    1.992756
  C     -5.373793    7.263047    1.921894
  C     -6.016961    7.677520    3.083040
  C     -5.590067    7.192252    4.314284
  C     -4.527122    6.297837    4.382858
  H     -3.813083    6.048242    1.085609
  H     -5.700324    7.633616    0.957908
  H     -6.844813    8.373553    3.028823
  H     -6.083198    7.510781    5.224553
  H     -4.196875    5.923693    5.344245
  C      3.105171    6.459067    3.051802
  C      3.692305    6.761120    1.820939
  C      4.588737    7.817613    1.699925
  C      4.913564    8.589219    2.810246
  C      4.335714    8.297774    4.041028
  C      3.438490    7.241601    4.159639
  H      3.440981    6.163649    0.953078
  H      5.031793    8.038132    0.736437
  H      5.611836    9.411705    2.717096
  H      4.584023    8.891578    4.912210
  H      2.992103    7.017052    5.120716

----------------------------
CARTESIAN COORDINATES (A.U.)
----------------------------
  NO LB      ZA    FRAG     MASS         X           Y           Z
   0 N     7.0000    0    14.007   -4.030373    4.763966    6.639711
   1 H     1.0000    0     1.008    3.174016   -4.268557    7.389520
   2 C     6.0000    0    12.011   -8.268457    5.691251    6.622899
   3 C     6.0000    0    12.011   -0.752537   -2.983896    7.318226
   4 N     7.0000    0    14.007    0.171644    1.235003    6.908878
   5 C     6.0000    0    12.011    1.803339   -2.769176    7.263045
   6 H     1.0000    0     1.008   -1.847562   -4.691123    7.488589
   7 C     6.0000    0    12.011    5.421100    3.474195    6.622177
   8 N     7.0000    0    14.007   -0.492404    8.943073    6.191381
   9 C     6.0000    0    12.011   -2.123818   12.947460    5.837416
  10 C     6.0000    0    12.011    4.831809    0.896392    6.871230
  11 C     6.0000    0    12.011    5.064669    7.610655    6.222807
  12 N     7.0000    0    14.007    3.709389    5.413957    6.459585
  13 C     6.0000    0    12.011    7.728640    7.032619    6.241359
  14 C     6.0000    0    12.011   -1.774645   -0.465835    7.103898
  15 C     6.0000    0    12.011    2.380565   -0.118129    6.998441
  16 C     6.0000    0    12.011   -5.386048    2.566345    6.865537
  17 C     6.0000    0    12.011   -5.741633    6.705275    6.490113
  18 C     6.0000    0    12.011   -8.049721    3.146447    6.863274
  19 C     6.0000    0    12.011   -4.364257    0.124488    7.084702
  20 C     6.0000    0    12.011   -5.152345    9.282177    6.232447
  21 C     6.0000    0    12.011    7.947708    4.487541    6.478494
  22 C     6.0000    0    12.011   -2.701306   10.295511    6.093319
  23 C     6.0000    0    12.011    0.431893   13.161039    5.771463
  24 C     6.0000    0    12.011    4.043102   10.052896    6.009407
  25 C     6.0000    0    12.011    1.453976   10.644352    6.001141
  26 H     1.0000    0     1.008   -9.983866    6.783964    6.543496
  27 H     1.0000    0     1.008   -9.554295    1.785164    7.024335
  28 H     1.0000    0     1.008    9.663125    3.394342    6.549882
  29 H     1.0000    0     1.008    9.233044    8.395555    6.092579
  30 H     1.0000    0     1.008    1.527075   14.866517    5.584787
  31 H     1.0000    0     1.008   -3.494263   14.448018    5.722789
  32 Mg   12.0000    0    24.305   -0.160474    5.089025    6.549963
  33 C     6.0000    0    12.011    6.998591   -0.922565    7.014483
  34 C     6.0000    0    12.011    7.749950   -2.297008    4.890114
  35 C     6.0000    0    12.011    9.761555   -3.983599    5.021637
  36 C     6.0000    0    12.011   11.053714   -4.324353    7.284286
  37 C     6.0000    0    12.011   10.322124   -2.967184    9.412244
  38 C     6.0000    0    12.011    8.311617   -1.279722    9.276078
  39 H     1.0000    0     1.008    6.750618   -2.034732    3.123061
  40 H     1.0000    0     1.008   10.320181   -5.028509    3.352573
  41 H     1.0000    0     1.008   12.619421   -5.637977    7.388441
  42 H     1.0000    0     1.008   11.313922   -3.222877   11.184437
  43 H     1.0000    0     1.008    7.745793   -0.228867   10.939046
  44 C     6.0000    0    12.011   -6.188368   -2.029695    7.319544
  45 C     6.0000    0    12.011   -7.407517   -3.004298    5.191024
  46 C     6.0000    0    12.011   -9.099455   -5.004009    5.407573
  47 C     6.0000    0    12.011   -9.601794   -6.060359    7.760665
  48 C     6.0000    0    12.011   -8.400756   -5.104886    9.893719
  49 C     6.0000    0    12.011   -6.707493   -3.106883    9.672741
  50 H     1.0000    0     1.008   -7.019420   -2.189764    3.353672
  51 H     1.0000    0     1.008  -10.022280   -5.737807    3.734374
  52 H     1.0000    0     1.008  -10.919851   -7.616524    7.930970
  53 H     1.0000    0     1.008   -8.783365   -5.911476   11.735661
  54 H     1.0000    0     1.008   -5.778817   -2.366239   11.339742
  55 C     6.0000    0    12.011   -7.318615   11.102027    6.091633
  56 C     6.0000    0    12.011   -8.145153   12.036751    3.765764
  57 C     6.0000    0    12.011  -10.154997   13.725171    3.631853
  58 C     6.0000    0    12.011  -11.370408   14.508411    5.826101
  59 C     6.0000    0    12.011  -10.563696   13.591387    8.152815
  60 C     6.0000    0    12.011   -8.555020   11.901188    8.282401
  61 H     1.0000    0     1.008   -7.205683   11.429521    2.051503
  62 H     1.0000    0     1.008  -10.772052   14.425444    1.810183
  63 H     1.0000    0     1.008  -12.934822   15.823721    5.723646
  64 H     1.0000    0     1.008  -11.495578   14.193319    9.872973
  65 H     1.0000    0     1.008   -7.930944   11.194158   10.099160
  66 C     6.0000    0    12.011    5.867923   12.205869    5.767071
  67 C     6.0000    0    12.011    6.977445   12.776665    3.441075
  68 C     6.0000    0    12.011    8.671457   14.773148    3.212392
  69 C     6.0000    0    12.011    9.285290   16.231272    5.310596
  70 C     6.0000    0    12.011    8.193312   15.680520    7.636437
  71 C     6.0000    0    12.011    6.497804   13.684643    7.860578
  72 H     1.0000    0     1.008    6.502511   11.647608    1.801056
  73 H     1.0000    0     1.008    9.508710   15.189868    1.391664
  74 H     1.0000    0     1.008   10.604834   17.785546    5.134567
  75 H     1.0000    0     1.008    8.662547   16.802648    9.282732
  76 H     1.0000    0     1.008    5.654254   13.260307    9.676751

--------------------------------
INTERNAL COORDINATES (ANGSTROEM)
--------------------------------
 N      0   0   0     0.000000000000     0.00000000     0.00000000
 H      1   0   0     6.126855329357     0.00000000     0.00000000
 C      1   2   0     2.295769133195   140.79213807     0.00000000
 C      2   1   3     2.186549708108    33.38660231     0.36505468
 N      4   2   1     2.295725821932    95.82788655     0.09095297
 C      2   1   3     1.077092693640     3.85150056     2.09162491
 H      4   2   1     1.077070819340   104.41978534   179.96288643
 C      5   4   2     3.023865266525   125.55676336     0.11166825
 N      1   2   6     2.907257362329   101.42052387   181.91422582
 C      9   1   2     2.295795178635   117.81429197   180.02242555
 C      8   5   4     1.405496899374    53.92458718     0.03779823
 C      8   5   4     2.207172589612   108.35589016   179.76307688
 N     12   8   5     1.371613516291    36.43262200     0.17329619
 C     12   8   5     1.442550076138    72.87533357   180.07415276
 C      5   4   2     1.371674426107    36.37427985   180.37251744
 C      5   4   2     1.371612574923    70.76800154     0.23219254
 C      1   2   6     1.371619575259    70.02341670     1.85612268
 C      1   2   6     1.371730087584   177.15630369     5.97587101
 C      3   1   2     1.357589890726    72.80216719   359.95304185
 C     17   1   2     1.405536565970   125.83487943     0.09366032
 C     18   1  17     1.405469067731   125.85546027   180.26559898
 C     14  12   8     1.357589360726   107.12361011     0.19983052
 C      9   1   2     1.371575077204    81.44175047   179.94495588
 C     10   9   1     1.357587276934    72.80232389   180.16933284
 C     12   8   5     1.405429467262   162.27344014     0.83813114
 C      9   1   2     1.371675707321   171.41952863     0.03824775
 H      3   1   2     1.077100496928   159.74999488   180.25953249
 H     19   3   1     1.077077338377   127.43130158   179.82791890
 H     22  14  12     1.077084983978   127.44744025   179.69739367
 H     14  12   8     1.077101086105   125.43663657   180.20366353
 H     24  10   9     1.077096534207   127.45443232   179.85753388
 H     10   9   1     1.077097541933   159.75828880     0.53310854
 Mg    13  12   8     2.055606050552   126.43550651   180.06019481
 C     11   8   5     1.498989282988   117.27452497   180.13304197
 C     34  11   8     1.396724581542   120.75894288   260.01689972
 C     35  34  11     1.390884488100   120.77967458   179.95157356
 C     36  35  34     1.390575596770   120.17416869     0.06383067
 C     37  36  35     1.390572269206   119.56359354   359.96393605
 C     38  37  36     1.390861247794   120.17158367   359.97314775
 H     35  34  11     1.083189366330   119.28215266     0.12320002
 H     36  35  34     1.083156650446   119.71220349   180.18132819
 H     37  36  35     1.082926322306   120.21696134   179.96439740
 H     38  37  36     1.083161349761   120.11258722   179.85120178
 H     39  38  37     1.083188138256   119.93128689   179.88961748
 C     20  17   1     1.498892464170   117.27635023   179.83555470
 C     45  20  17     1.396744746557   120.75805895    79.50356453
 C     46  45  20     1.390880167394   120.78473073   179.96907332
 C     47  46  45     1.390564385753   120.17705909     0.07442139
 C     48  47  46     1.390572934770   119.56006095   359.97047586
 C     49  48  47     1.390839370010   120.17276971   359.96185086
 H     46  45  20     1.083191573814   119.29758564     0.15759396
 H     47  46  45     1.083154294075   119.71071430   180.18273845
 H     48  47  46     1.082930826873   120.22050345   179.95838139
 H     49  48  47     1.083163400019   120.11519157   179.83114167
 H     50  49  48     1.083183905041   119.92580323   179.88660474
 C     21  18   1     1.499020289368   117.28798408   179.72398695
 C     56  21  18     1.396721410460   120.71653922   260.55104232
 C     57  56  21     1.390856932927   120.78737548   179.99292393
 C     58  57  56     1.390579796248   120.17255169     0.05877075
 C     59  58  57     1.390570153966   119.55994938   359.96611660
 C     60  59  58     1.390875025766   120.17707541   359.97196552
 H     57  56  21     1.083201529200   119.28811259     0.14261226
 H     58  57  56     1.083149767515   119.71220131   180.16232012
 H     59  58  57     1.082931272380   120.22123367   179.96845591
 H     60  59  58     1.083156416554   120.11314103   179.86695053
 H     61  60  59     1.083195532775   119.92563663   179.89758366
 C     25  12   8     1.498981196444   117.25803690   179.52387829
 C     67  25  12     1.396777768498   120.69986376    80.52329734
 C     68  67  25     1.390831652439   120.78822075   180.01410426
 C     69  68  67     1.390576172584   120.17081329     0.05908974
 C     70  69  68     1.390566770699   119.56087131   359.96273928
 C     71  70  69     1.390892103912   120.17793429   359.97535578
 H     68  67  25     1.083198152583   119.28960554     0.16639622
 H     69  68  67     1.083159804820   119.71470417   180.16298856
 H     70  69  68     1.082933302780   120.22323348   179.96819721
 H     71  70  69     1.083152161424   120.11387427   179.86380867
 H     72  71  70     1.083214366481   119.92750176   179.89120147

---------------------------
INTERNAL COORDINATES (A.U.)
---------------------------
 N      0   0   0     0.000000000000     0.00000000     0.00000000
 H      1   0   0    11.578078634640     0.00000000     0.00000000
 C      1   2   0     4.338374928449   140.79213807     0.00000000
 C      2   1   3     4.131980126529    33.38660231     0.36505468
 N      4   2   1     4.338293082022    95.82788655     0.09095297
 C      2   1   3     2.035410211826     3.85150056     2.09162491
 H      4   2   1     2.035368875391   104.41978534   179.96288643
 C      5   4   2     5.714277219608   125.55676336     0.11166825
 N      1   2   6     5.493920215627   101.42052387   181.91422582
 C      9   1   2     4.338424147198   117.81429197   180.02242555
 C      8   5   4     2.656004221892    53.92458718     0.03779823
 C      8   5   4     4.170951724664   108.35589016   179.76307688
 N     12   8   5     2.591973907374    36.43262200     0.17329619
 C     12   8   5     2.726024578368    72.87533357   180.07415276
 C      5   4   2     2.592089010246    36.37427985   180.37251744
 C      5   4   2     2.591972128447    70.76800154     0.23219254
 C      1   2   6     2.591985357166    70.02341670     1.85612268
 C      1   2   6     2.592194195193   177.15630369     5.97587101
 C      3   1   2     2.565473095651    72.80216719   359.95304185
 C     17   1   2     2.656079180895   125.83487943     0.09366032
 C     18   1  17     2.655951627710   125.85546027   180.26559898
 C     14  12   8     2.565472094097   107.12361011     0.19983052
 C      9   1   2     2.591901268027    81.44175047   179.94495588
 C     10   9   1     2.565468156301    72.80232389   180.16933284
 C     12   8   5     2.655876793668   162.27344014     0.83813114
 C      9   1   2     2.592091431390   171.41952863     0.03824775
 H      3   1   2     2.035424957904   159.74999488   180.25953249
 H     19   3   1     2.035381194584   127.43130158   179.82791890
 H     22  14  12     2.035395642677   127.44744025   179.69739367
 H     14  12   8     2.035426071288   125.43663657   180.20366353
 H     24  10   9     2.035417469446   127.45443232   179.85753388
 H     10   9   1     2.035419373773   159.75828880     0.53310854
 Mg    13  12   8     3.884532474774   126.43550651   180.06019481
 C     11   8   5     2.832679222530   117.27452497   180.13304197
 C     34  11   8     2.639426943631   120.75894288   260.01689972
 C     35  34  11     2.628390766428   120.77967458   179.95157356
 C     36  35  34     2.627807046409   120.17416869     0.06383067
 C     37  36  35     2.627800758224   119.56359354   359.96393605
 C     38  37  36     2.628346848615   120.17158367   359.97314775
 H     35  34  11     2.046931253539   119.28215266     0.12320002
 H     36  35  34     2.046869429478   119.71220349   180.18132819
 H     37  36  35     2.046434172373   120.21696134   179.96439740
 H     38  37  36     2.046878309898   120.11258722   179.85120178
 H     39  38  37     2.046928932815   119.93128689   179.88961748
 C     20  17   1     2.832496261479   117.27635023   179.83555470
 C     45  20  17     2.639465049985   120.75805895    79.50356453
 C     46  45  20     2.628382601477   120.78473073   179.96907332
 C     47  46  45     2.627785860657   120.17705909     0.07442139
 C     48  47  46     2.627802015959   119.56006095   359.97047586
 C     49  48  47     2.628305505594   120.17276971   359.96185086
 H     46  45  20     2.046935425080   119.29758564     0.15759396
 H     47  46  45     2.046864976583   119.71071430   180.18273845
 H     48  47  46     2.046442684772   120.22050345   179.95838139
 H     49  48  47     2.046882184323   120.11519157   179.83114167
 H     50  49  48     2.046920933199   119.92580323   179.88660474
 C     21  18   1     2.832737816097   117.28798408   179.72398695
 C     56  21  18     2.639420951153   120.71653922   260.55104232
 C     57  56  21     2.628338694698   120.78737548   179.99292393
 C     58  57  56     2.627814982273   120.17255169     0.05877075
 C     59  58  57     2.627796761001   119.55994938   359.96611660
 C     60  59  58     2.628372885207   120.17707541   359.97196552
 H     57  56  21     2.046954238033   119.28811259     0.14261226
 H     58  57  56     2.046856422624   119.71220131   180.16232012
 H     59  58  57     2.046443526657   120.22123367   179.96845591
 H     60  59  58     2.046868987487   120.11314103   179.86695053
 H     61  60  59     2.046942906433   119.92563663   179.89758366
 C     25  12   8     2.832663941177   117.25803690   179.52387829
 C     67  25  12     2.639527452411   120.69986376    80.52329734
 C     68  67  25     2.628290921499   120.78822075   180.01410426
 C     69  68  67     2.627808134540   120.17081329     0.05908974
 C     70  69  68     2.627790367553   119.56087131   359.96273928
 C     71  70  69     2.628405158227   120.17793429   359.97535578
 H     68  67  25     2.046947857152   119.28960554     0.16639622
 H     69  68  67     2.046875390382   119.71470417   180.16298856
 H     70  69  68     2.046447363557   120.22323348   179.96819721
 H     71  70  69     2.046860946455   120.11387427   179.86380867
 H     72  71  70     2.046978496977   119.92750176   179.89120147

---------------------
BASIS SET INFORMATION
---------------------
There are 4 groups of distinct atoms

 Group   1 Type N   : 11s6p2d1f contracted to 5s3p2d1f pattern {62111/411/11/1}
 Group   2 Type H   : 5s1p contracted to 3s1p pattern {311/1}
 Group   3 Type C   : 11s6p2d1f contracted to 5s3p2d1f pattern {62111/411/11/1}
 Group   4 Type Mg  : 14s8p3d contracted to 5s4p3d pattern {73211/5111/111}

Atom   0N    basis set group =>   1
Atom   1H    basis set group =>   2
Atom   2C    basis set group =>   3
Atom   3C    basis set group =>   3
Atom   4N    basis set group =>   1
Atom   5C    basis set group =>   3
Atom   6H    basis set group =>   2
Atom   7C    basis set group =>   3
Atom   8N    basis set group =>   1
Atom   9C    basis set group =>   3
Atom  10C    basis set group =>   3
Atom  11C    basis set group =>   3
Atom  12N    basis set group =>   1
Atom  13C    basis set group =>   3
Atom  14C    basis set group =>   3
Atom  15C    basis set group =>   3
Atom  16C    basis set group =>   3
Atom  17C    basis set group =>   3
Atom  18C    basis set group =>   3
Atom  19C    basis set group =>   3
Atom  20C    basis set group =>   3
Atom  21C    basis set group =>   3
Atom  22C    basis set group =>   3
Atom  23C    basis set group =>   3
Atom  24C    basis set group =>   3
Atom  25C    basis set group =>   3
Atom  26H    basis set group =>   2
Atom  27H    basis set group =>   2
Atom  28H    basis set group =>   2
Atom  29H    basis set group =>   2
Atom  30H    basis set group =>   2
Atom  31H    basis set group =>   2
Atom  32Mg   basis set group =>   4
Atom  33C    basis set group =>   3
Atom  34C    basis set group =>   3
Atom  35C    basis set group =>   3
Atom  36C    basis set group =>   3
Atom  37C    basis set group =>   3
Atom  38C    basis set group =>   3
Atom  39H    basis set group =>   2
Atom  40H    basis set group =>   2
Atom  41H    basis set group =>   2
Atom  42H    basis set group =>   2
Atom  43H    basis set group =>   2
Atom  44C    basis set group =>   3
Atom  45C    basis set group =>   3
Atom  46C    basis set group =>   3
Atom  47C    basis set group =>   3
Atom  48C    basis set group =>   3
Atom  49C    basis set group =>   3
Atom  50H    basis set group =>   2
Atom  51H    basis set group =>   2
Atom  52H    basis set group =>   2
Atom  53H    basis set group =>   2
Atom  54H    basis set group =>   2
Atom  55C    basis set group =>   3
Atom  56C    basis set group =>   3
Atom  57C    basis set group =>   3
Atom  58C    basis set group =>   3
Atom  59C    basis set group =>   3
Atom  60C    basis set group =>   3
Atom  61H    basis set group =>   2
Atom  62H    basis set group =>   2
Atom  63H    basis set group =>   2
Atom  64H    basis set group =>   2
Atom  65H    basis set group =>   2
Atom  66C    basis set group =>   3
Atom  67C    basis set group =>   3
Atom  68C    basis set group =>   3
Atom  69C    basis set group =>   3
Atom  70C    basis set group =>   3
Atom  71C    basis set group =>   3
Atom  72H    basis set group =>   2
Atom  73H    basis set group =>   2
Atom  74H    basis set group =>   2
Atom  75H    basis set group =>   2
Atom  76H    basis set group =>   2
---------------------------------
AUXILIARY/J BASIS SET INFORMATION
---------------------------------
There are 4 groups of distinct atoms

 Group   1 Type N   : 12s5p4d2f1g contracted to 6s4p3d1f1g pattern {711111/2111/211/2/1}
 Group   2 Type H   : 5s2p1d contracted to 3s1p1d pattern {311/2/1}
 Group   3 Type C   : 12s5p4d2f1g contracted to 6s4p3d1f1g pattern {711111/2111/211/2/1}
 Group   4 Type Mg  : 14s5p5d2f1g contracted to 8s4p4d1f1g pattern {71111111/2111/2111/2/1}

Atom   0N    basis set group =>   1
Atom   1H    basis set group =>   2
Atom   2C    basis set group =>   3
Atom   3C    basis set group =>   3
Atom   4N    basis set group =>   1
Atom   5C    basis set group =>   3
Atom   6H    basis set group =>   2
Atom   7C    basis set group =>   3
Atom   8N    basis set group =>   1
Atom   9C    basis set group =>   3
Atom  10C    basis set group =>   3
Atom  11C    basis set group =>   3
Atom  12N    basis set group =>   1
Atom  13C    basis set group =>   3
Atom  14C    basis set group =>   3
Atom  15C    basis set group =>   3
Atom  16C    basis set group =>   3
Atom  17C    basis set group =>   3
Atom  18C    basis set group =>   3
Atom  19C    basis set group =>   3
Atom  20C    basis set group =>   3
Atom  21C    basis set group =>   3
Atom  22C    basis set group =>   3
Atom  23C    basis set group =>   3
Atom  24C    basis set group =>   3
Atom  25C    basis set group =>   3
Atom  26H    basis set group =>   2
Atom  27H    basis set group =>   2
Atom  28H    basis set group =>   2
Atom  29H    basis set group =>   2
Atom  30H    basis set group =>   2
Atom  31H    basis set group =>   2
Atom  32Mg   basis set group =>   4
Atom  33C    basis set group =>   3
Atom  34C    basis set group =>   3
Atom  35C    basis set group =>   3
Atom  36C    basis set group =>   3
Atom  37C    basis set group =>   3
Atom  38C    basis set group =>   3
Atom  39H    basis set group =>   2
Atom  40H    basis set group =>   2
Atom  41H    basis set group =>   2
Atom  42H    basis set group =>   2
Atom  43H    basis set group =>   2
Atom  44C    basis set group =>   3
Atom  45C    basis set group =>   3
Atom  46C    basis set group =>   3
Atom  47C    basis set group =>   3
Atom  48C    basis set group =>   3
Atom  49C    basis set group =>   3
Atom  50H    basis set group =>   2
Atom  51H    basis set group =>   2
Atom  52H    basis set group =>   2
Atom  53H    basis set group =>   2
Atom  54H    basis set group =>   2
Atom  55C    basis set group =>   3
Atom  56C    basis set group =>   3
Atom  57C    basis set group =>   3
Atom  58C    basis set group =>   3
Atom  59C    basis set group =>   3
Atom  60C    basis set group =>   3
Atom  61H    basis set group =>   2
Atom  62H    basis set group =>   2
Atom  63H    basis set group =>   2
Atom  64H    basis set group =>   2
Atom  65H    basis set group =>   2
Atom  66C    basis set group =>   3
Atom  67C    basis set group =>   3
Atom  68C    basis set group =>   3
Atom  69C    basis set group =>   3
Atom  70C    basis set group =>   3
Atom  71C    basis set group =>   3
Atom  72H    basis set group =>   2
Atom  73H    basis set group =>   2
Atom  74H    basis set group =>   2
Atom  75H    basis set group =>   2
Atom  76H    basis set group =>   2


           ************************************************************
           *        Program running with 8 parallel MPI-processes     *
           *              working on a common directory               *
           ************************************************************
------------------------------------------------------------------------------
                             ORCA STARTUP CALCULATIONS
                           -- RI-GTO INTEGRALS CHOSEN --
------------------------------------------------------------------------------
------------------------------------------------------------------------------
                   ___                                                        
                  /   \      - P O W E R E D   B Y -                         
                 /     \                                                     
                 |  |  |   _    _      __       _____    __    __             
                 |  |  |  | |  | |    /  \     |  _  \  |  |  /  |          
                  \  \/   | |  | |   /    \    | | | |  |  | /  /          
                 / \  \   | |__| |  /  /\  \   | |_| |  |  |/  /          
                |  |  |   |  __  | /  /__\  \  |    /   |      \           
                |  |  |   | |  | | |   __   |  |    \   |  |\   \          
                \     /   | |  | | |  |  |  |  | |\  \  |  | \   \       
                 \___/    |_|  |_| |__|  |__|  |_| \__\ |__|  \__/        
                                                                              
                      - O R C A' S   B I G   F R I E N D -                    
                                      &                                       
                       - I N T E G R A L  F E E D E R -                       
                                                                              
 v1 FN, 2020, v2 2021, v3 2022-2024                                           
------------------------------------------------------------------------------


----------------------
SHARK INTEGRAL PACKAGE
----------------------

Number of atoms                             ...     77
Number of basis functions                   ...   1688
Number of shells                            ...    652
Maximum angular momentum                    ...      3
Integral batch strategy                     ... SHARK/LIBINT Hybrid
RI-J (if used) integral strategy            ... SPLIT-RIJ (Revised 2003 algorithm where possible)
Printlevel                                  ...      1
Contraction scheme used                     ... SEGMENTED contraction
Prescreening option                         ... SCHWARTZ
   Thresh                                   ... 2.500e-11
   Tcut                                     ... 2.500e-12
   Tpresel                                  ... 2.500e-12 
Coulomb Range Separation                    ... NOT USED
Exchange Range Separation                   ... NOT USED
Multipole approximations                    ... NOT USED
Finite Nucleus Model                        ... NOT USED
CABS basis                                  ... NOT available
Auxiliary Coulomb fitting basis             ... AVAILABLE
   # of basis functions in Aux-J            ...   2716
   # of shells in Aux-J                     ...    878
   Maximum angular momentum in Aux-J        ...      4
Auxiliary J/K fitting basis                 ... NOT available
Auxiliary Correlation fitting basis         ... NOT available
Auxiliary 'external' fitting basis          ... NOT available

Checking pre-screening integrals            ... done (  0.0 sec) Dimension = 652
   => SHARK Basis and OBASIS are compatible. Storing Pre-screening
Shell pair information
Shell pair cut-off parameter TPreSel        ...   2.5e-12
Total number of shell pairs                 ...    212878
Shell pairs after pre-screening             ...    103183
Total number of primitive shell pairs       ...    666456
Primitive shell pairs kept                  ...    198892
          la=0 lb=0:  24577 shell pairs
          la=1 lb=0:  30403 shell pairs
          la=1 lb=1:   9285 shell pairs
          la=2 lb=0:  14681 shell pairs
          la=2 lb=1:   9224 shell pairs
          la=2 lb=2:   2210 shell pairs
          la=3 lb=0:   6441 shell pairs
          la=3 lb=1:   4108 shell pairs
          la=3 lb=2:   1824 shell pairs
          la=3 lb=3:    430 shell pairs

Checking whether 4 symmetric matrices of dimension 1688 fit in memory
:Max Core in MB      =   3000.00
 MB in use           =    125.94
 MB left             =   2874.06
 MB needed           =     43.50
 Data fit in memory  = YES
Calculating RI/J V-Matrix + Cholesky decomp.... done (  0.5 sec)
Calculating Nuclear repulsion               ... done (  0.0 sec) ENN=   5749.715742335587 Eh

Diagonalization of the overlap matrix:
Smallest eigenvalue                        ... 2.991e-06
Time for diagonalization                   ...    0.566 sec
Threshold for overlap eigenvalues          ... 1.000e-07
Number of eigenvalues below threshold      ... 0
Time for construction of square roots      ...    0.461 sec
Total time needed                          ...    1.066 sec

-------------------
DFT GRID GENERATION
-------------------

General Integration Accuracy     IntAcc      ... 4.959
Radial Grid Type                 RadialGrid  ... OptM3 with GC (2021)
Angular Grid (max. ang.)         AngularGrid ... 6 (Lebedev-590)
Angular grid pruning method      GridPruning ... 4 (adaptive)
Weight generation scheme         WeightScheme... mBecke (2022)
Basis function cutoff            BFCut       ... 1.0000e-11
Integration weight cutoff        WCut        ... 1.0000e-14
Partially contracted basis set               ... off
Rotationally invariant grid construction     ... off
Angular grids for H and He will be reduced by one unit

Total number of grid points                  ...   926618
Total number of batches                      ...    14522
Average number of points per batch           ...       63
Average number of grid points per atom       ...    12034

--------------------
COSX GRID GENERATION
--------------------

GRIDX 1
-------
General Integration Accuracy     IntAcc      ... 4.020
Radial Grid Type                 RadialGrid  ... OptM3 with GC (2021)
Angular Grid (max. ang.)         AngularGrid ... 2 (Lebedev-110)
Angular grid pruning method      GridPruning ... 4 (adaptive)
Weight generation scheme         WeightScheme... mBecke (2022)
Basis function cutoff            BFCut       ... 1.0000e-11
Integration weight cutoff        WCut        ... 1.0000e-14
Partially contracted basis set               ... on
Rotationally invariant grid construction     ... off
Angular grids for H and He will be reduced by one unit

Total number of grid points                  ...   104925
Total number of batches                      ...      870
Average number of points per batch           ...      120
Average number of grid points per atom       ...     1363
UseSFitting                                  ... on

GRIDX 2
-------
General Integration Accuracy     IntAcc      ... 4.338
Radial Grid Type                 RadialGrid  ... OptM3 with GC (2021)
Angular Grid (max. ang.)         AngularGrid ... 3 (Lebedev-194)
Angular grid pruning method      GridPruning ... 4 (adaptive)
Weight generation scheme         WeightScheme... mBecke (2022)
Basis function cutoff            BFCut       ... 1.0000e-11
Integration weight cutoff        WCut        ... 1.0000e-14
Partially contracted basis set               ... on
Rotationally invariant grid construction     ... off
Angular grids for H and He will be reduced by one unit

Total number of grid points                  ...   229479
Total number of batches                      ...     1830
Average number of points per batch           ...      125
Average number of grid points per atom       ...     2980
UseSFitting                                  ... on

GRIDX 3
-------
General Integration Accuracy     IntAcc      ... 4.871
Radial Grid Type                 RadialGrid  ... OptM3 with GC (2021)
Angular Grid (max. ang.)         AngularGrid ... 4 (Lebedev-302)
Angular grid pruning method      GridPruning ... 4 (adaptive)
Weight generation scheme         WeightScheme... mBecke (2022)
Basis function cutoff            BFCut       ... 1.0000e-11
Integration weight cutoff        WCut        ... 1.0000e-14
Partially contracted basis set               ... on
Rotationally invariant grid construction     ... off
Angular grids for H and He will be reduced by one unit

Total number of grid points                  ...   421309
Total number of batches                      ...     3327
Average number of points per batch           ...      126
Average number of grid points per atom       ...     5472
UseSFitting                                  ... on
Grids setup in  28.0 sec
Initializing property integral containers    ... done (  0.0 sec)

SHARK setup successfully completed in  31.7 seconds

Maximum memory used throughout the entire STARTUP-calculation: 301.1 MB


           ************************************************************
           *        Program running with 8 parallel MPI-processes     *
           *              working on a common directory               *
           ************************************************************
-------------------------------------------------------------------------------
                                 ORCA GUESS
                   Start orbitals & Density for SCF / CASSCF
-------------------------------------------------------------------------------

------------
SCF SETTINGS
------------
Hamiltonian:
 Density Functional     Method          .... DFT(GTOs)
 Exchange Functional    Exchange        .... PBE
   PBE kappa parameter   XKappa         ....  0.804000
   PBE mue parameter    XMuePBE         ....  0.219520
 Correlation Functional Correlation     .... PBE
   PBE beta parameter  CBetaPBE         ....  0.066725
 LDA part of GGA corr.  LDAOpt          .... PW91-LDA
 Gradients option       PostSCFGGA      .... off
 Hybrid DFT is turned on
   Fraction HF Exchange ScalHFX         ....  0.250000
   Scaling of DF-GGA-X  ScalDFX         ....  0.750000
   Scaling of DF-GGA-C  ScalDFC         ....  1.000000
   Scaling of DF-LDA-C  ScalLDAC        ....  1.000000
   Perturbative correction              ....  0.000000
   NL short-range parameter             ....  6.900000
 RI-approximation to the Coulomb term is turned on
   Number of AuxJ basis functions       .... 2716
   RIJ-COSX (HFX calculated with COS-X)).... on


General Settings:
 Integral files         IntName         .... tddft
 Hartree-Fock type      HFTyp           .... RHF
 Total Charge           Charge          ....    0
 Multiplicity           Mult            ....    1
 Number of Electrons    NEL             ....  332
 Basis Dimension        Dim             .... 1688
 Nuclear Repulsion      ENuc            ....   5749.7157423356 Eh

Convergence Acceleration:
 AO-DIIS                CNVDIIS         .... on
   Start iteration      DIISMaxIt       ....    12
   Startup error        DIISStart       ....  0.200000
   # of expansion vecs  DIISMaxEq       ....     5
   Bias factor          DIISBfac        ....   1.050
   Max. coefficient     DIISMaxC        ....  10.000
 MO-DIIS                CNVKDIIS        .... off
 Trust-Rad. Augm. Hess. CNVTRAH         .... auto
   Auto Start mean grad. ratio tolernc. ....  1.125000
   Auto Start start iteration           ....    50
   Auto Start num. interpolation iter.  ....    10
   Max. Number of Micro iterations      ....    24
   Max. Number of Macro iterations      .... Maxiter - #DIIS iter
   Number of Davidson start vectors     ....     2
   Converg. threshold    (grad. norm)   ....   1.000e-05
   Grad. Scal. Fac. for Micro threshold ....   0.100
   Minimum threshold for Micro iter.    ....   1.000e-02
   NR start threshold (gradient norm)   ....   1.000e-04
   Initial trust radius                 ....   0.400
   Minimum AH scaling param. (alpha)    ....   1.000
   Maximum AH scaling param. (alpha)    .... 1000.000
   Quad. conv. algorithm                .... NR
   White noise on init. David. guess    .... on
   Maximum white noise                  ....   0.010
   Pseudo random numbers                .... off
   Inactive MOs                         .... canonical
   Orbital update algorithm             .... Taylor
   Preconditioner                       .... Diag
   Full preconditioner red. dimension   ....   250
 SOSCF                 CNVSOSCF           .... on
   Start iteration     SOSCFMaxIt         ....   150
   Startup grad/error  SOSCFStart         ....  0.003300
   Hessian update      SOSCFHessUp        .... L-BFGS
   Autom. constraints  SOSCFAutoConstrain .... off
 Level Shifting         CNVShift        .... on
   Level shift para.    LevelShift      ....    0.2500
   Turn off err/grad.   ShiftErr        ....    0.0010
 Zerner damping         CNVZerner       .... off
 Static damping         CNVDamp         .... on
   Fraction old density DampFac         ....    0.7000
   Max. Damping (<1)    DampMax         ....    0.9800
   Min. Damping (>=0)   DampMin         ....    0.0000
   Turn off err/grad.   DampErr         ....    0.1000

SCF Procedure:
 Maximum # iterations   MaxIter         ....   125
 SCF integral mode      SCFMode         .... Direct
   Integral package                     .... SHARK and LIBINT hybrid scheme
 Reset frequency        DirectResetFreq ....    20
 Integral Threshold     Thresh          ....  2.500e-11 Eh
 Primitive CutOff       TCut            ....  2.500e-12 Eh

Convergence Tolerance:
 Convergence Check Mode ConvCheckMode   .... Total+1el-Energy
 Convergence forced     ConvForced      .... 1
 Energy Change          TolE            ....  1.000e-08 Eh
 1-El. energy change                    ....  1.000e-05 Eh
 Orbital Gradient       TolG            ....  1.000e-05
 Orbital Rotation angle TolX            ....  1.000e-05
 DIIS Error             TolErr          ....  5.000e-07

------------------------------
INITIAL GUESS: MODEL POTENTIAL
------------------------------
Loading Hartree-Fock densities                     ... done
Calculating cut-offs                               ... done
Initializing the effective Hamiltonian             ... done
Setting up the integral package (SHARK)            ... done
Starting the Coulomb interaction                   ... done (   4.4 sec)
Making the grid                                    ... done (   1.1 sec)
Mapping shells                                     ... done
Starting the XC term evaluation                    ... done (   1.3 sec)
  promolecular density results
     # of electrons  =    331.986215612
     EX              =   -275.603230785
     EC              =    -11.222706759
     EX+EC           =   -286.825937544
Transforming the Hamiltonian                       ... done (   0.3 sec)
Diagonalizing the Hamiltonian                      ... done (   0.6 sec)
Back transforming the eigenvectors                 ... done (   0.2 sec)
Now organizing SCF variables                       ... done
                      ------------------
                      INITIAL GUESS DONE (   8.3 sec)
                      ------------------
             **** ENERGY FILE WAS UPDATED (tddft.en.tmp) ****
Finished Guess after  11.3 sec
Maximum memory used throughout the entire GUESS-calculation: 204.1 MB


           ************************************************************
           *        Program running with 8 parallel MPI-processes     *
           *              working on a common directory               *
           ************************************************************

-------------------------------------------------------------------------------------------
                                      ORCA LEAN-SCF
                              memory conserving SCF solver
-------------------------------------------------------------------------------------------

--------------------
CPCM SOLVATION MODEL
--------------------
CPCM parameters:
  Epsilon                                         ...       2.3870
  Refrac                                          ...       1.4961
  Rsolv                                           ...       1.3000
  Surface type                                    ... GAUSSIAN VDW
  Discretization scheme                           ... Constant charge density
    Threshold for H atoms                         ...       5.0000 (charges/Ang^2)
    Threshold for non-H atoms                     ...       5.0000 (charges/Ang^2)
  Epsilon function type                           ...         CPCM
Solvent:                                          ... TOLUENE
Radii:
  Scheme                                          ... Element-dependent radii
  Radius for N  used is    3.5149 Bohr (=   1.8600 Ang.)
  Radius for H  used is    2.4944 Bohr (=   1.3200 Ang.)
  Radius for C  used is    3.8550 Bohr (=   2.0400 Ang.)
  Radius for Mg used is    3.9231 Bohr (=   2.0760 Ang.)
Calculating surface                               ...        done! (  0.0s)
Cavity surface points                             ...         6820
Cavity Volume                                     ...    4949.3392
Cavity Surface-area                               ...    2291.9203
Calculating surface distance matrix               ...        done! (  1.0s)
Performing Cholesky decomposition & store         ...        done! (  3.7s)
Overall time for CPCM initialization              ...                 4.7s

----------------------------------------D-I-I-S--------------------------------------------
Iteration    Energy (Eh)           Delta-E    RMSDP     MaxDP     DIISErr   Damp  Time(sec)
-------------------------------------------------------------------------------------------
               ***  Starting incremental Fock matrix formation  ***
    1    -2110.1653995508377193     0.00e+00  1.86e-03  8.38e-02  2.17e-01  0.700 168.2
    2    -2110.5780668904917547    -4.13e-01  1.56e-03  6.33e-02  1.06e-01  0.700  84.4
                               ***Turning on AO-DIIS***
    3    -2110.7675034103403959    -1.89e-01  8.86e-04  3.52e-02  3.76e-02  0.700  81.6
    4    -2110.8787496189388548    -1.11e-01  1.67e-03  6.65e-02  2.50e-02  0.000  99.3
    5    -2111.1151458514641490    -2.36e-01  3.19e-04  6.86e-03  4.68e-03  0.000 114.8
                              *** Initializing SOSCF ***
---------------------------------------S-O-S-C-F--------------------------------------
Iteration    Energy (Eh)           Delta-E    RMSDP     MaxDP     MaxGrad    Time(sec)
--------------------------------------------------------------------------------------
    6    -2111.1161086609017730    -9.63e-04  1.10e-04  3.11e-03  9.81e-04    92.1
               *** Restarting incremental Fock matrix formation ***
    7    -2111.1161527799704345    -4.41e-05  1.35e-04  3.27e-03  2.77e-04   259.5
    8    -2111.1161545560071318    -1.78e-06  4.17e-05  1.04e-03  2.18e-04   163.1
    9    -2111.1161585260406355    -3.97e-06  3.70e-05  1.07e-03  5.04e-05   139.8
   10    -2111.1161587461801901    -2.20e-07  1.18e-05  3.84e-04  3.04e-05   149.4
   11    -2111.1161590282963516    -2.82e-07  1.70e-05  8.39e-04  1.41e-05   112.6
   12    -2111.1161589995263057     2.88e-08  9.33e-06  3.85e-04  1.17e-05    86.3
   13    -2111.1161589492303392     5.03e-08  1.98e-05  1.23e-03  3.04e-06   113.0
   14    -2111.1161589017028746     4.75e-08  8.34e-06  4.17e-04  2.58e-06   112.0
   15    -2111.1161589521352653    -5.04e-08  1.09e-05  5.78e-04  1.17e-06    75.4
                  *** Gradient check signals convergence ***

               *****************************************************
               *                     SUCCESS                       *
               *           SCF CONVERGED AFTER  15 CYCLES          *
               *****************************************************

Recomputing exchange energy using gridx3       ... done (  368.876 sec)
Old exchange energy                            :    -70.236673392 Eh
New exchange energy                            :    -70.236667412 Eh
Exchange energy change after final integration :      0.000005980 Eh
Total energy after final integration           :  -2111.116153049 Eh
             **** ENERGY FILE WAS UPDATED (tddft.en.tmp) ****

----------------
TOTAL SCF ENERGY
----------------

Total Energy       :      -2111.11615304921133 Eh          -57446.39104 eV

Components:
Nuclear Repulsion  :       5749.71574233558749 Eh          156457.71951 eV
Electronic Energy  :      -7860.81906977113886 Eh         -213903.76155 eV
One Electron Energy:     -14320.31198118991961 Eh         -389675.49973 eV
Two Electron Energy:       6459.49291141878075 Eh          175771.73818 eV
CPCM Dielectric    :         -0.01283159391545 Eh              -0.34917 eV

Virial components:
Potential Energy   :      -4211.99895749213192 Eh         -114614.31851 eV
Kinetic Energy     :       2100.88280444292059 Eh           57167.92747 eV
Virial Ratio       :          2.00487097547024

DFT components:
N(Alpha)           :      165.999985971854 electrons
N(Beta)            :      165.999985971854 electrons
N(Total)           :      331.999971943708 electrons
E(X)               :     -210.130236273128 Eh       
E(C)               :      -11.232182396976 Eh       
E(XC)              :     -221.362418670104 Eh       

CPCM Solvation Model Properties:
Surface-charge          :         -0.04864502782888
Corrected charge        :          0.00000000000000
Outlying charge corr.   :          0.00005392881200 Eh               0.00147 eV
Free-energy (cav+disp)  :  This term is not implemented in the current solvation scheme

---------------
SCF CONVERGENCE
---------------

  Last Energy change         ...    5.0432e-08  Tolerance :   1.0000e-08
  Last MAX-Density change    ...    5.7784e-04  Tolerance :   1.0000e-07
  Last RMS-Density change    ...    1.0939e-05  Tolerance :   5.0000e-09
  Last DIIS Error            ...    9.8094e-04  Tolerance :   5.0000e-07
  Last Orbital Gradient      ...    1.1684e-06  Tolerance :   1.0000e-05
  Last Orbital Rotation      ...    3.3756e-06  Tolerance :   1.0000e-05


----------------
ORBITAL ENERGIES
----------------

  NO   OCC          E(Eh)            E(eV) 
   0   2.0000     -46.868137     -1275.3468 
   1   2.0000     -14.376404      -391.2018 
   2   2.0000     -14.376400      -391.2017 
   3   2.0000     -14.376393      -391.2015 
   4   2.0000     -14.376378      -391.2011 
   5   2.0000     -10.263017      -279.2709 
   6   2.0000     -10.263003      -279.2705 
   7   2.0000     -10.262996      -279.2703 
   8   2.0000     -10.262988      -279.2701 
   9   2.0000     -10.262975      -279.2697 
  10   2.0000     -10.262969      -279.2696 
  11   2.0000     -10.262962      -279.2694 
  12   2.0000     -10.262954      -279.2692 
  13   2.0000     -10.249861      -278.9129 
  14   2.0000     -10.249840      -278.9123 
  15   2.0000     -10.249819      -278.9118 
  16   2.0000     -10.249804      -278.9113 
  17   2.0000     -10.243249      -278.7330 
  18   2.0000     -10.243236      -278.7326 
  19   2.0000     -10.243234      -278.7326 
  20   2.0000     -10.243229      -278.7324 
  21   2.0000     -10.229601      -278.3616 
  22   2.0000     -10.229597      -278.3615 
  23   2.0000     -10.229593      -278.3614 
  24   2.0000     -10.229589      -278.3613 
  25   2.0000     -10.229504      -278.3590 
  26   2.0000     -10.229501      -278.3589 
  27   2.0000     -10.229497      -278.3588 
  28   2.0000     -10.229496      -278.3587 
  29   2.0000     -10.229028      -278.3460 
  30   2.0000     -10.229025      -278.3459 
  31   2.0000     -10.229021      -278.3458 
  32   2.0000     -10.229019      -278.3458 
  33   2.0000     -10.228871      -278.3417 
  34   2.0000     -10.228868      -278.3417 
  35   2.0000     -10.228864      -278.3415 
  36   2.0000     -10.228863      -278.3415 
  37   2.0000     -10.228394      -278.3287 
  38   2.0000     -10.228391      -278.3287 
  39   2.0000     -10.228386      -278.3285 
  40   2.0000     -10.228383      -278.3285 
  41   2.0000     -10.223595      -278.1982 
  42   2.0000     -10.223582      -278.1978 
  43   2.0000     -10.223580      -278.1978 
  44   2.0000     -10.223576      -278.1976 
  45   2.0000     -10.222800      -278.1765 
  46   2.0000     -10.222786      -278.1762 
  47   2.0000     -10.222785      -278.1761 
  48   2.0000     -10.222781      -278.1760 
  49   2.0000      -3.091185       -84.1154 
  50   2.0000      -1.818032       -49.4712 
  51   2.0000      -1.812342       -49.3163 
  52   2.0000      -1.812342       -49.3163 
  53   2.0000      -0.991747       -26.9868 
  54   2.0000      -0.982887       -26.7457 
  55   2.0000      -0.982881       -26.7456 
  56   2.0000      -0.972801       -26.4713 
  57   2.0000      -0.896399       -24.3923 
  58   2.0000      -0.892833       -24.2952 
  59   2.0000      -0.892830       -24.2951 
  60   2.0000      -0.891164       -24.2498 
  61   2.0000      -0.849485       -23.1157 
  62   2.0000      -0.831668       -22.6308 
  63   2.0000      -0.831662       -22.6307 
  64   2.0000      -0.813058       -22.1244 
  65   2.0000      -0.791607       -21.5407 
  66   2.0000      -0.791295       -21.5322 
  67   2.0000      -0.791295       -21.5322 
  68   2.0000      -0.784753       -21.3542 
  69   2.0000      -0.772941       -21.0328 
  70   2.0000      -0.772826       -21.0297 
  71   2.0000      -0.772823       -21.0296 
  72   2.0000      -0.772760       -21.0279 
  73   2.0000      -0.765938       -20.8422 
  74   2.0000      -0.758593       -20.6424 
  75   2.0000      -0.758588       -20.6422 
  76   2.0000      -0.740840       -20.1593 
  77   2.0000      -0.732344       -19.9281 
  78   2.0000      -0.681187       -18.5360 
  79   2.0000      -0.681184       -18.5360 
  80   2.0000      -0.640125       -17.4187 
  81   2.0000      -0.628229       -17.0950 
  82   2.0000      -0.627898       -17.0860 
  83   2.0000      -0.627894       -17.0859 
  84   2.0000      -0.627658       -17.0794 
  85   2.0000      -0.621222       -16.9043 
  86   2.0000      -0.621202       -16.9038 
  87   2.0000      -0.614841       -16.7307 
  88   2.0000      -0.613201       -16.6860 
  89   2.0000      -0.601578       -16.3698 
  90   2.0000      -0.580634       -15.7998 
  91   2.0000      -0.580627       -15.7997 
  92   2.0000      -0.570096       -15.5131 
  93   2.0000      -0.564169       -15.3518 
  94   2.0000      -0.555315       -15.1109 
  95   2.0000      -0.545163       -14.8346 
  96   2.0000      -0.545159       -14.8345 
  97   2.0000      -0.538281       -14.6474 
  98   2.0000      -0.532056       -14.4780 
  99   2.0000      -0.532050       -14.4778 
 100   2.0000      -0.526215       -14.3190 
 101   2.0000      -0.517077       -14.0704 
 102   2.0000      -0.505499       -13.7553 
 103   2.0000      -0.505488       -13.7550 
 104   2.0000      -0.477332       -12.9889 
 105   2.0000      -0.476689       -12.9714 
 106   2.0000      -0.474954       -12.9242 
 107   2.0000      -0.474945       -12.9239 
 108   2.0000      -0.473423       -12.8825 
 109   2.0000      -0.465276       -12.6608 
 110   2.0000      -0.465274       -12.6608 
 111   2.0000      -0.463152       -12.6030 
 112   2.0000      -0.459113       -12.4931 
 113   2.0000      -0.440642       -11.9905 
 114   2.0000      -0.439078       -11.9479 
 115   2.0000      -0.435842       -11.8599 
 116   2.0000      -0.435840       -11.8598 
 117   2.0000      -0.435494       -11.8504 
 118   2.0000      -0.435154       -11.8411 
 119   2.0000      -0.435149       -11.8410 
 120   2.0000      -0.435104       -11.8398 
 121   2.0000      -0.433514       -11.7965 
 122   2.0000      -0.426859       -11.6154 
 123   2.0000      -0.426850       -11.6152 
 124   2.0000      -0.424385       -11.5481 
 125   2.0000      -0.414483       -11.2787 
 126   2.0000      -0.414481       -11.2786 
 127   2.0000      -0.409476       -11.1424 
 128   2.0000      -0.404202       -10.9989 
 129   2.0000      -0.397661       -10.8209 
 130   2.0000      -0.396893       -10.8000 
 131   2.0000      -0.391208       -10.6453 
 132   2.0000      -0.391200       -10.6451 
 133   2.0000      -0.384834       -10.4719 
 134   2.0000      -0.380649       -10.3580 
 135   2.0000      -0.380644       -10.3578 
 136   2.0000      -0.380130       -10.3439 
 137   2.0000      -0.369402       -10.0519 
 138   2.0000      -0.362730        -9.8704 
 139   2.0000      -0.361433        -9.8351 
 140   2.0000      -0.358176        -9.7465 
 141   2.0000      -0.358165        -9.7462 
 142   2.0000      -0.358035        -9.7426 
 143   2.0000      -0.358031        -9.7425 
 144   2.0000      -0.357319        -9.7231 
 145   2.0000      -0.349637        -9.5141 
 146   2.0000      -0.329840        -8.9754 
 147   2.0000      -0.328666        -8.9434 
 148   2.0000      -0.328653        -8.9431 
 149   2.0000      -0.299451        -8.1485 
 150   2.0000      -0.294756        -8.0207 
 151   2.0000      -0.294707        -8.0194 
 152   2.0000      -0.275202        -7.4886 
 153   2.0000      -0.273083        -7.4310 
 154   2.0000      -0.272625        -7.4185 
 155   2.0000      -0.271618        -7.3911 
 156   2.0000      -0.271598        -7.3906 
 157   2.0000      -0.269350        -7.3294 
 158   2.0000      -0.267422        -7.2769 
 159   2.0000      -0.267394        -7.2762 
 160   2.0000      -0.267054        -7.2669 
 161   2.0000      -0.262757        -7.1500 
 162   2.0000      -0.262738        -7.1495 
 163   2.0000      -0.258957        -7.0466 
 164   2.0000      -0.209464        -5.6998 
 165   2.0000      -0.202777        -5.5178 
 166   0.0000      -0.091078        -2.4783 
 167   0.0000      -0.091070        -2.4781 
 168   0.0000      -0.029384        -0.7996 
 169   0.0000      -0.014029        -0.3818 
 170   0.0000      -0.012817        -0.3488 
 171   0.0000      -0.012806        -0.3485 
 172   0.0000      -0.012250        -0.3333 
 173   0.0000      -0.011111        -0.3024 
 174   0.0000      -0.010901        -0.2966 
 175   0.0000      -0.009810        -0.2669 
 176   0.0000      -0.009799        -0.2666 
*Only the first 10 virtual orbitals were printed.

                    ********************************
                    * MULLIKEN POPULATION ANALYSIS *
                    ********************************

-----------------------
MULLIKEN ATOMIC CHARGES
-----------------------
   0 N :   -0.365669
   1 H :    0.156413
   2 C :   -0.246564
   3 C :   -0.246843
   4 N :   -0.365794
   5 C :   -0.246440
   6 H :    0.156422
   7 C :    0.249775
   8 N :   -0.365868
   9 C :   -0.246466
  10 C :   -0.028641
  11 C :    0.250269
  12 N :   -0.365807
  13 C :   -0.246332
  14 C :    0.249407
  15 C :    0.249683
  16 C :    0.249155
  17 C :    0.249503
  18 C :   -0.246321
  19 C :   -0.026457
  20 C :   -0.029750
  21 C :   -0.246555
  22 C :    0.250142
  23 C :   -0.246409
  24 C :   -0.030669
  25 C :    0.249957
  26 H :    0.156293
  27 H :    0.156442
  28 H :    0.156300
  29 H :    0.156286
  30 H :    0.156304
  31 H :    0.156321
  32 Mg:    0.671027
  33 C :    0.035194
  34 C :   -0.194410
  35 C :   -0.155638
  36 C :   -0.109574
  37 C :   -0.155529
  38 C :   -0.194843
  39 H :    0.137657
  40 H :    0.135046
  41 H :    0.137025
  42 H :    0.135154
  43 H :    0.137629
  44 C :    0.036443
  45 C :   -0.196319
  46 C :   -0.154736
  47 C :   -0.109892
  48 C :   -0.154619
  49 C :   -0.196948
  50 H :    0.137592
  51 H :    0.135035
  52 H :    0.137017
  53 H :    0.135138
  54 H :    0.137540
  55 C :    0.033604
  56 C :   -0.192996
  57 C :   -0.156539
  58 C :   -0.108777
  59 C :   -0.156791
  60 C :   -0.192436
  61 H :    0.137586
  62 H :    0.134983
  63 H :    0.137028
  64 H :    0.135018
  65 H :    0.137537
  66 C :    0.033704
  67 C :   -0.192673
  68 C :   -0.156826
  69 C :   -0.108654
  70 C :   -0.156744
  71 C :   -0.192323
  72 H :    0.137635
  73 H :    0.135000
  74 H :    0.137010
  75 H :    0.135017
  76 H :    0.137557
Sum of atomic charges:   -0.0000000

--------------------------------
MULLIKEN REDUCED ORBITAL CHARGES
--------------------------------
  0 N s       :     3.663426  s :     3.663426
      pz      :     1.360366  p :     3.637639
      px      :     1.256921
      py      :     1.020352
      dz2     :     0.004851  d :     0.060970
      dxz     :     0.006032
      dyz     :     0.014588
      dx2y2   :     0.017154
      dxy     :     0.018345
      f0      :     0.000639  f :     0.003634
      f+1     :     0.000310
      f-1     :     0.000435
      f+2     :     0.000106
      f-2     :     0.000597
      f+3     :     0.000642
      f-3     :     0.000904

  1 H s       :     0.820824  s :     0.820824
      pz      :     0.004828  p :     0.022763
      px      :     0.008673
      py      :     0.009262

  2 C s       :     3.282498  s :     3.282498
      pz      :     0.985804  p :     2.867926
      px      :     0.932793
      py      :     0.949328
      dz2     :     0.005758  d :     0.088473
      dxz     :     0.009896
      dyz     :     0.019506
      dx2y2   :     0.020112
      dxy     :     0.033202
      f0      :     0.001426  f :     0.007667
      f+1     :     0.000770
      f-1     :     0.000623
      f+2     :     0.000928
      f-2     :     0.000412
      f+3     :     0.002293
      f-3     :     0.001215

  3 C s       :     3.282470  s :     3.282470
      pz      :     0.984815  p :     2.868235
      px      :     0.951028
      py      :     0.932392
      dz2     :     0.005345  d :     0.088471
      dxz     :     0.020054
      dyz     :     0.009764
      dx2y2   :     0.020052
      dxy     :     0.033256
      f0      :     0.001467  f :     0.007668
      f+1     :     0.000536
      f-1     :     0.000786
      f+2     :     0.000972
      f-2     :     0.000401
      f+3     :     0.001197
      f-3     :     0.002309

  4 N s       :     3.663515  s :     3.663515
      pz      :     1.361870  p :     3.637666
      px      :     1.017785
      py      :     1.258012
      dz2     :     0.004706  d :     0.060978
      dxz     :     0.014778
      dyz     :     0.005938
      dx2y2   :     0.017129
      dxy     :     0.018426
      f0      :     0.000642  f :     0.003635
      f+1     :     0.000426
      f-1     :     0.000316
      f+2     :     0.000103
      f-2     :     0.000593
      f+3     :     0.000912
      f-3     :     0.000643

  5 C s       :     3.282078  s :     3.282078
      pz      :     0.982079  p :     2.868220
      px      :     0.955064
      py      :     0.931077
      dz2     :     0.005621  d :     0.088475
      dxz     :     0.017942
      dyz     :     0.011571
      dx2y2   :     0.021014
      dxy     :     0.032327
      f0      :     0.001455  f :     0.007667
      f+1     :     0.000573
      f-1     :     0.000767
      f+2     :     0.001236
      f-2     :     0.000130
      f+3     :     0.001357
      f-3     :     0.002150

  6 H s       :     0.820810  s :     0.820810
      pz      :     0.004857  p :     0.022769
      px      :     0.006971
      py      :     0.010940

  7 C s       :     3.170564  s :     3.170564
      pz      :     0.929576  p :     2.397665
      px      :     0.771161
      py      :     0.696928
      dz2     :     0.005023  d :     0.167697
      dxz     :     0.030722
      dyz     :     0.037150
      dx2y2   :     0.052684
      dxy     :     0.042117
      f0      :     0.002064  f :     0.014298
      f+1     :     0.000912
      f-1     :     0.001108
      f+2     :     0.000689
      f-2     :     0.002258
      f+3     :     0.003577
      f-3     :     0.003690

  8 N s       :     3.663553  s :     3.663553
      pz      :     1.362043  p :     3.637706
      px      :     1.017714
      py      :     1.257949
      dz2     :     0.004700  d :     0.060975
      dxz     :     0.014785
      dyz     :     0.005939
      dx2y2   :     0.017127
      dxy     :     0.018423
      f0      :     0.000642  f :     0.003634
      f+1     :     0.000426
      f-1     :     0.000316
      f+2     :     0.000103
      f-2     :     0.000593
      f+3     :     0.000912
      f-3     :     0.000643

  9 C s       :     3.282335  s :     3.282335
      pz      :     0.985435  p :     2.867949
      px      :     0.954438
      py      :     0.928076
      dz2     :     0.005538  d :     0.088514
      dxz     :     0.017954
      dyz     :     0.011650
      dx2y2   :     0.021058
      dxy     :     0.032314
      f0      :     0.001457  f :     0.007668
      f+1     :     0.000575
      f-1     :     0.000765
      f+2     :     0.001235
      f-2     :     0.000129
      f+3     :     0.001356
      f-3     :     0.002151

 10 C s       :     3.450806  s :     3.450806
      pz      :     0.972238  p :     2.439397
      px      :     0.716089
      py      :     0.751070
      dz2     :     0.003818  d :     0.128973
      dxz     :     0.023137
      dyz     :     0.024563
      dx2y2   :     0.033241
      dxy     :     0.044214
      f0      :     0.001500  f :     0.009464
      f+1     :     0.000749
      f-1     :     0.000775
      f+2     :     0.000817
      f-2     :     0.001128
      f+3     :     0.002635
      f-3     :     0.001860

 11 C s       :     3.170987  s :     3.170987
      pz      :     0.928736  p :     2.396747
      px      :     0.765924
      py      :     0.702087
      dz2     :     0.005105  d :     0.167698
      dxz     :     0.029261
      dyz     :     0.038555
      dx2y2   :     0.051267
      dxy     :     0.043510
      f0      :     0.002063  f :     0.014299
      f+1     :     0.000846
      f-1     :     0.001176
      f+2     :     0.001119
      f-2     :     0.001836
      f+3     :     0.002452
      f-3     :     0.004807

 12 N s       :     3.663535  s :     3.663535
      pz      :     1.359736  p :     3.637669
      px      :     1.256934
      py      :     1.020999
      dz2     :     0.004895  d :     0.060970
      dxz     :     0.006034
      dyz     :     0.014535
      dx2y2   :     0.017163
      dxy     :     0.018342
      f0      :     0.000637  f :     0.003634
      f+1     :     0.000310
      f-1     :     0.000438
      f+2     :     0.000108
      f-2     :     0.000597
      f+3     :     0.000643
      f-3     :     0.000903

 13 C s       :     3.282349  s :     3.282349
      pz      :     0.982919  p :     2.867815
      px      :     0.928692
      py      :     0.956204
      dz2     :     0.005594  d :     0.088499
      dxz     :     0.011936
      dyz     :     0.017618
      dx2y2   :     0.021142
      dxy     :     0.032210
      f0      :     0.001434  f :     0.007668
      f+1     :     0.000711
      f-1     :     0.000668
      f+2     :     0.001203
      f-2     :     0.000145
      f+3     :     0.002132
      f-3     :     0.001375

 14 C s       :     3.170663  s :     3.170663
      pz      :     0.926458  p :     2.397942
      px      :     0.697453
      py      :     0.774032
      dz2     :     0.004650  d :     0.167690
      dxz     :     0.038077
      dyz     :     0.030321
      dx2y2   :     0.052501
      dxy     :     0.042140
      f0      :     0.002093  f :     0.014298
      f+1     :     0.001062
      f-1     :     0.000919
      f+2     :     0.000709
[...]
  0-1A  ->  1-1A    2.281792   18403.9   543.4   0.010649198   0.00134  -0.02818  -0.02320   0.00265
  0-1A  ->  2-1A    2.281846   18404.3   543.4   0.010521071   0.00132  -0.02313   0.02798  -0.00237
  0-1A  ->  3-1A    3.059905   24679.8   405.2   1.760869251   0.29701   0.28999   0.45890  -0.04823
  0-1A  ->  4-1A    3.059994   24680.5   405.2   1.759212375   0.29674  -0.46117   0.28923  -0.02014
  0-1A  ->  5-1A    3.761302   30336.9   329.6   0.000025502   0.00001   0.00020   0.00018   0.00228
  0-1A  ->  6-1A    3.768146   30392.2   329.0   0.038786498   0.00806   0.05546  -0.07033   0.00584
  0-1A  ->  7-1A    3.768331   30393.6   329.0   0.038920179   0.00808   0.07070   0.05519  -0.00639
  0-1A  ->  8-1A    3.801547   30661.5   326.1   0.000000026   0.00000  -0.00004  -0.00005   0.00003
  0-1A  ->  9-1A    3.943784   31808.8   314.4   0.000001172   0.00000   0.00017  -0.00047   0.00003
  0-1A  -> 10-1A    3.996670   32235.3   310.2   0.000002386   0.00000  -0.00022  -0.00069   0.00006
  0-1A  -> 11-1A    4.064382   32781.5   305.1   0.000000560   0.00000   0.00033  -0.00002  -0.00012
  0-1A  -> 12-1A    4.077533   32887.5   304.1   0.002364940   0.00053  -0.01878   0.01335  -0.00082
  0-1A  -> 13-1A    4.077711   32889.0   304.1   0.002525822   0.00057   0.01313   0.01976  -0.00222
  0-1A  -> 14-1A    4.079150   32900.6   303.9   0.000221649   0.00005   0.00657   0.00257  -0.00024
  0-1A  -> 15-1A    4.084452   32943.3   303.6   0.000034297   0.00001  -0.00097  -0.00259   0.00025
  0-1A  -> 16-1A    4.144249   33425.6   299.2   0.001549973   0.00035  -0.00055   0.00194   0.01871
  0-1A  -> 17-1A    4.174948   33673.2   297.0   0.000003188   0.00000   0.00046  -0.00062  -0.00038
  0-1A  -> 18-1A    4.206683   33929.2   294.7   0.001883397   0.00044   0.01715  -0.01194  -0.00026
  0-1A  -> 19-1A    4.206727   33929.5   294.7   0.001289975   0.00030   0.00892   0.01470  -0.00183
  0-1A  -> 20-1A    4.241520   34210.2   292.3   0.139983582   0.03273   0.12658   0.12854  -0.01358
  0-1A  -> 21-1A    4.241881   34213.1   292.3   0.138787894   0.03245  -0.12845   0.12576  -0.01177
  0-1A  -> 22-1A    4.249036   34270.8   291.8   0.000034553   0.00001  -0.00174  -0.00223  -0.00028
  0-1A  -> 23-1A    4.258057   34343.5   291.2   0.003463244   0.00081  -0.00961   0.00689   0.02594
  0-1A  -> 24-1A    4.284388   34555.9   289.4   0.000006596   0.00000  -0.00054   0.00110  -0.00024
  0-1A  -> 25-1A    4.303743   34712.0   288.1   0.114496208   0.02716   0.10285  -0.12840   0.01002
  0-1A  -> 26-1A    4.303850   34712.9   288.1   0.113530520   0.02693  -0.12843  -0.10146   0.01209
  0-1A  -> 27-1A    4.331887   34939.0   286.2   0.000005814   0.00000   0.00072   0.00092  -0.00016
  0-1A  -> 28-1A    4.343877   35035.7   285.4   0.000004621   0.00000  -0.00065  -0.00082  -0.00012
  0-1A  -> 29-1A    4.373651   35275.9   283.5   0.002679966   0.00065   0.01856  -0.01731   0.00151
  0-1A  -> 30-1A    4.373736   35276.6   283.5   0.002648084   0.00064  -0.01739  -0.01820   0.00217

------------------------------------------------------------------------------------------
                     CD SPECTRUM VIA TRANSITION ELECTRIC DIPOLE MOMENTS    
------------------------------------------------------------------------------------------
     Transition      Energy     Energy  Wavelength    R        MX        MY        MZ   
                      (eV)      (cm-1)    (nm)   (1e40*cgs)   (au)      (au)      (au)  
------------------------------------------------------------------------------------------
  0-1A  ->  1-1A    2.281792   18403.9   543.4   -2.26168   0.00857   0.00684  -0.00044
  0-1A  ->  2-1A    2.281846   18404.3   543.4   -2.27154   0.00710  -0.00846   0.00092
  0-1A  ->  3-1A    3.059905   24679.8   405.2  -35.00009  -0.00907  -0.01229   0.00113
  0-1A  ->  4-1A    3.059994   24680.5   405.2  -35.54373   0.01326  -0.00803   0.00074
  0-1A  ->  5-1A    3.761302   30336.9   329.6   -9.07585  -0.01948  -0.11105  -1.16998
  0-1A  ->  6-1A    3.768146   30392.2   329.0   -0.32103  -0.00093   0.00111   0.00620
  0-1A  ->  7-1A    3.768331   30393.6   329.0   -0.57561  -0.00168  -0.00040   0.00435
  0-1A  ->  8-1A    3.801547   30661.5   326.1   -0.00004   0.00027   0.00002  -0.00001
  0-1A  ->  9-1A    3.943784   31808.8   314.4    0.00050  -0.00013  -0.00038  -0.00016
  0-1A  -> 10-1A    3.996670   32235.3   310.2   -0.00092   0.00015   0.00034  -0.00032
  0-1A  -> 11-1A    4.064382   32781.5   305.1   -0.00032  -0.00044   0.00026  -0.00041
  0-1A  -> 12-1A    4.077533   32887.5   304.1   -5.38135   0.06043  -0.04255   0.00241
  0-1A  -> 13-1A    4.077711   32889.0   304.1   -5.54398  -0.04139  -0.06035   0.00952
  0-1A  -> 14-1A    4.079150   32900.6   303.9   -0.34980  -0.01467  -0.00557   0.00041
  0-1A  -> 15-1A    4.084452   32943.3   303.6   -0.02406   0.00039   0.00286   0.00061
  0-1A  -> 16-1A    4.144249   33425.6   299.2   18.30788   0.00270   0.03061   0.30587
  0-1A  -> 17-1A    4.174948   33673.2   297.0   -0.00696  -0.00286   0.00409  -0.00373
  0-1A  -> 18-1A    4.206683   33929.2   294.7  -10.77526  -0.14449   0.09403  -0.00504
  0-1A  -> 19-1A    4.206727   33929.5   294.7   -8.94073  -0.09521  -0.14434   0.01604
  0-1A  -> 20-1A    4.241520   34210.2   292.3   14.23340   0.01782   0.01829  -0.00819
  0-1A  -> 21-1A    4.241881   34213.1   292.3   15.43897  -0.02005   0.02164   0.01497
  0-1A  -> 22-1A    4.249036   34270.8   291.8    0.00198   0.00088  -0.00151   0.00425
  0-1A  -> 23-1A    4.258057   34343.5   291.2  -21.57508  -0.01136  -0.02420  -0.27176
  0-1A  -> 24-1A    4.284388   34555.9   289.4    0.00834  -0.00140   0.00252   0.00352
  0-1A  -> 25-1A    4.303743   34712.0   288.1   44.95641   0.05688  -0.07073   0.00372
  0-1A  -> 26-1A    4.303850   34712.9   288.1   43.12948  -0.06866  -0.05364   0.00846
  0-1A  -> 27-1A    4.331887   34939.0   286.2   -0.00219  -0.00090  -0.00012  -0.00012
  0-1A  -> 28-1A    4.343877   35035.7   285.4   -0.00142  -0.00041   0.00096  -0.00028
  0-1A  -> 29-1A    4.373651   35275.9   283.5    0.04833   0.00045  -0.00043   0.00041
  0-1A  -> 30-1A    4.373736   35276.6   283.5    0.07905  -0.00034  -0.00112   0.00030

------------------------------------------------------------------------------------------
                     CD SPECTRUM VIA TRANSITION VELOCITY DIPOLE MOMENTS    
------------------------------------------------------------------------------------------
     Transition      Energy     Energy  Wavelength    R        MX        MY        MZ   
                      (eV)      (cm-1)    (nm)   (1e40*cgs)   (au)      (au)      (au)  
------------------------------------------------------------------------------------------
  0-1A  ->  1-1A    2.281792   18403.9   543.4   -2.25645   0.00857   0.00684  -0.00044
  0-1A  ->  2-1A    2.281846   18404.3   543.4   -2.26696   0.00710  -0.00846   0.00092
  0-1A  ->  3-1A    3.059905   24679.8   405.2  -34.89802  -0.00907  -0.01229   0.00113
  0-1A  ->  4-1A    3.059994   24680.5   405.2  -35.43821   0.01326  -0.00803   0.00074
  0-1A  ->  5-1A    3.761302   30336.9   329.6   -9.19529  -0.01948  -0.11105  -1.16998
  0-1A  ->  6-1A    3.768146   30392.2   329.0   -0.31975  -0.00093   0.00111   0.00620
  0-1A  ->  7-1A    3.768331   30393.6   329.0   -0.57352  -0.00168  -0.00040   0.00435
  0-1A  ->  8-1A    3.801547   30661.5   326.1   -0.00004   0.00027   0.00002  -0.00001
  0-1A  ->  9-1A    3.943784   31808.8   314.4    0.00050  -0.00013  -0.00038  -0.00016
  0-1A  -> 10-1A    3.996670   32235.3   310.2   -0.00092   0.00015   0.00034  -0.00032
  0-1A  -> 11-1A    4.064382   32781.5   305.1   -0.00032  -0.00044   0.00026  -0.00041
  0-1A  -> 12-1A    4.077533   32887.5   304.1   -5.36415   0.06043  -0.04255   0.00241
  0-1A  -> 13-1A    4.077711   32889.0   304.1   -5.52800  -0.04139  -0.06035   0.00952
  0-1A  -> 14-1A    4.079150   32900.6   303.9   -0.34849  -0.01467  -0.00557   0.00041
  0-1A  -> 15-1A    4.084452   32943.3   303.6   -0.02394   0.00039   0.00286   0.00061
  0-1A  -> 16-1A    4.144249   33425.6   299.2   17.89370   0.00270   0.03061   0.30587
  0-1A  -> 17-1A    4.174948   33673.2   297.0   -0.00744  -0.00286   0.00409  -0.00373
  0-1A  -> 18-1A    4.206683   33929.2   294.7  -10.97678  -0.14449   0.09403  -0.00504
  0-1A  -> 19-1A    4.206727   33929.5   294.7   -9.15194  -0.09521  -0.14434   0.01604
  0-1A  -> 20-1A    4.241520   34210.2   292.3   14.27024   0.01782   0.01829  -0.00819
  0-1A  -> 21-1A    4.241881   34213.1   292.3   15.48841  -0.02005   0.02164   0.01497
  0-1A  -> 22-1A    4.249036   34270.8   291.8    0.00196   0.00088  -0.00151   0.00425
  0-1A  -> 23-1A    4.258057   34343.5   291.2  -21.41579  -0.01136  -0.02420  -0.27176
  0-1A  -> 24-1A    4.284388   34555.9   289.4    0.00806  -0.00140   0.00252   0.00352
  0-1A  -> 25-1A    4.303743   34712.0   288.1   44.61793   0.05688  -0.07073   0.00372
  0-1A  -> 26-1A    4.303850   34712.9   288.1   42.81212  -0.06866  -0.05364   0.00846
  0-1A  -> 27-1A    4.331887   34939.0   286.2   -0.00219  -0.00090  -0.00012  -0.00012
  0-1A  -> 28-1A    4.343877   35035.7   285.4   -0.00142  -0.00041   0.00096  -0.00028
  0-1A  -> 29-1A    4.373651   35275.9   283.5    0.04822   0.00045  -0.00043   0.00041
  0-1A  -> 30-1A    4.373736   35276.6   283.5    0.07895  -0.00034  -0.00112   0.00030

Total run time:    17723.014 sec

           *** ORCA-CIS/TD-DFT FINISHED WITHOUT ERROR ***
-----------------------
CIS/TD-DFT TOTAL ENERGY
-----------------------

    E(SCF)  =  -2111.116153049 Eh
    DE(CIS) =      0.083854326 Eh (Root  1)
    ----------------------------- ---------
    E(tot)  =  -2111.032298723 Eh


Maximum memory used throughout the entire CIS-calculation: 2524.1 MB
=> NOW LEAVING ORCA_CIS

-------------------------   --------------------
FINAL SINGLE POINT ENERGY     -2111.032298722980
-------------------------   --------------------



           ************************************************************
           *        Program running with 8 parallel MPI-processes     *
           *              working on a common directory               *
           ************************************************************

------------------------------------------------------------------------------
                              ORCA PROPERTY CALCULATIONS
------------------------------------------------------------------------------

GBWName                                 ... tddft.gbw
Number of atoms                         ...     77
Number of basis functions               ...   1688
Max core memory                         ...   3000 MB

Electric properties:
Dipole moment                           ... YES
Quadrupole moment                       ...  NO
Static polarizability (Dipole/Dipole)   ...  NO
Static polarizability (Dipole/Quad.)    ...  NO
Static polarizability (Quad./Quad.)     ...  NO
Static polarizability (Velocity)        ...  NO
Static hyperpolarizability              ...  NO

Atomic electric properties:
Dipole moment                           ...  NO
Quadrupole moment                       ...  NO
Static polarizability                   ...  NO

Choice of electric origin               ... Center of mass
Position of electric origin             ...    -0.159849     5.088964     6.548248

General magnetic properties:
Magnetizability                         ...  NO

EPR properties:
g-Tensor (aka g-matrix)                 ...  NO
Zero-Field splitting spin-orbit         ...  NO
Zero-field splitting spin-spin          ...  NO
Hyperfine couplings                     ...  NO (   0 nuclei)
Quadrupole couplings                    ...  NO (   0 nuclei)
Contact density                         ...  NO (   0 nuclei)

NMR properties:
Chemical shifts                         ...  NO (   0 nuclei)
Spin-rotation constants                 ...  NO (   0 nuclei)
Spin-spin couplings                     ...  NO (   0 nuclei,    0 pairs)

Choice of magnetic origin               ... GIAO
Position of magnetic origin             ...     0.000000     0.000000     0.000000

Properties with geometric perturbations:
SCF Hessian                             ...  NO
IR spectrum                             ...  NO
VCD spectrum                            ...  NO
X-ray spectroscopy properties:
SCF XES/XAS/RIXS spectra                ...  NO

SCF SOC stabilization energy            ...  NO
Diagonal Born-Oppenheimer correction    ...  NO

-------------
DIPOLE MOMENT
-------------

Method             : SCF
Type of density    : Electron Density
Multiplicity       :   1
Irrep              :   0
Energy             : -2111.1161530492113343 Eh
Basis              : AO
                                X                 Y                 Z
Electronic contribution:     -0.006172137      -0.000590275       0.013954453
Nuclear contribution   :      0.006551862       0.000121054      -0.014501534
                        -----------------------------------------
Total Dipole Moment    :      0.000379724      -0.000469221      -0.000547082
                        -----------------------------------------
Magnitude (a.u.)       :      0.000814652
Magnitude (Debye)      :      0.002070680



--------------------
Rotational spectrum 
--------------------
 
Rotational constants in cm-1:             0.001944             0.001943             0.001012 
Rotational constants in MHz :            58.267391            58.258492            30.324103 

Dipole components along the rotational axes: 
x,y,z [a.u.] :     0.000403    -0.000402    -0.000583 
x,y,z [Debye]:     0.001023    -0.001021    -0.001483 

 

Dipole moment calculation done in   1.2 sec 

Maximum memory used throughout the entire PROP-calculation: 230.7 MB

--------------------------------
SUGGESTED CITATIONS FOR THIS RUN
--------------------------------

Below you find a list of papers that are relevant to this ORCA run
We neither can nor want to force you to cite these papers, but we appreciate if you do
You receive ORCA, which is the product of decades of hard work by many enthusiastic individuals, for free
The only thing we kindly ask in return is that you cite our papers,
We deeply appreciate it, if you show your appreciation for ORCA by not just citing the generic ORCA reference.

Please note that relegating all ORCA citations to the supporting information does *not* help us.
SI sections are not indexed - citations you put there will not count into any citation statistics
But we need these citations in order to attract the funding resources that allow us to do what we are doing

Therefore, if you are a happy ORCA user, please consider citing a few of the papers listed below in the main body of your paper

In addition to the list printed below, the program has created the file tddft.bibtex that contains the list in bibtex format
You can import this file easily into all common literature databanks and citation aid programs

It goes without saying that in many instances, there are alternative algorithms to achieve similar
results as the ones you have gotten from ORCA. It is, of course, also the case that in some instances
ORCA just re-implements algorithms worked out by others. We are fully aware of that and we are also
fully appreciative of our colleagues work. Hence this citation list should not be read as indicating
that the listed papers, which are focused on our own work, are the only ones worth citing. It simply
meant to make it easier for users to cite ORCA specific papers. It is not a substitute for doing your
own literature research and citing the relevant literature in a scientifically appropriate manner.

List of essential papers. We consider these as the minimum necessary citations

  1. Neese, F.
     Software update: the ORCA program system, version 6.0
     WIRES Comput. Molec. Sci. 2025 15(1), e70019
     doi.org/10.1002/wcms.70019

List of papers to cite with high priority. The work reported in these papers was absolutely
necessary for this run to complete.
Our perspective: the developers of density functionals and basis sets usually get cited in chemistry papers
Good! But without the algorithms to do something with them, the functionals or basis sets would not do anything.
Hence, in our opinion, the algorithm design and method developments papers are equally worthy of getting cited

  1. Neese, F.; Olbrich, G.
     Efficient use of the resolution of the identity approximation in time-dependent density functional calculations with hybrid density functionals
     Chem. Phys. Lett. 2002 362 , 170-178
     doi.org/10.1016/s0009-2614(02)01053-9
  2. Neese, F.
     An improvement of the resolution of the identity approximation for the formation of the Coulomb matrix
     J. Comp. Chem. 2003 24(14), 1740-1747
     doi.org/10.1002/jcc.10318
  3. Neese, F.; Wennmohs, F.; Hansen, A.; Becker, U.
     Efficient, approximate and parallel Hartree-Fock and hybrid DFT calculations. A 'chain-of-spheres' algorithm for the Hartree-Fock exchange
     Chem. Phys. 2009 356(1-3), 98-109
     doi.org/10.1016/j.chemphys.2008.10.036
  4. Garcia-Rates, M.; Neese, F.
     Effect of the Solute Cavity on the Solvation Energy and its Derivatives within the Framework of the Gaussian Charge Scheme
     J. Comput. Chem. 2020 41 , 922-939
     doi.org/10.1002/jcc.26139
  5. Helmich-Paris, B.; de Souza, B.; Neese, F.; Izsák, R.
     An improved chain of spheres for exchange algorithm
     J. Chem. Phys. 2021 155(10), 104109
     doi.org/10.1063/5.0058766
  6. Neese, F.
     The SHARK Integral Generation and Digestion System
     J. Comp. Chem. 2022 44(3), 381
     doi.org/10.1002/jcc.26942

List of suggested additional citations. These are papers that are important in the 'surrounding' of 
of this run, or papers that preceded the highly important papers. If you like your results we are grateful for a citation.

  1. Izsak, R.; Neese, F.
     An overlap fitted chain of spheres exchange method
     J. Chem. Phys. 2011 135 , 144105
     doi.org/10.1063/1.3646921
  2. Izsak, R.; Hansen, A.; Neese, F.
     The resolution of identity and chain of spheres approximations for the LPNO-CCSD singles Fock term
     Molec. Phys. 2012 110 , 2413-2417
     doi.org/10.1080/00268976.2012.687466
  3. Neese, F.
     The ORCA program system
     WIRES Comput. Molec. Sci. 2012 2(1), 73-78
     doi.org/10.1002/wcms.81
  4. Izsak, R.; Neese, F.; Klopper, W.
     Robust fitting techniques in the chain of spheres approximation to the Fock exchange: The role of the complementary space
     J. Chem. Phys. 2013 139 , 
     doi.org/10.1063/1.4819264
  5. Neese, F.
     Software update: the ORCA program system, version 4.0
     WIRES Comput. Molec. Sci. 2018 8(1), 1-6
     doi.org/10.1002/wcms.1327
  6. Neese, F.; Wennmohs, F.; Becker, U.; Riplinger, C.
     The ORCA quantum chemistry program package
     J. Chem. Phys. 2020 152(22), 224108
     doi.org/10.1063/5.0004608
  7. Neese, F.
     Software update: The ORCA program system—Version 5.0
     WIRES Comput. Molec. Sci. 2022 12(1), e1606
     doi.org/10.1002/wcms.1606

List of optional additional citations

  1. Neese, F.
     Approximate second-order SCF convergence for spin unrestricted wavefunctions
     Chem. Phys. Lett. 2000 325(1-3), 93-98
     doi.org/10.1016/s0009-2614(00)00662-x

Timings for individual modules:

Sum of individual times          ...    20128.204 sec (= 335.470 min)
Startup calculation              ...       32.270 sec (=   0.538 min)   0.2 %
SCF iterations                   ...     2362.750 sec (=  39.379 min)  11.7 %
Property integrals               ...        4.621 sec (=   0.077 min)   0.0 %
Property calculations            ...        4.618 sec (=   0.077 min)   0.0 %
CIS module                       ...    17723.944 sec (= 295.399 min)  88.1 %
                             ****ORCA TERMINATED NORMALLY****
TOTAL RUN TIME: 0 days 5 hours 35 minutes 28 seconds 824 msec
