
                                 *****************
                                 * O   R   C   A *
                                 *****************

                                            #,                                       
                                            ###                                      
                                            ####                                     
                                            #####                                    
                                            ######                                   
                                           ########,                                 
                                     ,,################,,,,,                         
                               ,,#################################,,                 
                          ,,##########################################,,             
                       ,#########################################, ''#####,          
                    ,#############################################,,   '####,        
                  ,##################################################,,,,####,       
                ,###########''''           ''''###############################       
              ,#####''   ,,,,##########,,,,          '''####'''          '####       
            ,##' ,,,,###########################,,,                        '##       
           ' ,,###''''                  '''############,,,                           
         ,,##''                                '''############,,,,        ,,,,,,###''
      ,#''                                            '''#######################'''  
     '                                                          ''''####''''         
             ,#######,   #######,   ,#######,      ##                                
            ,#'     '#,  ##    ##  ,#'     '#,    #''#        ,####,    ,#,          
            ##       ##  ##   ,#'  ##            #'  '#       #'       ,# #          
            ##       ##  #######   ##           ,######,      #####,      #          
            '#,     ,#'  ##    ##  '#,     ,#' ,#      #,     #,   #      #          
             '#######'   ##     ##  '#######'  #'      '#     '####' #    #          



                #########################################################
                #                        -***-                          #
                #          Department of theory and spectroscopy        #
                #                                                       #
                #                      Frank Neese                      #
                #                                                       #
                #     Directorship, Architecture, Infrastructure        #
                #                    SHARK, DRIVERS                     #
                #        Core code/Algorithms in most modules           #
                #                                                       #
                #        Max Planck Institute fuer Kohlenforschung      #
                #                Kaiser Wilhelm Platz 1                 #
                #                 D-45470 Muelheim/Ruhr                 #
                #                      Germany                          #
                #                                                       #
                #                  All rights reserved                  #
                #                        -***-                          #
                #########################################################


                         Program Version 6.1.1  -  RELEASE   -
                                (GIT: $487d211c$)
                          ($2025-11-21 10:33:24 +0100$)


 With contributions from (in alphabetic order):
[Max-Planck-Institut fuer Kohlenforschung]                               
  Daniel Aravena         : Magnetic Suceptibility                        
  Michael Atanasov       : Ab Initio Ligand Field Theory (pilot matlab implementation)
  Alexander A. Auer      : GIAO ZORA, VPT2 properties, NMR spectrum      
  Ute Becker             : All parallelization in ORCA, NUMFREQ, NUMCALC 
  Giovanni Bistoni       : ED, misc. LED, open-shell LED, HFLD           
  Dmytro Bykov           : pre 5.0 version of the SCF Hessian            
  Marcos Casanova-Páez   : Triplet and SCS-CIS(D). UHF-(DLPNO)-IP/EA/STEOM-CCSD. UHF-CVS-IP/STEOM-CCSD   
  Vijay G. Chilkuri      : MRCI spin determinant printing, contributions to CSF-ICE 
  Pauline Colinet        : FMM embedding                                 
  Dipayan Datta          : RHF DLPNO-CCSD density                        
  Achintya Kumar Dutta   : EOM-CC, STEOM-CC                              
  Nicolas Foglia         : Exact transition moments, OPA infrastructure, MCD improvements    
  Dmitry Ganyushin       : Spin-Orbit,Spin-Spin,Magnetic field MRCI      
  Miquel Garcia-Rates    : C-PCM and meta-GGA Hessian, CCSD/C-PCM, Gaussian charge scheme 
  Tiago L. C. Gouveia    : GS-ROHF, GS-ROCIS                             
  Yang Guo               : DLPNO-NEVPT2, F12-NEVPT2, CIM, IAO-localization        
  Andreas Hansen         : Spin unrestricted coupled pair/coupled cluster methods 
  Ingolf Harden          : AUTO-CI MPn and infrastructure                
  Benjamin Helmich-Paris : MC-RPA, TRAH-(SCF,CASSCF), AVAS, COSX integrals, SCF dyn. polar., MC-PDFT, srDFT 
  Lee Huntington         : MR-EOM, pCC                                   
  Robert Izsak           : Overlap fitted RIJCOSX, COSX-SCS-MP3, EOM     
  Riya Kayal             : Wick's Theorem for AUTO-CI, AUTO-CI UHF-CCSDT 
  Emily Kempfer          : AUTO-CI RHF CISDT and CCSDT, approximate NEVPT4
  Christian Kollmar      : KDIIS, OOCD, Brueckner-CCSD(T), CCSD density, CASPT2, CASPT2-K, improved NEVPT2 
  Axel Koslowski         : Symmetry handling                             
  Simone Kossmann        : meta-GGA functionals, TD-DFT gradient, OOMP2, (MP2 Hessian; deprecated post 5.0) 
  Lucas Lang             : DCDCAS, Hyperfine gauge corrections, ICE-SOC+SSC
  Marvin Lechner         : AUTO-CI (C++ implementation), FIC-MRCC        
  Spencer Leger          : CASSCF response                               
  Dagmar Lenk            : GEPOL surface, SMD, ORCA-2-JSON               
  Dimitrios Liakos       : Extrapolation schemes; Compound Job, Property file
  Dimitrios Manganas     : Further ROCIS development; embedding schemes. LFT, Crystal Embedding 
  Dimitrios Pantazis     : SARC Basis sets                               
  Anastasios Papadopoulos: AUTO-CI, single reference methods and gradients 
  Taras Petrenko         : pre 6.0 DFT Hessian and TD-DFT gradient,  ECA, NRVS 
  Petra Pikulova         : Analytic Raman intensities                    
  Peter Pinski           : DLPNO-MP2, DLPNO-MP2 Gradient                 
  Shashank Vittal Rao    : ES-AILFT, MagRelax                            
  Christoph Reimann      : Effective Core Potentials                     
  Marius Retegan         : Local ZFS, SOC                                
  Christoph Riplinger    : Optimizer, TS searches, QM/MM, DLPNO-CCSD(T), (RO)-DLPNO pert. Triples 
  Michael Roemelt        : Original ROCIS implementation, recursive CI coupling coefficients
  Masaaki Saitow         : Open-shell DLPNO-CCSD energy and density      
  Barbara Sandhoefer     : DKH picture change effects                    
  Yorick L. A. Schmerwitz: GMF and freeze-and-release deltaSCF, NEB S-IDPP initial path                    
  Kantharuban Sivalingam : CASSCF convergence/infrastructure, NEVPT2, NEVPT3, NEVPT4(SD), FIC-MRCI and CEPA variants
  Bernardo de Souza      : ESD, SOC TD-DFT                               
  Georgi L. Stoychev     : AutoAux, RI-MP2 NMR, DLPNO-MP2 response, X2C  
  Van Anh Tran           : RI-MP2 g-tensors                              
  Willem Van den Heuvel  : Paramagnetic NMR                              
  Zikuan Wang            : NOTCH, Electric field optimization            
  Frank Wennmohs         : Technical directorship and infrastructure     
  Hang Xu                : AUTO-CI-Response properties                   
                                                                         
[FACCTs GmbH]                                                            
  Markus Bursch, Nicolas Foglia, Miquel Garcia-Rates, Ingolf Harden, Hagen Neugebauer, Anastasios Papadopoulos, 
  Christoph Riplinger, Bernardo de Souza, Georgi L. Stoychev                                                    
                                                                 
  APM, various basis sets, CI-OPT, improved COSX, DLPNO-Multilevel,           
  DOCKER, DRACO, updates on ESD, Fragmentator, GOAT, IRC, LR-CPCM, L-BFGS, MBIS, meta-GGA TD-DFT gradient, ML-optimized integration grids, 
  MM, NACMEs, nearIR, NEB, NEB-TS, NL-DFT gradient (VV10), 2- and 3-layer-ONIOM, interface openCOSMO-RS, QMMM,   
  Crystal-QMMM, RESP, rigid body optimization, SF, symmetry and pop. for TD-DFT, various functionals, SOLVATOR                                   
                                                                         
[Other institutions]                                                     
  V. Asgeirsson          : NEB                                           
  Christoph Bannwarth    : sTDA-DFT, sTD-DFT, PBEh-3c, B97-3c, D3        
  Giovanni Bistoni       : ETS/NOCV, ADLD/ADEX, COVALED                  
  Martin Brehm           : Molecular dynamics                            
  Ronald Cardenas        : ETS/NOCV                                      
  Martina Colucci        : COVALED                                       
  Sebastian Ehlert       : rSCAN, r2SCAN, r2SCAN-3c, D4, dhf basis sets  
  Marvin Friede          : D4 for Fr, Ra, Ac-Lr                          
  Lars Goerigk           : TD-DFT with DH, B97 family of functionals     
  Stefan Grimme          : VdW corrections, initial TS optimization, DFT functionals, gCP, sTDA/sTD-DF 
  Waldemar Hujo          : DFT-NL                                        
  H. Jonsson             : NEB                                           
  Holger Kruse           : gCP                                           
  Marcel Mueller         : wB97X-3c, vDZP basis set                      
  Hagen Neugebauer       : wr2SCAN, Native XTB                           
  Gianluca Regni         : ADLD/ADEX                                     
  Tobias Risthaus        : pre 6.0 range-separated hybrid DFT and stability analysis
  Lukas Wittmann         : regularized MP2, r2SCAN double-hybrids, wr2SCAN        
                                                                         
We gratefully acknowledge several colleagues who have allowed us to      
interface, adapt or use parts of their codes:                            
  Ed Valeev, F. Pavosevic, A. Kumar             : LibInt (2-el integral package), F12 methods 
  Garnet Chan, S. Sharma, J. Yang, R. Olivares  : DMRG                   
  Ulf Ekstrom                                   : XCFun DFT Library      
  Mihaly Kallay                                 : mrcc  (arbitrary order and MRCC methods)
  Frank Weinhold                                : gennbo (NPA and NBO analysis)           
  Simon Mueller                                 : openCOSMO-RS                            
  Christopher J. Cramer and Donald G. Truhlar   : smd solvation model                     
  S Lehtola, MJT Oliveira, MAL Marques          : LibXC Library                           
  Liviu Ungur et al                             : ANISO software                          


 Your calculation uses the libint2 library for the computation of 2-el integrals
 For citations please refer to: http://libint.valeyev.net

 Your ORCA version has been built with support for libXC version: 7.0.0
 For citations please refer to: https://libxc.gitlab.io

 This ORCA versions uses:
   CBLAS   interface :  Fast vector & matrix operations
   LAPACKE interface :  Fast linear algebra routines
   SCALAPACK package :  Parallel linear algebra routines
   Shared memory     :  Shared parallel matrices
   BLAS/LAPACK       :  OpenBLAS 0.3.29  USE64BITINT DYNAMIC_ARCH NO_AFFINITY Haswell SINGLE_THREADED
        Core in use  :  Haswell
   Copyright (c) 2011-2014, The OpenBLAS Project


  ***********************************
  * Starting time: Mon Jun 15 00:29:22 2026
  * Host name:     steezy
  * Process ID:    2953439
  * Working dir.:  /home/jannes/mgtpp/04_tddft_tda_comparison/runs/tdaon_m062x
  ***********************************

NOTE: MaxCore=3000 MB was set to SCF,MP2,MDCI,CIPSI,MRCI,RASCI and CIS
      => If you want to overwrite this, your respective input block should be placed after the MaxCore statement


***************************************
The coordinates will be read from file: /home/jannes/mgtpp/01_opt/mgtpp_opt_b3lyp_tzvp.xyz
***************************************


XCFun DFT library Copyright 2009-2010 Ulf Ekstrom and contributors.
See http://admol.org/xcfun for more information.
This is free software; see the source code for copying conditions.
There is ABSOLUTELY NO WARRANTY; not even for MERCHANTABILITY or FITNESS FOR A PARTICULAR PURPOSE.
For details see the documentation.
Scientific users of this library should cite U. Ekstrom, L. Visscher, R. Bast, A. J. Thorvaldsen and K. Ruud;
J.Chem.Theor.Comp. 2010, DOI: 10.1021/ct100117s
XCFun Version 0.99 

================================================================================

----- Orbital basis set information -----
Your calculation utilizes the basis: def2-TZVP
   F. Weigend and R. Ahlrichs, Phys. Chem. Chem. Phys. 7, 3297 (2005).

----- AuxJ basis set information -----
Your calculation utilizes the auxiliary basis: def2/J
   H-Rn: F. Weigend, Phys. Chem. Chem. Phys. 8, 1057 (2006).
   Fr-Lr: K. Eichkorn, F. Weigend, O. Treutler, R. Ahlrichs; Theor. Chem. Acc. 97, 119 (1997).

================================================================================
                                        WARNINGS
                       Please study these warnings very carefully!
================================================================================

WARNING: Functional chosen is sensitive to the integration grid.
         DEFGRID3 seems to be a minimum grid for robust results!

WARNING: CIS/ROCIS methods need fully converged wavefunctions
  ===> : Setting SCFConvForced true
         You can overwrite this default with %scf ConvForced false 


================================================================================
                                       INPUT FILE
================================================================================
NAME = tddft.inp
|  1> %pal nprocs 8 end
|  2> %maxcore 3000
|  3> ! M062X def2-TZVP def2/J RIJCOSX DefGrid3 TightSCF CPCM(Toluene)
|  4> %tddft
|  5>   nroots 30
|  6>   triplets false
|  7> end
|  8> * xyzfile 0 1 /home/jannes/mgtpp/01_opt/mgtpp_opt_b3lyp_tzvp.xyz
|  9> 
| 10>                          ****END OF INPUT****
================================================================================

                       ****************************
                       * Single Point Calculation *
                       ****************************

---------------------------------
CARTESIAN COORDINATES (ANGSTROEM)
---------------------------------
  N     -2.132782    2.520982    3.513584
  H      1.679617   -2.258823    3.910366
  C     -4.375479    3.011680    3.504687
  C     -0.398226   -1.579010    3.872638
  N      0.090830    0.653535    3.656021
  C      0.954286   -1.465385    3.843438
  H     -0.977688   -2.482435    3.962791
  C      2.868723    1.838465    3.504305
  N     -0.260569    4.732470    3.276338
  C     -1.123876    6.851501    3.089028
  C      2.556883    0.474350    3.636098
  C      2.680107    4.027385    3.292968
  N      1.962924    2.864942    3.418265
  C      4.089820    3.721502    3.302785
  C     -0.939102   -0.246509    3.759221
  C      1.259741   -0.062511    3.703416
  C     -2.850174    1.358051    3.633086
  C     -3.038341    3.548279    3.434420
  C     -4.259729    1.665028    3.631888
  C     -2.309465    0.065876    3.749063
  C     -2.726504    4.911917    3.298069
  C      4.205746    2.374704    3.428271
  C     -1.429470    5.448150    3.224446
  C      0.228548    6.964522    3.054127
  C      2.139518    5.319764    3.180041
  C      0.769411    5.632748    3.175667
  H     -5.283234    3.589919    3.462669
  H     -5.055915    0.944668    3.717118
  H      5.113506    1.796209    3.466048
  H      4.885916    4.442736    3.224054
  H      0.808093    7.867022    2.955342
  H     -1.849084    7.645562    3.028370
  Mg    -0.084919    2.692996    3.466091
  C      3.703495   -0.488201    3.711904
  C      4.101097   -1.215525    2.587737
  C      5.165592   -2.108030    2.657336
  C      5.849374   -2.288349    3.854678
  C      5.462233   -1.570166    4.980745
  C      4.398318   -0.677200    4.908689
  H      3.572273   -1.076734    1.652653
  H      5.461204   -2.660972    1.774105
  H      6.677910   -2.983489    3.909795
  H      5.987070   -1.705473    5.918549
  H      4.098897   -0.121111    5.788694
  C     -3.274743   -1.074068    3.873336
  C     -3.919889   -1.589806    2.746971
  C     -4.815224   -2.648008    2.861564
  C     -5.081050   -3.207004    4.106767
  C     -4.445489   -2.701389    5.235531
  C     -3.549452   -1.644091    5.118594
  H     -3.714517   -1.158773    1.774687
  H     -5.303562   -3.036316    1.976146
  H     -5.778536   -4.030491    4.196889
  H     -4.647956   -3.128218    6.210244
  H     -3.058018   -1.252160    6.000733
  C     -3.872844    5.874939    3.223553
  C     -4.310229    6.369574    1.992756
  C     -5.373793    7.263047    1.921894
  C     -6.016961    7.677520    3.083040
  C     -5.590067    7.192252    4.314284
  C     -4.527122    6.297837    4.382858
  H     -3.813083    6.048242    1.085609
  H     -5.700324    7.633616    0.957908
  H     -6.844813    8.373553    3.028823
  H     -6.083198    7.510781    5.224553
  H     -4.196875    5.923693    5.344245
  C      3.105171    6.459067    3.051802
  C      3.692305    6.761120    1.820939
  C      4.588737    7.817613    1.699925
  C      4.913564    8.589219    2.810246
  C      4.335714    8.297774    4.041028
  C      3.438490    7.241601    4.159639
  H      3.440981    6.163649    0.953078
  H      5.031793    8.038132    0.736437
  H      5.611836    9.411705    2.717096
  H      4.584023    8.891578    4.912210
  H      2.992103    7.017052    5.120716

----------------------------
CARTESIAN COORDINATES (A.U.)
----------------------------
  NO LB      ZA    FRAG     MASS         X           Y           Z
   0 N     7.0000    0    14.007   -4.030373    4.763966    6.639711
   1 H     1.0000    0     1.008    3.174016   -4.268557    7.389520
   2 C     6.0000    0    12.011   -8.268457    5.691251    6.622899
   3 C     6.0000    0    12.011   -0.752537   -2.983896    7.318226
   4 N     7.0000    0    14.007    0.171644    1.235003    6.908878
   5 C     6.0000    0    12.011    1.803339   -2.769176    7.263045
   6 H     1.0000    0     1.008   -1.847562   -4.691123    7.488589
   7 C     6.0000    0    12.011    5.421100    3.474195    6.622177
   8 N     7.0000    0    14.007   -0.492404    8.943073    6.191381
   9 C     6.0000    0    12.011   -2.123818   12.947460    5.837416
  10 C     6.0000    0    12.011    4.831809    0.896392    6.871230
  11 C     6.0000    0    12.011    5.064669    7.610655    6.222807
  12 N     7.0000    0    14.007    3.709389    5.413957    6.459585
  13 C     6.0000    0    12.011    7.728640    7.032619    6.241359
  14 C     6.0000    0    12.011   -1.774645   -0.465835    7.103898
  15 C     6.0000    0    12.011    2.380565   -0.118129    6.998441
  16 C     6.0000    0    12.011   -5.386048    2.566345    6.865537
  17 C     6.0000    0    12.011   -5.741633    6.705275    6.490113
  18 C     6.0000    0    12.011   -8.049721    3.146447    6.863274
  19 C     6.0000    0    12.011   -4.364257    0.124488    7.084702
  20 C     6.0000    0    12.011   -5.152345    9.282177    6.232447
  21 C     6.0000    0    12.011    7.947708    4.487541    6.478494
  22 C     6.0000    0    12.011   -2.701306   10.295511    6.093319
  23 C     6.0000    0    12.011    0.431893   13.161039    5.771463
  24 C     6.0000    0    12.011    4.043102   10.052896    6.009407
  25 C     6.0000    0    12.011    1.453976   10.644352    6.001141
  26 H     1.0000    0     1.008   -9.983866    6.783964    6.543496
  27 H     1.0000    0     1.008   -9.554295    1.785164    7.024335
  28 H     1.0000    0     1.008    9.663125    3.394342    6.549882
  29 H     1.0000    0     1.008    9.233044    8.395555    6.092579
  30 H     1.0000    0     1.008    1.527075   14.866517    5.584787
  31 H     1.0000    0     1.008   -3.494263   14.448018    5.722789
  32 Mg   12.0000    0    24.305   -0.160474    5.089025    6.549963
  33 C     6.0000    0    12.011    6.998591   -0.922565    7.014483
  34 C     6.0000    0    12.011    7.749950   -2.297008    4.890114
  35 C     6.0000    0    12.011    9.761555   -3.983599    5.021637
  36 C     6.0000    0    12.011   11.053714   -4.324353    7.284286
  37 C     6.0000    0    12.011   10.322124   -2.967184    9.412244
  38 C     6.0000    0    12.011    8.311617   -1.279722    9.276078
  39 H     1.0000    0     1.008    6.750618   -2.034732    3.123061
  40 H     1.0000    0     1.008   10.320181   -5.028509    3.352573
  41 H     1.0000    0     1.008   12.619421   -5.637977    7.388441
  42 H     1.0000    0     1.008   11.313922   -3.222877   11.184437
  43 H     1.0000    0     1.008    7.745793   -0.228867   10.939046
  44 C     6.0000    0    12.011   -6.188368   -2.029695    7.319544
  45 C     6.0000    0    12.011   -7.407517   -3.004298    5.191024
  46 C     6.0000    0    12.011   -9.099455   -5.004009    5.407573
  47 C     6.0000    0    12.011   -9.601794   -6.060359    7.760665
  48 C     6.0000    0    12.011   -8.400756   -5.104886    9.893719
  49 C     6.0000    0    12.011   -6.707493   -3.106883    9.672741
  50 H     1.0000    0     1.008   -7.019420   -2.189764    3.353672
  51 H     1.0000    0     1.008  -10.022280   -5.737807    3.734374
  52 H     1.0000    0     1.008  -10.919851   -7.616524    7.930970
  53 H     1.0000    0     1.008   -8.783365   -5.911476   11.735661
  54 H     1.0000    0     1.008   -5.778817   -2.366239   11.339742
  55 C     6.0000    0    12.011   -7.318615   11.102027    6.091633
  56 C     6.0000    0    12.011   -8.145153   12.036751    3.765764
  57 C     6.0000    0    12.011  -10.154997   13.725171    3.631853
  58 C     6.0000    0    12.011  -11.370408   14.508411    5.826101
  59 C     6.0000    0    12.011  -10.563696   13.591387    8.152815
  60 C     6.0000    0    12.011   -8.555020   11.901188    8.282401
  61 H     1.0000    0     1.008   -7.205683   11.429521    2.051503
  62 H     1.0000    0     1.008  -10.772052   14.425444    1.810183
  63 H     1.0000    0     1.008  -12.934822   15.823721    5.723646
  64 H     1.0000    0     1.008  -11.495578   14.193319    9.872973
  65 H     1.0000    0     1.008   -7.930944   11.194158   10.099160
  66 C     6.0000    0    12.011    5.867923   12.205869    5.767071
  67 C     6.0000    0    12.011    6.977445   12.776665    3.441075
  68 C     6.0000    0    12.011    8.671457   14.773148    3.212392
  69 C     6.0000    0    12.011    9.285290   16.231272    5.310596
  70 C     6.0000    0    12.011    8.193312   15.680520    7.636437
  71 C     6.0000    0    12.011    6.497804   13.684643    7.860578
  72 H     1.0000    0     1.008    6.502511   11.647608    1.801056
  73 H     1.0000    0     1.008    9.508710   15.189868    1.391664
  74 H     1.0000    0     1.008   10.604834   17.785546    5.134567
  75 H     1.0000    0     1.008    8.662547   16.802648    9.282732
  76 H     1.0000    0     1.008    5.654254   13.260307    9.676751

--------------------------------
INTERNAL COORDINATES (ANGSTROEM)
--------------------------------
 N      0   0   0     0.000000000000     0.00000000     0.00000000
 H      1   0   0     6.126855329357     0.00000000     0.00000000
 C      1   2   0     2.295769133195   140.79213807     0.00000000
 C      2   1   3     2.186549708108    33.38660231     0.36505468
 N      4   2   1     2.295725821932    95.82788655     0.09095297
 C      2   1   3     1.077092693640     3.85150056     2.09162491
 H      4   2   1     1.077070819340   104.41978534   179.96288643
 C      5   4   2     3.023865266525   125.55676336     0.11166825
 N      1   2   6     2.907257362329   101.42052387   181.91422582
 C      9   1   2     2.295795178635   117.81429197   180.02242555
 C      8   5   4     1.405496899374    53.92458718     0.03779823
 C      8   5   4     2.207172589612   108.35589016   179.76307688
 N     12   8   5     1.371613516291    36.43262200     0.17329619
 C     12   8   5     1.442550076138    72.87533357   180.07415276
 C      5   4   2     1.371674426107    36.37427985   180.37251744
 C      5   4   2     1.371612574923    70.76800154     0.23219254
 C      1   2   6     1.371619575259    70.02341670     1.85612268
 C      1   2   6     1.371730087584   177.15630369     5.97587101
 C      3   1   2     1.357589890726    72.80216719   359.95304185
 C     17   1   2     1.405536565970   125.83487943     0.09366032
 C     18   1  17     1.405469067731   125.85546027   180.26559898
 C     14  12   8     1.357589360726   107.12361011     0.19983052
 C      9   1   2     1.371575077204    81.44175047   179.94495588
 C     10   9   1     1.357587276934    72.80232389   180.16933284
 C     12   8   5     1.405429467262   162.27344014     0.83813114
 C      9   1   2     1.371675707321   171.41952863     0.03824775
 H      3   1   2     1.077100496928   159.74999488   180.25953249
 H     19   3   1     1.077077338377   127.43130158   179.82791890
 H     22  14  12     1.077084983978   127.44744025   179.69739367
 H     14  12   8     1.077101086105   125.43663657   180.20366353
 H     24  10   9     1.077096534207   127.45443232   179.85753388
 H     10   9   1     1.077097541933   159.75828880     0.53310854
 Mg    13  12   8     2.055606050552   126.43550651   180.06019481
 C     11   8   5     1.498989282988   117.27452497   180.13304197
 C     34  11   8     1.396724581542   120.75894288   260.01689972
 C     35  34  11     1.390884488100   120.77967458   179.95157356
 C     36  35  34     1.390575596770   120.17416869     0.06383067
 C     37  36  35     1.390572269206   119.56359354   359.96393605
 C     38  37  36     1.390861247794   120.17158367   359.97314775
 H     35  34  11     1.083189366330   119.28215266     0.12320002
 H     36  35  34     1.083156650446   119.71220349   180.18132819
 H     37  36  35     1.082926322306   120.21696134   179.96439740
 H     38  37  36     1.083161349761   120.11258722   179.85120178
 H     39  38  37     1.083188138256   119.93128689   179.88961748
 C     20  17   1     1.498892464170   117.27635023   179.83555470
 C     45  20  17     1.396744746557   120.75805895    79.50356453
 C     46  45  20     1.390880167394   120.78473073   179.96907332
 C     47  46  45     1.390564385753   120.17705909     0.07442139
 C     48  47  46     1.390572934770   119.56006095   359.97047586
 C     49  48  47     1.390839370010   120.17276971   359.96185086
 H     46  45  20     1.083191573814   119.29758564     0.15759396
 H     47  46  45     1.083154294075   119.71071430   180.18273845
 H     48  47  46     1.082930826873   120.22050345   179.95838139
 H     49  48  47     1.083163400019   120.11519157   179.83114167
 H     50  49  48     1.083183905041   119.92580323   179.88660474
 C     21  18   1     1.499020289368   117.28798408   179.72398695
 C     56  21  18     1.396721410460   120.71653922   260.55104232
 C     57  56  21     1.390856932927   120.78737548   179.99292393
 C     58  57  56     1.390579796248   120.17255169     0.05877075
 C     59  58  57     1.390570153966   119.55994938   359.96611660
 C     60  59  58     1.390875025766   120.17707541   359.97196552
 H     57  56  21     1.083201529200   119.28811259     0.14261226
 H     58  57  56     1.083149767515   119.71220131   180.16232012
 H     59  58  57     1.082931272380   120.22123367   179.96845591
 H     60  59  58     1.083156416554   120.11314103   179.86695053
 H     61  60  59     1.083195532775   119.92563663   179.89758366
 C     25  12   8     1.498981196444   117.25803690   179.52387829
 C     67  25  12     1.396777768498   120.69986376    80.52329734
 C     68  67  25     1.390831652439   120.78822075   180.01410426
 C     69  68  67     1.390576172584   120.17081329     0.05908974
 C     70  69  68     1.390566770699   119.56087131   359.96273928
 C     71  70  69     1.390892103912   120.17793429   359.97535578
 H     68  67  25     1.083198152583   119.28960554     0.16639622
 H     69  68  67     1.083159804820   119.71470417   180.16298856
 H     70  69  68     1.082933302780   120.22323348   179.96819721
 H     71  70  69     1.083152161424   120.11387427   179.86380867
 H     72  71  70     1.083214366481   119.92750176   179.89120147

---------------------------
INTERNAL COORDINATES (A.U.)
---------------------------
 N      0   0   0     0.000000000000     0.00000000     0.00000000
 H      1   0   0    11.578078634640     0.00000000     0.00000000
 C      1   2   0     4.338374928449   140.79213807     0.00000000
 C      2   1   3     4.131980126529    33.38660231     0.36505468
 N      4   2   1     4.338293082022    95.82788655     0.09095297
 C      2   1   3     2.035410211826     3.85150056     2.09162491
 H      4   2   1     2.035368875391   104.41978534   179.96288643
 C      5   4   2     5.714277219608   125.55676336     0.11166825
 N      1   2   6     5.493920215627   101.42052387   181.91422582
 C      9   1   2     4.338424147198   117.81429197   180.02242555
 C      8   5   4     2.656004221892    53.92458718     0.03779823
 C      8   5   4     4.170951724664   108.35589016   179.76307688
 N     12   8   5     2.591973907374    36.43262200     0.17329619
 C     12   8   5     2.726024578368    72.87533357   180.07415276
 C      5   4   2     2.592089010246    36.37427985   180.37251744
 C      5   4   2     2.591972128447    70.76800154     0.23219254
 C      1   2   6     2.591985357166    70.02341670     1.85612268
 C      1   2   6     2.592194195193   177.15630369     5.97587101
 C      3   1   2     2.565473095651    72.80216719   359.95304185
 C     17   1   2     2.656079180895   125.83487943     0.09366032
 C     18   1  17     2.655951627710   125.85546027   180.26559898
 C     14  12   8     2.565472094097   107.12361011     0.19983052
 C      9   1   2     2.591901268027    81.44175047   179.94495588
 C     10   9   1     2.565468156301    72.80232389   180.16933284
 C     12   8   5     2.655876793668   162.27344014     0.83813114
 C      9   1   2     2.592091431390   171.41952863     0.03824775
 H      3   1   2     2.035424957904   159.74999488   180.25953249
 H     19   3   1     2.035381194584   127.43130158   179.82791890
 H     22  14  12     2.035395642677   127.44744025   179.69739367
 H     14  12   8     2.035426071288   125.43663657   180.20366353
 H     24  10   9     2.035417469446   127.45443232   179.85753388
 H     10   9   1     2.035419373773   159.75828880     0.53310854
 Mg    13  12   8     3.884532474774   126.43550651   180.06019481
 C     11   8   5     2.832679222530   117.27452497   180.13304197
 C     34  11   8     2.639426943631   120.75894288   260.01689972
 C     35  34  11     2.628390766428   120.77967458   179.95157356
 C     36  35  34     2.627807046409   120.17416869     0.06383067
 C     37  36  35     2.627800758224   119.56359354   359.96393605
 C     38  37  36     2.628346848615   120.17158367   359.97314775
 H     35  34  11     2.046931253539   119.28215266     0.12320002
 H     36  35  34     2.046869429478   119.71220349   180.18132819
 H     37  36  35     2.046434172373   120.21696134   179.96439740
 H     38  37  36     2.046878309898   120.11258722   179.85120178
 H     39  38  37     2.046928932815   119.93128689   179.88961748
 C     20  17   1     2.832496261479   117.27635023   179.83555470
 C     45  20  17     2.639465049985   120.75805895    79.50356453
 C     46  45  20     2.628382601477   120.78473073   179.96907332
 C     47  46  45     2.627785860657   120.17705909     0.07442139
 C     48  47  46     2.627802015959   119.56006095   359.97047586
 C     49  48  47     2.628305505594   120.17276971   359.96185086
 H     46  45  20     2.046935425080   119.29758564     0.15759396
 H     47  46  45     2.046864976583   119.71071430   180.18273845
 H     48  47  46     2.046442684772   120.22050345   179.95838139
 H     49  48  47     2.046882184323   120.11519157   179.83114167
 H     50  49  48     2.046920933199   119.92580323   179.88660474
 C     21  18   1     2.832737816097   117.28798408   179.72398695
 C     56  21  18     2.639420951153   120.71653922   260.55104232
 C     57  56  21     2.628338694698   120.78737548   179.99292393
 C     58  57  56     2.627814982273   120.17255169     0.05877075
 C     59  58  57     2.627796761001   119.55994938   359.96611660
 C     60  59  58     2.628372885207   120.17707541   359.97196552
 H     57  56  21     2.046954238033   119.28811259     0.14261226
 H     58  57  56     2.046856422624   119.71220131   180.16232012
 H     59  58  57     2.046443526657   120.22123367   179.96845591
 H     60  59  58     2.046868987487   120.11314103   179.86695053
 H     61  60  59     2.046942906433   119.92563663   179.89758366
 C     25  12   8     2.832663941177   117.25803690   179.52387829
 C     67  25  12     2.639527452411   120.69986376    80.52329734
 C     68  67  25     2.628290921499   120.78822075   180.01410426
 C     69  68  67     2.627808134540   120.17081329     0.05908974
 C     70  69  68     2.627790367553   119.56087131   359.96273928
 C     71  70  69     2.628405158227   120.17793429   359.97535578
 H     68  67  25     2.046947857152   119.28960554     0.16639622
 H     69  68  67     2.046875390382   119.71470417   180.16298856
 H     70  69  68     2.046447363557   120.22323348   179.96819721
 H     71  70  69     2.046860946455   120.11387427   179.86380867
 H     72  71  70     2.046978496977   119.92750176   179.89120147

---------------------
BASIS SET INFORMATION
---------------------
There are 4 groups of distinct atoms

 Group   1 Type N   : 11s6p2d1f contracted to 5s3p2d1f pattern {62111/411/11/1}
 Group   2 Type H   : 5s1p contracted to 3s1p pattern {311/1}
 Group   3 Type C   : 11s6p2d1f contracted to 5s3p2d1f pattern {62111/411/11/1}
 Group   4 Type Mg  : 14s8p3d contracted to 5s4p3d pattern {73211/5111/111}

Atom   0N    basis set group =>   1
Atom   1H    basis set group =>   2
Atom   2C    basis set group =>   3
Atom   3C    basis set group =>   3
Atom   4N    basis set group =>   1
Atom   5C    basis set group =>   3
Atom   6H    basis set group =>   2
Atom   7C    basis set group =>   3
Atom   8N    basis set group =>   1
Atom   9C    basis set group =>   3
Atom  10C    basis set group =>   3
Atom  11C    basis set group =>   3
Atom  12N    basis set group =>   1
Atom  13C    basis set group =>   3
Atom  14C    basis set group =>   3
Atom  15C    basis set group =>   3
Atom  16C    basis set group =>   3
Atom  17C    basis set group =>   3
Atom  18C    basis set group =>   3
Atom  19C    basis set group =>   3
Atom  20C    basis set group =>   3
Atom  21C    basis set group =>   3
Atom  22C    basis set group =>   3
Atom  23C    basis set group =>   3
Atom  24C    basis set group =>   3
Atom  25C    basis set group =>   3
Atom  26H    basis set group =>   2
Atom  27H    basis set group =>   2
Atom  28H    basis set group =>   2
Atom  29H    basis set group =>   2
Atom  30H    basis set group =>   2
Atom  31H    basis set group =>   2
Atom  32Mg   basis set group =>   4
Atom  33C    basis set group =>   3
Atom  34C    basis set group =>   3
Atom  35C    basis set group =>   3
Atom  36C    basis set group =>   3
Atom  37C    basis set group =>   3
Atom  38C    basis set group =>   3
Atom  39H    basis set group =>   2
Atom  40H    basis set group =>   2
Atom  41H    basis set group =>   2
Atom  42H    basis set group =>   2
Atom  43H    basis set group =>   2
Atom  44C    basis set group =>   3
Atom  45C    basis set group =>   3
Atom  46C    basis set group =>   3
Atom  47C    basis set group =>   3
Atom  48C    basis set group =>   3
Atom  49C    basis set group =>   3
Atom  50H    basis set group =>   2
Atom  51H    basis set group =>   2
Atom  52H    basis set group =>   2
Atom  53H    basis set group =>   2
Atom  54H    basis set group =>   2
Atom  55C    basis set group =>   3
Atom  56C    basis set group =>   3
Atom  57C    basis set group =>   3
Atom  58C    basis set group =>   3
Atom  59C    basis set group =>   3
Atom  60C    basis set group =>   3
Atom  61H    basis set group =>   2
Atom  62H    basis set group =>   2
Atom  63H    basis set group =>   2
Atom  64H    basis set group =>   2
Atom  65H    basis set group =>   2
Atom  66C    basis set group =>   3
Atom  67C    basis set group =>   3
Atom  68C    basis set group =>   3
Atom  69C    basis set group =>   3
Atom  70C    basis set group =>   3
Atom  71C    basis set group =>   3
Atom  72H    basis set group =>   2
Atom  73H    basis set group =>   2
Atom  74H    basis set group =>   2
Atom  75H    basis set group =>   2
Atom  76H    basis set group =>   2
---------------------------------
AUXILIARY/J BASIS SET INFORMATION
---------------------------------
There are 4 groups of distinct atoms

 Group   1 Type N   : 12s5p4d2f1g contracted to 6s4p3d1f1g pattern {711111/2111/211/2/1}
 Group   2 Type H   : 5s2p1d contracted to 3s1p1d pattern {311/2/1}
 Group   3 Type C   : 12s5p4d2f1g contracted to 6s4p3d1f1g pattern {711111/2111/211/2/1}
 Group   4 Type Mg  : 14s5p5d2f1g contracted to 8s4p4d1f1g pattern {71111111/2111/2111/2/1}

Atom   0N    basis set group =>   1
Atom   1H    basis set group =>   2
Atom   2C    basis set group =>   3
Atom   3C    basis set group =>   3
Atom   4N    basis set group =>   1
Atom   5C    basis set group =>   3
Atom   6H    basis set group =>   2
Atom   7C    basis set group =>   3
Atom   8N    basis set group =>   1
Atom   9C    basis set group =>   3
Atom  10C    basis set group =>   3
Atom  11C    basis set group =>   3
Atom  12N    basis set group =>   1
Atom  13C    basis set group =>   3
Atom  14C    basis set group =>   3
Atom  15C    basis set group =>   3
Atom  16C    basis set group =>   3
Atom  17C    basis set group =>   3
Atom  18C    basis set group =>   3
Atom  19C    basis set group =>   3
Atom  20C    basis set group =>   3
Atom  21C    basis set group =>   3
Atom  22C    basis set group =>   3
Atom  23C    basis set group =>   3
Atom  24C    basis set group =>   3
Atom  25C    basis set group =>   3
Atom  26H    basis set group =>   2
Atom  27H    basis set group =>   2
Atom  28H    basis set group =>   2
Atom  29H    basis set group =>   2
Atom  30H    basis set group =>   2
Atom  31H    basis set group =>   2
Atom  32Mg   basis set group =>   4
Atom  33C    basis set group =>   3
Atom  34C    basis set group =>   3
Atom  35C    basis set group =>   3
Atom  36C    basis set group =>   3
Atom  37C    basis set group =>   3
Atom  38C    basis set group =>   3
Atom  39H    basis set group =>   2
Atom  40H    basis set group =>   2
Atom  41H    basis set group =>   2
Atom  42H    basis set group =>   2
Atom  43H    basis set group =>   2
Atom  44C    basis set group =>   3
Atom  45C    basis set group =>   3
Atom  46C    basis set group =>   3
Atom  47C    basis set group =>   3
Atom  48C    basis set group =>   3
Atom  49C    basis set group =>   3
Atom  50H    basis set group =>   2
Atom  51H    basis set group =>   2
Atom  52H    basis set group =>   2
Atom  53H    basis set group =>   2
Atom  54H    basis set group =>   2
Atom  55C    basis set group =>   3
Atom  56C    basis set group =>   3
Atom  57C    basis set group =>   3
Atom  58C    basis set group =>   3
Atom  59C    basis set group =>   3
Atom  60C    basis set group =>   3
Atom  61H    basis set group =>   2
Atom  62H    basis set group =>   2
Atom  63H    basis set group =>   2
Atom  64H    basis set group =>   2
Atom  65H    basis set group =>   2
Atom  66C    basis set group =>   3
Atom  67C    basis set group =>   3
Atom  68C    basis set group =>   3
Atom  69C    basis set group =>   3
Atom  70C    basis set group =>   3
Atom  71C    basis set group =>   3
Atom  72H    basis set group =>   2
Atom  73H    basis set group =>   2
Atom  74H    basis set group =>   2
Atom  75H    basis set group =>   2
Atom  76H    basis set group =>   2


           ************************************************************
           *        Program running with 8 parallel MPI-processes     *
           *              working on a common directory               *
           ************************************************************
------------------------------------------------------------------------------
                             ORCA STARTUP CALCULATIONS
                           -- RI-GTO INTEGRALS CHOSEN --
------------------------------------------------------------------------------
------------------------------------------------------------------------------
                   ___                                                        
                  /   \      - P O W E R E D   B Y -                         
                 /     \                                                     
                 |  |  |   _    _      __       _____    __    __             
                 |  |  |  | |  | |    /  \     |  _  \  |  |  /  |          
                  \  \/   | |  | |   /    \    | | | |  |  | /  /          
                 / \  \   | |__| |  /  /\  \   | |_| |  |  |/  /          
                |  |  |   |  __  | /  /__\  \  |    /   |      \           
                |  |  |   | |  | | |   __   |  |    \   |  |\   \          
                \     /   | |  | | |  |  |  |  | |\  \  |  | \   \       
                 \___/    |_|  |_| |__|  |__|  |_| \__\ |__|  \__/        
                                                                              
                      - O R C A' S   B I G   F R I E N D -                    
                                      &                                       
                       - I N T E G R A L  F E E D E R -                       
                                                                              
 v1 FN, 2020, v2 2021, v3 2022-2024                                           
------------------------------------------------------------------------------


----------------------
SHARK INTEGRAL PACKAGE
----------------------

Number of atoms                             ...     77
Number of basis functions                   ...   1688
Number of shells                            ...    652
Maximum angular momentum                    ...      3
Integral batch strategy                     ... SHARK/LIBINT Hybrid
RI-J (if used) integral strategy            ... SPLIT-RIJ (Revised 2003 algorithm where possible)
Printlevel                                  ...      1
Contraction scheme used                     ... SEGMENTED contraction
Prescreening option                         ... SCHWARTZ
   Thresh                                   ... 2.500e-11
   Tcut                                     ... 2.500e-12
   Tpresel                                  ... 2.500e-12 
Coulomb Range Separation                    ... NOT USED
Exchange Range Separation                   ... NOT USED
Multipole approximations                    ... NOT USED
Finite Nucleus Model                        ... NOT USED
CABS basis                                  ... NOT available
Auxiliary Coulomb fitting basis             ... AVAILABLE
   # of basis functions in Aux-J            ...   2716
   # of shells in Aux-J                     ...    878
   Maximum angular momentum in Aux-J        ...      4
Auxiliary J/K fitting basis                 ... NOT available
Auxiliary Correlation fitting basis         ... NOT available
Auxiliary 'external' fitting basis          ... NOT available

Checking pre-screening integrals            ... done (  0.0 sec) Dimension = 652
   => SHARK Basis and OBASIS are compatible. Storing Pre-screening
Shell pair information
Shell pair cut-off parameter TPreSel        ...   2.5e-12
Total number of shell pairs                 ...    212878
Shell pairs after pre-screening             ...    103183
Total number of primitive shell pairs       ...    666456
Primitive shell pairs kept                  ...    198892
          la=0 lb=0:  24577 shell pairs
          la=1 lb=0:  30403 shell pairs
          la=1 lb=1:   9285 shell pairs
          la=2 lb=0:  14681 shell pairs
          la=2 lb=1:   9224 shell pairs
          la=2 lb=2:   2210 shell pairs
          la=3 lb=0:   6441 shell pairs
          la=3 lb=1:   4108 shell pairs
          la=3 lb=2:   1824 shell pairs
          la=3 lb=3:    430 shell pairs

Checking whether 4 symmetric matrices of dimension 1688 fit in memory
:Max Core in MB      =   3000.00
 MB in use           =    125.94
 MB left             =   2874.06
 MB needed           =     43.50
 Data fit in memory  = YES
Calculating RI/J V-Matrix + Cholesky decomp.... done (  2.9 sec)
Calculating Nuclear repulsion               ... done (  0.0 sec) ENN=   5749.715742335587 Eh

Diagonalization of the overlap matrix:
Smallest eigenvalue                        ... 2.991e-06
Time for diagonalization                   ...    0.839 sec
Threshold for overlap eigenvalues          ... 1.000e-07
Number of eigenvalues below threshold      ... 0
Time for construction of square roots      ...    0.911 sec
Total time needed                          ...    1.814 sec

-------------------
DFT GRID GENERATION
-------------------

General Integration Accuracy     IntAcc      ... 4.959
Radial Grid Type                 RadialGrid  ... OptM3 with GC (2021)
Angular Grid (max. ang.)         AngularGrid ... 6 (Lebedev-590)
Angular grid pruning method      GridPruning ... 4 (adaptive)
Weight generation scheme         WeightScheme... mBecke (2022)
Basis function cutoff            BFCut       ... 1.0000e-11
Integration weight cutoff        WCut        ... 1.0000e-14
Partially contracted basis set               ... off
Rotationally invariant grid construction     ... off
Angular grids for H and He will be reduced by one unit

Total number of grid points                  ...   926618
Total number of batches                      ...    14522
Average number of points per batch           ...       63
Average number of grid points per atom       ...    12034

--------------------
COSX GRID GENERATION
--------------------

GRIDX 1
-------
General Integration Accuracy     IntAcc      ... 4.020
Radial Grid Type                 RadialGrid  ... OptM3 with GC (2021)
Angular Grid (max. ang.)         AngularGrid ... 2 (Lebedev-110)
Angular grid pruning method      GridPruning ... 4 (adaptive)
Weight generation scheme         WeightScheme... mBecke (2022)
Basis function cutoff            BFCut       ... 1.0000e-11
Integration weight cutoff        WCut        ... 1.0000e-14
Partially contracted basis set               ... on
Rotationally invariant grid construction     ... off
Angular grids for H and He will be reduced by one unit

Total number of grid points                  ...   104925
Total number of batches                      ...      870
Average number of points per batch           ...      120
Average number of grid points per atom       ...     1363
UseSFitting                                  ... on

GRIDX 2
-------
General Integration Accuracy     IntAcc      ... 4.338
Radial Grid Type                 RadialGrid  ... OptM3 with GC (2021)
Angular Grid (max. ang.)         AngularGrid ... 3 (Lebedev-194)
Angular grid pruning method      GridPruning ... 4 (adaptive)
Weight generation scheme         WeightScheme... mBecke (2022)
Basis function cutoff            BFCut       ... 1.0000e-11
Integration weight cutoff        WCut        ... 1.0000e-14
Partially contracted basis set               ... on
Rotationally invariant grid construction     ... off
Angular grids for H and He will be reduced by one unit

Total number of grid points                  ...   229479
Total number of batches                      ...     1830
Average number of points per batch           ...      125
Average number of grid points per atom       ...     2980
UseSFitting                                  ... on

GRIDX 3
-------
General Integration Accuracy     IntAcc      ... 4.871
Radial Grid Type                 RadialGrid  ... OptM3 with GC (2021)
Angular Grid (max. ang.)         AngularGrid ... 4 (Lebedev-302)
Angular grid pruning method      GridPruning ... 4 (adaptive)
Weight generation scheme         WeightScheme... mBecke (2022)
Basis function cutoff            BFCut       ... 1.0000e-11
Integration weight cutoff        WCut        ... 1.0000e-14
Partially contracted basis set               ... on
Rotationally invariant grid construction     ... off
Angular grids for H and He will be reduced by one unit

Total number of grid points                  ...   421309
Total number of batches                      ...     3327
Average number of points per batch           ...      126
Average number of grid points per atom       ...     5472
UseSFitting                                  ... on
Grids setup in  64.0 sec
Initializing property integral containers    ... done (  0.0 sec)

SHARK setup successfully completed in  76.9 seconds

Maximum memory used throughout the entire STARTUP-calculation: 301.1 MB


           ************************************************************
           *        Program running with 8 parallel MPI-processes     *
           *              working on a common directory               *
           ************************************************************
-------------------------------------------------------------------------------
                                 ORCA GUESS
                   Start orbitals & Density for SCF / CASSCF
-------------------------------------------------------------------------------

------------
SCF SETTINGS
------------
Hamiltonian:
 Density Functional     Method          .... DFT(GTOs)
 Exchange Functional    Exchange        .... M062X
 Correlation Functional Correlation     .... M062X
 Gradients option       PostSCFGGA      .... off
 Hybrid DFT is turned on
   Fraction HF Exchange ScalHFX         ....  0.540000
   Scaling of DF-GGA-X  ScalDFX         ....  0.460000
   Scaling of DF-GGA-C  ScalDFC         ....  1.000000
   Scaling of DF-LDA-C  ScalLDAC        ....  1.000000
   Perturbative correction              ....  0.000000
 RI-approximation to the Coulomb term is turned on
   Number of AuxJ basis functions       .... 2716
   RIJ-COSX (HFX calculated with COS-X)).... on


General Settings:
 Integral files         IntName         .... tddft
 Hartree-Fock type      HFTyp           .... RHF
 Total Charge           Charge          ....    0
 Multiplicity           Mult            ....    1
 Number of Electrons    NEL             ....  332
 Basis Dimension        Dim             .... 1688
 Nuclear Repulsion      ENuc            ....   5749.7157423356 Eh

Convergence Acceleration:
 AO-DIIS                CNVDIIS         .... on
   Start iteration      DIISMaxIt       ....    12
   Startup error        DIISStart       ....  0.200000
   # of expansion vecs  DIISMaxEq       ....     5
   Bias factor          DIISBfac        ....   1.050
   Max. coefficient     DIISMaxC        ....  10.000
 MO-DIIS                CNVKDIIS        .... off
 Trust-Rad. Augm. Hess. CNVTRAH         .... auto
   Auto Start mean grad. ratio tolernc. ....  1.125000
   Auto Start start iteration           ....    50
   Auto Start num. interpolation iter.  ....    10
   Max. Number of Micro iterations      ....    24
   Max. Number of Macro iterations      .... Maxiter - #DIIS iter
   Number of Davidson start vectors     ....     2
   Converg. threshold    (grad. norm)   ....   1.000e-05
   Grad. Scal. Fac. for Micro threshold ....   0.100
   Minimum threshold for Micro iter.    ....   1.000e-02
   NR start threshold (gradient norm)   ....   1.000e-04
   Initial trust radius                 ....   0.400
   Minimum AH scaling param. (alpha)    ....   1.000
   Maximum AH scaling param. (alpha)    .... 1000.000
   Quad. conv. algorithm                .... NR
   White noise on init. David. guess    .... on
   Maximum white noise                  ....   0.010
   Pseudo random numbers                .... off
   Inactive MOs                         .... canonical
   Orbital update algorithm             .... Taylor
   Preconditioner                       .... Diag
   Full preconditioner red. dimension   ....   250
 SOSCF                 CNVSOSCF           .... on
   Start iteration     SOSCFMaxIt         ....   150
   Startup grad/error  SOSCFStart         ....  0.003300
   Hessian update      SOSCFHessUp        .... L-BFGS
   Autom. constraints  SOSCFAutoConstrain .... off
 Level Shifting         CNVShift        .... on
   Level shift para.    LevelShift      ....    0.2500
   Turn off err/grad.   ShiftErr        ....    0.0010
 Zerner damping         CNVZerner       .... off
 Static damping         CNVDamp         .... on
   Fraction old density DampFac         ....    0.7000
   Max. Damping (<1)    DampMax         ....    0.9800
   Min. Damping (>=0)   DampMin         ....    0.0000
   Turn off err/grad.   DampErr         ....    0.1000

SCF Procedure:
 Maximum # iterations   MaxIter         ....   125
 SCF integral mode      SCFMode         .... Direct
   Integral package                     .... SHARK and LIBINT hybrid scheme
 Reset frequency        DirectResetFreq ....    20
 Integral Threshold     Thresh          ....  2.500e-11 Eh
 Primitive CutOff       TCut            ....  2.500e-12 Eh

Convergence Tolerance:
 Convergence Check Mode ConvCheckMode   .... Total+1el-Energy
 Convergence forced     ConvForced      .... 1
 Energy Change          TolE            ....  1.000e-08 Eh
 1-El. energy change                    ....  1.000e-05 Eh
 Orbital Gradient       TolG            ....  1.000e-05
 Orbital Rotation angle TolX            ....  1.000e-05
 DIIS Error             TolErr          ....  5.000e-07

------------------------------
INITIAL GUESS: MODEL POTENTIAL
------------------------------
Loading Hartree-Fock densities                     ... done
Calculating cut-offs                               ... done
Initializing the effective Hamiltonian             ... done
Setting up the integral package (SHARK)            ... done
Starting the Coulomb interaction                   ... done (   7.2 sec)
Making the grid                                    ... done (   2.9 sec)
Mapping shells                                     ... done
Starting the XC term evaluation                    ... done (   4.7 sec)
  promolecular density results
     # of electrons  =    331.986215612
     EX              =   -275.603230785
     EC              =    -11.222706759
     EX+EC           =   -286.825937544
Transforming the Hamiltonian                       ... done (   0.9 sec)
Diagonalizing the Hamiltonian                      ... done (   3.1 sec)
Back transforming the eigenvectors                 ... done (   2.6 sec)
Now organizing SCF variables                       ... done
                      ------------------
                      INITIAL GUESS DONE (  22.0 sec)
                      ------------------
             **** ENERGY FILE WAS UPDATED (tddft.en.tmp) ****
Finished Guess after  31.1 sec
Maximum memory used throughout the entire GUESS-calculation: 204.1 MB


           ************************************************************
           *        Program running with 8 parallel MPI-processes     *
           *              working on a common directory               *
           ************************************************************

-------------------------------------------------------------------------------------------
                                      ORCA LEAN-SCF
                              memory conserving SCF solver
-------------------------------------------------------------------------------------------

--------------------
CPCM SOLVATION MODEL
--------------------
CPCM parameters:
  Epsilon                                         ...       2.3870
  Refrac                                          ...       1.4961
  Rsolv                                           ...       1.3000
  Surface type                                    ... GAUSSIAN VDW
  Discretization scheme                           ... Constant charge density
    Threshold for H atoms                         ...       5.0000 (charges/Ang^2)
    Threshold for non-H atoms                     ...       5.0000 (charges/Ang^2)
  Epsilon function type                           ...         CPCM
Solvent:                                          ... TOLUENE
Radii:
  Scheme                                          ... Element-dependent radii
  Radius for N  used is    3.5149 Bohr (=   1.8600 Ang.)
  Radius for H  used is    2.4944 Bohr (=   1.3200 Ang.)
  Radius for C  used is    3.8550 Bohr (=   2.0400 Ang.)
  Radius for Mg used is    3.9231 Bohr (=   2.0760 Ang.)
Calculating surface                               ...        done! (  0.1s)
Cavity surface points                             ...         6820
Cavity Volume                                     ...    4949.3392
Cavity Surface-area                               ...    2291.9203
Calculating surface distance matrix               ...        done! (  6.5s)
Performing Cholesky decomposition & store         ...        done! (  7.6s)
Overall time for CPCM initialization              ...                14.1s

----------------------------------------D-I-I-S--------------------------------------------
Iteration    Energy (Eh)           Delta-E    RMSDP     MaxDP     DIISErr   Damp  Time(sec)
-------------------------------------------------------------------------------------------
               ***  Starting incremental Fock matrix formation  ***
    1    -2111.6431089307025104     0.00e+00  2.80e-03  7.68e-02  2.28e-01  0.700 379.3
    2    -2112.0748359930003062    -4.32e-01  2.21e-03  4.98e-02  1.23e-01  0.700 187.4
                               ***Turning on AO-DIIS***
    3    -2112.2949665585238108    -2.20e-01  1.58e-03  3.73e-02  5.40e-02  0.700 193.3
    4    -2112.4256508537018817    -1.31e-01  3.74e-03  1.04e-01  3.84e-02  0.000 217.9
    5    -2112.7034308370803046    -2.78e-01  3.18e-04  5.94e-03  3.96e-03  0.000 180.5
                              *** Initializing SOSCF ***
---------------------------------------S-O-S-C-F--------------------------------------
Iteration    Energy (Eh)           Delta-E    RMSDP     MaxDP     MaxGrad    Time(sec)
--------------------------------------------------------------------------------------
    6    -2112.7041302591587737    -6.99e-04  1.23e-04  2.34e-03  1.88e-03   151.3
               *** Restarting incremental Fock matrix formation ***
    7    -2112.7041961889253798    -6.59e-05  1.61e-04  2.44e-03  4.09e-04   316.4
    8    -2112.7042079432831088    -1.18e-05  7.97e-05  1.44e-03  2.32e-04   204.9
    9    -2112.7042111994896914    -3.26e-06  6.68e-05  1.02e-03  1.22e-04   221.6
   10    -2112.7042124116233026    -1.21e-06  8.58e-06  1.86e-04  1.75e-05   216.6
   11    -2112.7042125635989578    -1.52e-07  5.63e-06  9.92e-05  1.54e-05   171.9
   12    -2112.7042124935660468     7.00e-08  3.96e-06  1.60e-04  1.72e-06   170.8
                  *** Gradient check signals convergence ***

               *****************************************************
               *                     SUCCESS                       *
               *           SCF CONVERGED AFTER  12 CYCLES          *
               *****************************************************

Recomputing exchange energy using gridx3       ... done (  404.641 sec)
Old exchange energy                            :   -151.715121529 Eh
New exchange energy                            :   -151.715112077 Eh
Exchange energy change after final integration :      0.000009452 Eh
Total energy after final integration           :  -2112.704203016 Eh
             **** ENERGY FILE WAS UPDATED (tddft.en.tmp) ****

----------------
TOTAL SCF ENERGY
----------------

Total Energy       :      -2112.70420301580543 Eh          -57489.60408 eV

Components:
Nuclear Repulsion  :       5749.71574233558749 Eh          156457.71951 eV
Electronic Energy  :      -7862.40685816943187 Eh         -213946.96746 eV
One Electron Energy:     -14318.83538504236276 Eh         -389635.31950 eV
Two Electron Energy:       6456.42852687293089 Eh          175688.35204 eV
CPCM Dielectric    :         -0.01309663355688 Eh              -0.35638 eV

Virial components:
Potential Energy   :      -4214.78191052269995 Eh         -114690.04651 eV
Kinetic Energy     :       2102.07770750689451 Eh           57200.44244 eV
Virial Ratio       :          2.00505523438594

DFT components:
N(Alpha)           :      165.999984727828 electrons
N(Beta)            :      165.999984727828 electrons
N(Total)           :      331.999969455657 electrons
E(XC)              :     -141.455799796153 Eh       

CPCM Solvation Model Properties:
Surface-charge          :         -0.04938008535813
Corrected charge        :         -0.00000000000000
Outlying charge corr.   :          0.00005557092343 Eh               0.00151 eV
Free-energy (cav+disp)  :  This term is not implemented in the current solvation scheme

---------------
SCF CONVERGENCE
---------------

  Last Energy change         ...   -7.0033e-08  Tolerance :   1.0000e-08
  Last MAX-Density change    ...    1.5974e-04  Tolerance :   1.0000e-07
  Last RMS-Density change    ...    3.9618e-06  Tolerance :   5.0000e-09
  Last DIIS Error            ...    1.8843e-03  Tolerance :   5.0000e-07
  Last Orbital Gradient      ...    1.7208e-06  Tolerance :   1.0000e-05
  Last Orbital Rotation      ...    5.2232e-06  Tolerance :   1.0000e-05


----------------
ORBITAL ENERGIES
----------------

  NO   OCC          E(Eh)            E(eV) 
   0   2.0000     -47.513295     -1292.9025 
   1   2.0000     -14.743311      -401.1859 
   2   2.0000     -14.743309      -401.1858 
   3   2.0000     -14.743297      -401.1855 
   4   2.0000     -14.743289      -401.1853 
   5   2.0000     -10.579706      -287.8884 
   6   2.0000     -10.579692      -287.8880 
   7   2.0000     -10.579687      -287.8879 
   8   2.0000     -10.579678      -287.8877 
   9   2.0000     -10.579661      -287.8872 
  10   2.0000     -10.579645      -287.8868 
  11   2.0000     -10.579641      -287.8867 
  12   2.0000     -10.579631      -287.8864 
  13   2.0000     -10.565276      -287.4958 
  14   2.0000     -10.565246      -287.4950 
  15   2.0000     -10.565232      -287.4946 
  16   2.0000     -10.565216      -287.4941 
  17   2.0000     -10.556971      -287.2698 
  18   2.0000     -10.556959      -287.2695 
  19   2.0000     -10.556955      -287.2693 
  20   2.0000     -10.556950      -287.2692 
  21   2.0000     -10.544711      -286.9362 
  22   2.0000     -10.544703      -286.9360 
  23   2.0000     -10.544702      -286.9359 
  24   2.0000     -10.544695      -286.9357 
  25   2.0000     -10.544601      -286.9332 
  26   2.0000     -10.544594      -286.9330 
  27   2.0000     -10.544593      -286.9330 
  28   2.0000     -10.544590      -286.9329 
  29   2.0000     -10.544002      -286.9169 
  30   2.0000     -10.543994      -286.9167 
  31   2.0000     -10.543994      -286.9167 
  32   2.0000     -10.543993      -286.9166 
  33   2.0000     -10.543787      -286.9110 
  34   2.0000     -10.543779      -286.9108 
  35   2.0000     -10.543778      -286.9108 
  36   2.0000     -10.543774      -286.9107 
  37   2.0000     -10.543153      -286.8938 
  38   2.0000     -10.543144      -286.8935 
  39   2.0000     -10.543144      -286.8935 
  40   2.0000     -10.543136      -286.8933 
  41   2.0000     -10.539962      -286.8070 
  42   2.0000     -10.539948      -286.8066 
  43   2.0000     -10.539946      -286.8065 
  44   2.0000     -10.539943      -286.8064 
  45   2.0000     -10.538979      -286.7802 
  46   2.0000     -10.538964      -286.7798 
  47   2.0000     -10.538962      -286.7797 
  48   2.0000     -10.538959      -286.7797 
  49   2.0000      -3.268252       -88.9336 
  50   2.0000      -1.963326       -53.4248 
  51   2.0000      -1.959706       -53.3263 
  52   2.0000      -1.959705       -53.3263 
  53   2.0000      -1.075321       -29.2610 
  54   2.0000      -1.065770       -29.0011 
  55   2.0000      -1.065757       -29.0007 
  56   2.0000      -1.054839       -28.7036 
  57   2.0000      -0.975060       -26.5327 
  58   2.0000      -0.971148       -26.4263 
  59   2.0000      -0.971146       -26.4262 
  60   2.0000      -0.969363       -26.3777 
  61   2.0000      -0.926194       -25.2030 
  62   2.0000      -0.907081       -24.6829 
  63   2.0000      -0.907074       -24.6828 
  64   2.0000      -0.887364       -24.1464 
  65   2.0000      -0.866384       -23.5755 
  66   2.0000      -0.866210       -23.5708 
  67   2.0000      -0.866206       -23.5707 
  68   2.0000      -0.859392       -23.3853 
  69   2.0000      -0.846117       -23.0240 
  70   2.0000      -0.845997       -23.0207 
  71   2.0000      -0.845996       -23.0207 
  72   2.0000      -0.845932       -23.0190 
  73   2.0000      -0.838246       -22.8098 
  74   2.0000      -0.830687       -22.6041 
  75   2.0000      -0.830679       -22.6039 
  76   2.0000      -0.812103       -22.0984 
  77   2.0000      -0.801939       -21.8219 
  78   2.0000      -0.747848       -20.3500 
  79   2.0000      -0.747846       -20.3499 
  80   2.0000      -0.704199       -19.1622 
  81   2.0000      -0.692078       -18.8324 
  82   2.0000      -0.691760       -18.8237 
  83   2.0000      -0.691757       -18.8237 
  84   2.0000      -0.691555       -18.8182 
  85   2.0000      -0.684157       -18.6169 
  86   2.0000      -0.684139       -18.6164 
  87   2.0000      -0.677666       -18.4402 
  88   2.0000      -0.677330       -18.4311 
  89   2.0000      -0.662199       -18.0193 
  90   2.0000      -0.642520       -17.4838 
  91   2.0000      -0.642511       -17.4836 
  92   2.0000      -0.629619       -17.1328 
  93   2.0000      -0.625494       -17.0206 
  94   2.0000      -0.618689       -16.8354 
  95   2.0000      -0.604886       -16.4598 
  96   2.0000      -0.604883       -16.4597 
  97   2.0000      -0.596929       -16.2433 
  98   2.0000      -0.592181       -16.1141 
  99   2.0000      -0.592175       -16.1139 
 100   2.0000      -0.586671       -15.9641 
 101   2.0000      -0.574740       -15.6395 
 102   2.0000      -0.561823       -15.2880 
 103   2.0000      -0.561811       -15.2876 
 104   2.0000      -0.534052       -14.5323 
 105   2.0000      -0.531134       -14.4529 
 106   2.0000      -0.527461       -14.3529 
 107   2.0000      -0.527452       -14.3527 
 108   2.0000      -0.524938       -14.2843 
 109   2.0000      -0.520943       -14.1756 
 110   2.0000      -0.520939       -14.1755 
 111   2.0000      -0.519148       -14.1267 
 112   2.0000      -0.510769       -13.8987 
 113   2.0000      -0.497788       -13.5455 
 114   2.0000      -0.491338       -13.3700 
 115   2.0000      -0.490135       -13.3373 
 116   2.0000      -0.490130       -13.3371 
 117   2.0000      -0.488557       -13.2943 
 118   2.0000      -0.488193       -13.2844 
 119   2.0000      -0.487831       -13.2746 
 120   2.0000      -0.487823       -13.2743 
 121   2.0000      -0.487553       -13.2670 
 122   2.0000      -0.483893       -13.1674 
 123   2.0000      -0.483876       -13.1669 
 124   2.0000      -0.476682       -12.9712 
 125   2.0000      -0.466369       -12.6905 
 126   2.0000      -0.465630       -12.6704 
 127   2.0000      -0.465626       -12.6703 
 128   2.0000      -0.454533       -12.3685 
 129   2.0000      -0.450829       -12.2677 
 130   2.0000      -0.449586       -12.2339 
 131   2.0000      -0.444220       -12.0878 
 132   2.0000      -0.444212       -12.0876 
 133   2.0000      -0.438149       -11.9226 
 134   2.0000      -0.436084       -11.8665 
 135   2.0000      -0.432377       -11.7656 
 136   2.0000      -0.432372       -11.7655 
 137   2.0000      -0.419235       -11.4080 
 138   2.0000      -0.409933       -11.1548 
 139   2.0000      -0.409778       -11.1506 
 140   2.0000      -0.405758       -11.0412 
 141   2.0000      -0.405750       -11.0410 
 142   2.0000      -0.404978       -11.0200 
 143   2.0000      -0.404972       -11.0198 
 144   2.0000      -0.404830       -11.0160 
 145   2.0000      -0.394992       -10.7483 
 146   2.0000      -0.381303       -10.3758 
 147   2.0000      -0.381294       -10.3755 
 148   2.0000      -0.378218       -10.2918 
 149   2.0000      -0.351994        -9.5782 
 150   2.0000      -0.338652        -9.2152 
 151   2.0000      -0.338599        -9.2138 
 152   2.0000      -0.321833        -8.7575 
 153   2.0000      -0.315618        -8.5884 
 154   2.0000      -0.314245        -8.5510 
 155   2.0000      -0.313746        -8.5375 
 156   2.0000      -0.313718        -8.5367 
 157   2.0000      -0.310714        -8.4550 
 158   2.0000      -0.309585        -8.4242 
 159   2.0000      -0.309577        -8.4240 
 160   2.0000      -0.308232        -8.3874 
 161   2.0000      -0.306691        -8.3455 
 162   2.0000      -0.306631        -8.3438 
 163   2.0000      -0.303455        -8.2574 
 164   2.0000      -0.236914        -6.4467 
 165   2.0000      -0.231591        -6.3019 
 166   0.0000      -0.075267        -2.0481 
 167   0.0000      -0.075256        -2.0478 
 168   0.0000      -0.001640        -0.0446 
 169   0.0000       0.014860         0.4044 
 170   0.0000       0.015793         0.4297 
 171   0.0000       0.015922         0.4333 
 172   0.0000       0.016137         0.4391 
 173   0.0000       0.016156         0.4396 
 174   0.0000       0.018219         0.4958 
 175   0.0000       0.018820         0.5121 
 176   0.0000       0.018835         0.5125 
*Only the first 10 virtual orbitals were printed.

                    ********************************
                    * MULLIKEN POPULATION ANALYSIS *
                    ********************************

-----------------------
MULLIKEN ATOMIC CHARGES
-----------------------
   0 N :   -0.487797
   1 H :    0.199780
   2 C :   -0.237352
   3 C :   -0.236862
   4 N :   -0.488350
   5 C :   -0.236117
   6 H :    0.199874
   7 C :    0.241901
   8 N :   -0.488497
   9 C :   -0.235527
  10 C :   -0.014494
  11 C :    0.244412
  12 N :   -0.487856
  13 C :   -0.235821
  14 C :    0.240305
  15 C :    0.244523
  16 C :    0.242196
  17 C :    0.242338
  18 C :   -0.235046
  19 C :   -0.010500
  20 C :   -0.014605
  21 C :   -0.236941
  22 C :    0.243805
  23 C :   -0.236672
  24 C :   -0.015338
  25 C :    0.241212
  26 H :    0.199564
  27 H :    0.199932
  28 H :    0.199648
  29 H :    0.199569
  30 H :    0.199659
  31 H :    0.199703
  32 Mg:    0.718875
  33 C :   -0.124357
  34 C :   -0.164728
  35 C :   -0.160679
  36 C :   -0.154389
  37 C :   -0.160657
  38 C :   -0.164916
  39 H :    0.176112
  40 H :    0.162561
  41 H :    0.162773
  42 H :    0.162807
  43 H :    0.176037
  44 C :   -0.122833
  45 C :   -0.166133
  46 C :   -0.160439
  47 C :   -0.154327
  48 C :   -0.160447
  49 C :   -0.167304
  50 H :    0.176285
  51 H :    0.162513
  52 H :    0.162761
  53 H :    0.162737
  54 H :    0.176252
  55 C :   -0.126714
  56 C :   -0.163835
  57 C :   -0.160966
  58 C :   -0.154015
  59 C :   -0.161050
  60 C :   -0.162767
  61 H :    0.175772
  62 H :    0.162580
  63 H :    0.162812
  64 H :    0.162585
  65 H :    0.175648
  66 C :   -0.126442
  67 C :   -0.163622
  68 C :   -0.161143
  69 C :   -0.153944
  70 C :   -0.160837
  71 C :   -0.162776
  72 H :    0.175847
  73 H :    0.162589
  74 H :    0.162773
  75 H :    0.162635
  76 H :    0.175717
Sum of atomic charges:   -0.0000000

--------------------------------
MULLIKEN REDUCED ORBITAL CHARGES
--------------------------------
  0 N s       :     3.737328  s :     3.737328
      pz      :     1.372935  p :     3.695575
      px      :     1.292280
      py      :     1.030359
      dz2     :     0.004594  d :     0.051397
      dxz     :     0.005779
      dyz     :     0.013565
      dx2y2   :     0.013229
      dxy     :     0.014230
      f0      :     0.000683  f :     0.003497
      f+1     :     0.000342
      f-1     :     0.000498
      f+2     :     0.000106
      f-2     :     0.000525
      f+3     :     0.000610
      f-3     :     0.000734

  1 H s       :     0.779560  s :     0.779560
      pz      :     0.003948  p :     0.020660
      px      :     0.008000
      py      :     0.008712

  2 C s       :     3.211164  s :     3.211164
      pz      :     0.984352  p :     2.953805
      px      :     0.987683
      py      :     0.981771
      dz2     :     0.005526  d :     0.065475
      dxz     :     0.008902
      dyz     :     0.018956
      dx2y2   :     0.011427
      dxy     :     0.020664
      f0      :     0.001235  f :     0.006907
      f+1     :     0.000894
      f-1     :     0.000709
      f+2     :     0.000771
      f-2     :     0.000366
      f+3     :     0.001865
      f-3     :     0.001066

  3 C s       :     3.210504  s :     3.210504
      pz      :     0.983116  p :     2.954006
      px      :     0.983515
      py      :     0.987375
      dz2     :     0.005142  d :     0.065446
      dxz     :     0.019452
      dyz     :     0.008818
      dx2y2   :     0.011296
      dxy     :     0.020737
      f0      :     0.001273  f :     0.006907
      f+1     :     0.000643
      f-1     :     0.000895
      f+2     :     0.000808
      f-2     :     0.000357
      f+3     :     0.001051
      f-3     :     0.001879

  4 N s       :     3.737759  s :     3.737759
      pz      :     1.374750  p :     3.695682
      px      :     1.027787
      py      :     1.293146
      dz2     :     0.004451  d :     0.051410
      dxz     :     0.013741
      dyz     :     0.005709
      dx2y2   :     0.013191
      dxy     :     0.014317
      f0      :     0.000686  f :     0.003498
      f+1     :     0.000489
      f-1     :     0.000349
      f+2     :     0.000102
      f-2     :     0.000517
      f+3     :     0.000742
      f-3     :     0.000612

  5 C s       :     3.209696  s :     3.209696
      pz      :     0.980728  p :     2.954032
      px      :     1.016406
      py      :     0.956897
      dz2     :     0.005374  d :     0.065481
      dxz     :     0.017406
      dyz     :     0.010552
      dx2y2   :     0.014009
      dxy     :     0.018140
      f0      :     0.001261  f :     0.006908
      f+1     :     0.000697
      f-1     :     0.000861
      f+2     :     0.001037
      f-2     :     0.000120
      f+3     :     0.001109
      f-3     :     0.001823

  6 H s       :     0.779465  s :     0.779465
      pz      :     0.003981  p :     0.020661
      px      :     0.006195
      py      :     0.010485

  7 C s       :     3.158873  s :     3.158873
      pz      :     0.934994  p :     2.465085
      px      :     0.798475
      py      :     0.731617
      dz2     :     0.003850  d :     0.121303
      dxz     :     0.029076
      dyz     :     0.034202
      dx2y2   :     0.028201
      dxy     :     0.025974
      f0      :     0.001952  f :     0.012838
      f+1     :     0.001025
      f-1     :     0.001306
      f+2     :     0.000566
      f-2     :     0.001972
      f+3     :     0.002856
      f-3     :     0.003161

  8 N s       :     3.737827  s :     3.737827
      pz      :     1.374880  p :     3.695765
      px      :     1.027784
      py      :     1.293101
      dz2     :     0.004440  d :     0.051407
      dxz     :     0.013757
      dyz     :     0.005714
      dx2y2   :     0.013186
      dxy     :     0.014310
      f0      :     0.000686  f :     0.003497
      f+1     :     0.000489
      f-1     :     0.000349
      f+2     :     0.000102
      f-2     :     0.000517
      f+3     :     0.000742
      f-3     :     0.000612

  9 C s       :     3.209423  s :     3.209423
      pz      :     0.983337  p :     2.953634
      px      :     1.015648
      py      :     0.954648
      dz2     :     0.005302  d :     0.065561
      dxz     :     0.017463
      dyz     :     0.010660
      dx2y2   :     0.014022
      dxy     :     0.018114
      f0      :     0.001263  f :     0.006909
      f+1     :     0.000700
      f-1     :     0.000858
      f+2     :     0.001038
      f-2     :     0.000119
      f+3     :     0.001107
      f-3     :     0.001825

 10 C s       :     3.338168  s :     3.338168
      pz      :     0.967455  p :     2.579689
      px      :     0.795272
      py      :     0.816962
      dz2     :     0.003798  d :     0.088405
      dxz     :     0.019350
      dyz     :     0.021516
      dx2y2   :     0.022948
      dxy     :     0.020792
      f0      :     0.001346  f :     0.008231
      f+1     :     0.000925
      f-1     :     0.000950
      f+2     :     0.000627
      f-2     :     0.000835
      f+3     :     0.002026
      f-3     :     0.001522

 11 C s       :     3.161675  s :     3.161675
      pz      :     0.933084  p :     2.459939
      px      :     0.808218
      py      :     0.718637
      dz2     :     0.004019  d :     0.121142
      dxz     :     0.027629
      dyz     :     0.035600
      dx2y2   :     0.025517
      dxy     :     0.028378
      f0      :     0.001946  f :     0.012833
      f+1     :     0.000972
      f-1     :     0.001368
      f+2     :     0.000959
      f-2     :     0.001578
      f+3     :     0.001744
      f-3     :     0.004266

 12 N s       :     3.737370  s :     3.737370
      pz      :     1.372445  p :     3.695589
      px      :     1.292306
      py      :     1.030838
      dz2     :     0.004658  d :     0.051400
      dxz     :     0.005768
      dyz     :     0.013472
      dx2y2   :     0.013259
      dxy     :     0.014242
      f0      :     0.000680  f :     0.003497
      f+1     :     0.000342
      f-1     :     0.000501
      f+2     :     0.000107
      f-2     :     0.000523
      f+3     :     0.000610
      f-3     :     0.000733

 13 C s       :     3.210015  s :     3.210015
      pz      :     0.981416  p :     2.953376
      px      :     0.954936
      py      :     1.017024
      dz2     :     0.005461  d :     0.065521
      dxz     :     0.010772
      dyz     :     0.017072
      dx2y2   :     0.014187
      dxy     :     0.018028
      f0      :     0.001242  f :     0.006909
      f+1     :     0.000824
      f-1     :     0.000770
      f+2     :     0.001005
      f-2     :     0.000137
      f+3     :     0.001807
      f-3     :     0.001123

 14 C s       :     3.159595  s :     3.159595
      pz      :     0.927195  p :     2.466022
      px      :     0.736492
      py      :     0.802336
      dz2     :     0.003489  d :     0.121241
      dxz     :     0.035220
      dyz     :     0.028669
      dx2y2   :     0.027912
      dxy     :     0.025951
      f0      :     0.001972  f :     0.012837
      f+1     :     0.001284
      f-1     :     0.001028
      f+2     :     0.000574
      f-2     :     0.001940
[...]
  0-1A  ->  1-1A    2.405962   19405.4   515.3   0.023297432   0.00309  -0.02822  -0.04762   0.00509
  0-1A  ->  2-1A    2.406195   19407.3   515.3   0.023285521   0.00309   0.04787  -0.02817   0.00188
  0-1A  ->  3-1A    3.540443   28555.6   350.2   0.568702333   0.11099  -0.12321  -0.30792   0.03150
  0-1A  ->  4-1A    3.540699   28557.7   350.2   0.567988317   0.11086  -0.30928   0.12312  -0.00658
  0-1A  ->  5-1A    4.217488   34016.3   294.0   0.000005998   0.00000  -0.00034  -0.00003  -0.00113
  0-1A  ->  6-1A    4.290051   34601.6   289.0   0.000002613   0.00000  -0.00070  -0.00036  -0.00004
  0-1A  ->  7-1A    4.307531   34742.6   287.8   0.050013584   0.01188  -0.10617   0.02458  -0.00049
  0-1A  ->  8-1A    4.307886   34745.4   287.8   0.049896800   0.01185  -0.02459  -0.10552   0.01048
  0-1A  ->  9-1A    4.526412   36508.0   273.9   0.000000817   0.00000  -0.00019   0.00041  -0.00002
  0-1A  -> 10-1A    4.650954   37512.5   266.6   0.000005047   0.00000   0.00038   0.00107  -0.00008
  0-1A  -> 11-1A    4.680637   37751.9   264.9   0.000005810   0.00000  -0.00113  -0.00047  -0.00009
  0-1A  -> 12-1A    4.709861   37987.6   263.2   0.000901073   0.00023   0.01274  -0.00844   0.00060
  0-1A  -> 13-1A    4.710073   37989.3   263.2   0.000991995   0.00026  -0.00893  -0.01326   0.00143
  0-1A  -> 14-1A    4.728123   38134.9   262.2   0.000004248   0.00000  -0.00102  -0.00024   0.00007
  0-1A  -> 15-1A    4.759515   38388.1   260.5   0.000005679   0.00000   0.00043   0.00113  -0.00015
  0-1A  -> 16-1A    4.832480   38976.6   256.6   0.000000891   0.00000  -0.00008   0.00043   0.00022
  0-1A  -> 17-1A    4.845171   39078.9   255.9   0.000856671   0.00023  -0.00167   0.00168   0.01494
  0-1A  -> 18-1A    4.863258   39224.8   254.9   0.002015617   0.00054  -0.00005  -0.00177  -0.02318
  0-1A  -> 19-1A    4.907311   39580.1   252.7   0.024280186   0.00657  -0.08034   0.01067   0.00040
  0-1A  -> 20-1A    4.907623   39582.6   252.6   0.024208916   0.00655  -0.01098  -0.07980   0.00774
  0-1A  -> 21-1A    4.956919   39980.3   250.1   0.000060647   0.00002  -0.00205   0.00349  -0.00044
  0-1A  -> 22-1A    4.984057   40199.1   248.8   0.009545259   0.00262  -0.03524  -0.03696   0.00386
  0-1A  -> 23-1A    4.984322   40201.3   248.7   0.009703861   0.00267   0.03751  -0.03534   0.00319
  0-1A  -> 24-1A    5.033312   40596.4   246.3   0.000122994   0.00003   0.00228  -0.00199  -0.00499
  0-1A  -> 25-1A    5.034234   40603.8   246.3   0.000052810   0.00001  -0.00064  -0.00032   0.00376
  0-1A  -> 26-1A    5.067450   40871.7   244.7   0.020553960   0.00574  -0.06442   0.03981  -0.00274
  0-1A  -> 27-1A    5.067689   40873.7   244.7   0.020192121   0.00564   0.03930   0.06365  -0.00666
  0-1A  -> 28-1A    5.097917   41117.5   243.2   0.000000478   0.00000  -0.00005  -0.00035   0.00008
  0-1A  -> 29-1A    5.100786   41140.6   243.1   0.000449299   0.00013   0.01122  -0.00064  -0.00013
  0-1A  -> 30-1A    5.100987   41142.2   243.1   0.000407704   0.00011  -0.00018  -0.01066   0.00103

------------------------------------------------------------------------------------------
                     CD SPECTRUM VIA TRANSITION ELECTRIC DIPOLE MOMENTS    
------------------------------------------------------------------------------------------
     Transition      Energy     Energy  Wavelength    R        MX        MY        MZ   
                      (eV)      (cm-1)    (nm)   (1e40*cgs)   (au)      (au)      (au)  
------------------------------------------------------------------------------------------
  0-1A  ->  1-1A    2.405962   19405.4   515.3   -0.41252   0.00315   0.00494  -0.00012
  0-1A  ->  2-1A    2.406195   19407.3   515.3   -0.39342  -0.00493   0.00274  -0.00075
  0-1A  ->  3-1A    3.540443   28555.6   350.2   45.18947  -0.00532  -0.01516   0.00120
  0-1A  ->  4-1A    3.540699   28557.7   350.2   45.03549  -0.01501   0.00571   0.00022
  0-1A  ->  5-1A    4.217488   34016.3   294.0   -4.43594  -0.01888  -0.10883  -1.14664
  0-1A  ->  6-1A    4.290051   34601.6   289.0   -0.00118   0.00015   0.00066  -0.00147
  0-1A  ->  7-1A    4.307531   34742.6   287.8   -1.92110   0.00379  -0.00038  -0.00032
  0-1A  ->  8-1A    4.307886   34745.4   287.8   -1.81868   0.00133   0.00338  -0.00005
  0-1A  ->  9-1A    4.526412   36508.0   273.9   -0.00038   0.00054  -0.00003  -0.00003
  0-1A  -> 10-1A    4.650954   37512.5   266.6   -0.00307  -0.00006  -0.00127   0.00149
  0-1A  -> 11-1A    4.680637   37751.9   264.9   -0.00215   0.00040   0.00040   0.00068
  0-1A  -> 12-1A    4.709861   37987.6   263.2   -1.52675  -0.02493   0.01646  -0.00139
  0-1A  -> 13-1A    4.710073   37989.3   263.2   -1.63065   0.01686   0.02450  -0.00524
  0-1A  -> 14-1A    4.728123   38134.9   262.2   -0.00348   0.00095   0.00011   0.00062
  0-1A  -> 15-1A    4.759515   38388.1   260.5   -0.00152   0.00006  -0.00059  -0.00236
  0-1A  -> 16-1A    4.832480   38976.6   256.6    0.01791  -0.00023   0.00159   0.00789
  0-1A  -> 17-1A    4.845171   39078.9   255.9   33.00712   0.00444   0.03674   0.37832
  0-1A  -> 18-1A    4.863258   39224.8   254.9   -9.80648   0.00215   0.01376   0.14405
  0-1A  -> 19-1A    4.907311   39580.1   252.7   -5.79059   0.00762  -0.00089   0.00560
  0-1A  -> 20-1A    4.907623   39582.6   252.6   -5.62331   0.00094   0.00713  -0.00283
  0-1A  -> 21-1A    4.956919   39980.3   250.1    0.02188  -0.00133   0.00030  -0.00128
  0-1A  -> 22-1A    4.984057   40199.1   248.8   12.64725  -0.04935  -0.05192   0.00802
  0-1A  -> 23-1A    4.984322   40201.3   248.7   12.69036   0.05148  -0.04899   0.00085
  0-1A  -> 24-1A    5.033312   40596.4   246.3  -25.76103   0.00511   0.02218   0.24731
  0-1A  -> 25-1A    5.034234   40603.8   246.3  -13.10138  -0.00275  -0.01794  -0.17817
  0-1A  -> 26-1A    5.067450   40871.7   244.7   10.36520  -0.01968   0.01188  -0.00059
  0-1A  -> 27-1A    5.067689   40873.7   244.7   10.26333   0.01151   0.01960  -0.00280
  0-1A  -> 28-1A    5.097917   41117.5   243.2   -0.00223   0.00047   0.00151  -0.00030
  0-1A  -> 29-1A    5.100786   41140.6   243.1   17.92798   0.35113  -0.01525  -0.00237
  0-1A  -> 30-1A    5.100987   41142.2   243.1   17.54333  -0.01392  -0.35166   0.03425

------------------------------------------------------------------------------------------
                     CD SPECTRUM VIA TRANSITION VELOCITY DIPOLE MOMENTS    
------------------------------------------------------------------------------------------
     Transition      Energy     Energy  Wavelength    R        MX        MY        MZ   
                      (eV)      (cm-1)    (nm)   (1e40*cgs)   (au)      (au)      (au)  
------------------------------------------------------------------------------------------
  0-1A  ->  1-1A    2.405962   19405.4   515.3   -1.73087   0.00315   0.00494  -0.00012
  0-1A  ->  2-1A    2.406195   19407.3   515.3   -1.67575  -0.00493   0.00274  -0.00075
  0-1A  ->  3-1A    3.540443   28555.6   350.2   19.42986  -0.00532  -0.01516   0.00120
  0-1A  ->  4-1A    3.540699   28557.7   350.2   19.35761  -0.01501   0.00571   0.00022
  0-1A  ->  5-1A    4.217488   34016.3   294.0    3.96806  -0.01888  -0.10883  -1.14664
  0-1A  ->  6-1A    4.290051   34601.6   289.0   -0.00085   0.00015   0.00066  -0.00147
  0-1A  ->  7-1A    4.307531   34742.6   287.8   -1.22703   0.00379  -0.00038  -0.00032
  0-1A  ->  8-1A    4.307886   34745.4   287.8   -1.16181   0.00133   0.00338  -0.00005
  0-1A  ->  9-1A    4.526412   36508.0   273.9   -0.00033   0.00054  -0.00003  -0.00003
  0-1A  -> 10-1A    4.650954   37512.5   266.6   -0.00413  -0.00006  -0.00127   0.00149
  0-1A  -> 11-1A    4.680637   37751.9   264.9   -0.00191   0.00040   0.00040   0.00068
  0-1A  -> 12-1A    4.709861   37987.6   263.2   -1.24582  -0.02493   0.01646  -0.00139
  0-1A  -> 13-1A    4.710073   37989.3   263.2   -1.31544   0.01686   0.02450  -0.00524
  0-1A  -> 14-1A    4.728123   38134.9   262.2   -0.00258   0.00095   0.00011   0.00062
  0-1A  -> 15-1A    4.759515   38388.1   260.5   -0.00079   0.00006  -0.00059  -0.00236
  0-1A  -> 16-1A    4.832480   38976.6   256.6    0.00648  -0.00023   0.00159   0.00789
  0-1A  -> 17-1A    4.845171   39078.9   255.9   15.10841   0.00444   0.03674   0.37832
  0-1A  -> 18-1A    4.863258   39224.8   254.9   -8.87211   0.00215   0.01376   0.14405
  0-1A  -> 19-1A    4.907311   39580.1   252.7   -1.61886   0.00762  -0.00089   0.00560
  0-1A  -> 20-1A    4.907623   39582.6   252.6   -1.57246   0.00094   0.00713  -0.00283
  0-1A  -> 21-1A    4.956919   39980.3   250.1    0.01127  -0.00133   0.00030  -0.00128
  0-1A  -> 22-1A    4.984057   40199.1   248.8    9.49435  -0.04935  -0.05192   0.00802
  0-1A  -> 23-1A    4.984322   40201.3   248.7    9.43351   0.05148  -0.04899   0.00085
  0-1A  -> 24-1A    5.033312   40596.4   246.3   -3.23044   0.00511   0.02218   0.24731
  0-1A  -> 25-1A    5.034234   40603.8   246.3   -1.68868  -0.00275  -0.01794  -0.17817
  0-1A  -> 26-1A    5.067450   40871.7   244.7    4.41074  -0.01968   0.01188  -0.00059
  0-1A  -> 27-1A    5.067689   40873.7   244.7    4.35061   0.01151   0.01960  -0.00280
  0-1A  -> 28-1A    5.097917   41117.5   243.2   -0.00147   0.00047   0.00151  -0.00030
  0-1A  -> 29-1A    5.100786   41140.6   243.1    9.93450   0.35113  -0.01525  -0.00237
  0-1A  -> 30-1A    5.100987   41142.2   243.1    9.51921  -0.01392  -0.35166   0.03425

Total run time:    19944.881 sec

           *** ORCA-CIS/TD-DFT FINISHED WITHOUT ERROR ***
-----------------------
CIS/TD-DFT TOTAL ENERGY
-----------------------

    E(SCF)  =  -2112.704203016 Eh
    DE(CIS) =      0.088417481 Eh (Root  1)
    ----------------------------- ---------
    E(tot)  =  -2112.615785535 Eh


Maximum memory used throughout the entire CIS-calculation: 2417.7 MB
=> NOW LEAVING ORCA_CIS

-------------------------   --------------------
FINAL SINGLE POINT ENERGY     -2112.615785534763
-------------------------   --------------------



           ************************************************************
           *        Program running with 8 parallel MPI-processes     *
           *              working on a common directory               *
           ************************************************************

------------------------------------------------------------------------------
                              ORCA PROPERTY CALCULATIONS
------------------------------------------------------------------------------

GBWName                                 ... tddft.gbw
Number of atoms                         ...     77
Number of basis functions               ...   1688
Max core memory                         ...   3000 MB

Electric properties:
Dipole moment                           ... YES
Quadrupole moment                       ...  NO
Static polarizability (Dipole/Dipole)   ...  NO
Static polarizability (Dipole/Quad.)    ...  NO
Static polarizability (Quad./Quad.)     ...  NO
Static polarizability (Velocity)        ...  NO
Static hyperpolarizability              ...  NO

Atomic electric properties:
Dipole moment                           ...  NO
Quadrupole moment                       ...  NO
Static polarizability                   ...  NO

Choice of electric origin               ... Center of mass
Position of electric origin             ...    -0.159849     5.088964     6.548248

General magnetic properties:
Magnetizability                         ...  NO

EPR properties:
g-Tensor (aka g-matrix)                 ...  NO
Zero-Field splitting spin-orbit         ...  NO
Zero-field splitting spin-spin          ...  NO
Hyperfine couplings                     ...  NO (   0 nuclei)
Quadrupole couplings                    ...  NO (   0 nuclei)
Contact density                         ...  NO (   0 nuclei)

NMR properties:
Chemical shifts                         ...  NO (   0 nuclei)
Spin-rotation constants                 ...  NO (   0 nuclei)
Spin-spin couplings                     ...  NO (   0 nuclei,    0 pairs)

Choice of magnetic origin               ... GIAO
Position of magnetic origin             ...     0.000000     0.000000     0.000000

Properties with geometric perturbations:
SCF Hessian                             ...  NO
IR spectrum                             ...  NO
VCD spectrum                            ...  NO
X-ray spectroscopy properties:
SCF XES/XAS/RIXS spectra                ...  NO

SCF SOC stabilization energy            ...  NO
Diagonal Born-Oppenheimer correction    ...  NO

-------------
DIPOLE MOMENT
-------------

Method             : SCF
Type of density    : Electron Density
Multiplicity       :   1
Irrep              :   0
Energy             : -2112.7042030158054331 Eh
Basis              : AO
                                X                 Y                 Z
Electronic contribution:     -0.006143609      -0.000544156       0.013897731
Nuclear contribution   :      0.006551862       0.000121054      -0.014501534
                        -----------------------------------------
Total Dipole Moment    :      0.000408253      -0.000423102      -0.000603803
                        -----------------------------------------
Magnitude (a.u.)       :      0.000842772
Magnitude (Debye)      :      0.002142156



--------------------
Rotational spectrum 
--------------------
 
Rotational constants in cm-1:             0.001944             0.001943             0.001012 
Rotational constants in MHz :            58.267391            58.258492            30.324103 

Dipole components along the rotational axes: 
x,y,z [a.u.] :     0.000430    -0.000349    -0.000635 
x,y,z [Debye]:     0.001093    -0.000888    -0.001614 

 

Dipole moment calculation done in   0.2 sec 

Maximum memory used throughout the entire PROP-calculation: 230.7 MB

--------------------------------
SUGGESTED CITATIONS FOR THIS RUN
--------------------------------

Below you find a list of papers that are relevant to this ORCA run
We neither can nor want to force you to cite these papers, but we appreciate if you do
You receive ORCA, which is the product of decades of hard work by many enthusiastic individuals, for free
The only thing we kindly ask in return is that you cite our papers,
We deeply appreciate it, if you show your appreciation for ORCA by not just citing the generic ORCA reference.

Please note that relegating all ORCA citations to the supporting information does *not* help us.
SI sections are not indexed - citations you put there will not count into any citation statistics
But we need these citations in order to attract the funding resources that allow us to do what we are doing

Therefore, if you are a happy ORCA user, please consider citing a few of the papers listed below in the main body of your paper

In addition to the list printed below, the program has created the file tddft.bibtex that contains the list in bibtex format
You can import this file easily into all common literature databanks and citation aid programs

It goes without saying that in many instances, there are alternative algorithms to achieve similar
results as the ones you have gotten from ORCA. It is, of course, also the case that in some instances
ORCA just re-implements algorithms worked out by others. We are fully aware of that and we are also
fully appreciative of our colleagues work. Hence this citation list should not be read as indicating
that the listed papers, which are focused on our own work, are the only ones worth citing. It simply
meant to make it easier for users to cite ORCA specific papers. It is not a substitute for doing your
own literature research and citing the relevant literature in a scientifically appropriate manner.

List of essential papers. We consider these as the minimum necessary citations

  1. Neese, F.
     Software update: the ORCA program system, version 6.0
     WIRES Comput. Molec. Sci. 2025 15(1), e70019
     doi.org/10.1002/wcms.70019

List of papers to cite with high priority. The work reported in these papers was absolutely
necessary for this run to complete.
Our perspective: the developers of density functionals and basis sets usually get cited in chemistry papers
Good! But without the algorithms to do something with them, the functionals or basis sets would not do anything.
Hence, in our opinion, the algorithm design and method developments papers are equally worthy of getting cited

  1. Neese, F.; Olbrich, G.
     Efficient use of the resolution of the identity approximation in time-dependent density functional calculations with hybrid density functionals
     Chem. Phys. Lett. 2002 362 , 170-178
     doi.org/10.1016/s0009-2614(02)01053-9
  2. Neese, F.
     An improvement of the resolution of the identity approximation for the formation of the Coulomb matrix
     J. Comp. Chem. 2003 24(14), 1740-1747
     doi.org/10.1002/jcc.10318
  3. Neese, F.; Wennmohs, F.; Hansen, A.; Becker, U.
     Efficient, approximate and parallel Hartree-Fock and hybrid DFT calculations. A 'chain-of-spheres' algorithm for the Hartree-Fock exchange
     Chem. Phys. 2009 356(1-3), 98-109
     doi.org/10.1016/j.chemphys.2008.10.036
  4. Garcia-Rates, M.; Neese, F.
     Effect of the Solute Cavity on the Solvation Energy and its Derivatives within the Framework of the Gaussian Charge Scheme
     J. Comput. Chem. 2020 41 , 922-939
     doi.org/10.1002/jcc.26139
  5. Helmich-Paris, B.; de Souza, B.; Neese, F.; Izsák, R.
     An improved chain of spheres for exchange algorithm
     J. Chem. Phys. 2021 155(10), 104109
     doi.org/10.1063/5.0058766
  6. Neese, F.
     The SHARK Integral Generation and Digestion System
     J. Comp. Chem. 2022 44(3), 381
     doi.org/10.1002/jcc.26942

List of suggested additional citations. These are papers that are important in the 'surrounding' of 
of this run, or papers that preceded the highly important papers. If you like your results we are grateful for a citation.

  1. Izsak, R.; Neese, F.
     An overlap fitted chain of spheres exchange method
     J. Chem. Phys. 2011 135 , 144105
     doi.org/10.1063/1.3646921
  2. Izsak, R.; Hansen, A.; Neese, F.
     The resolution of identity and chain of spheres approximations for the LPNO-CCSD singles Fock term
     Molec. Phys. 2012 110 , 2413-2417
     doi.org/10.1080/00268976.2012.687466
  3. Neese, F.
     The ORCA program system
     WIRES Comput. Molec. Sci. 2012 2(1), 73-78
     doi.org/10.1002/wcms.81
  4. Izsak, R.; Neese, F.; Klopper, W.
     Robust fitting techniques in the chain of spheres approximation to the Fock exchange: The role of the complementary space
     J. Chem. Phys. 2013 139 , 
     doi.org/10.1063/1.4819264
  5. Neese, F.
     Software update: the ORCA program system, version 4.0
     WIRES Comput. Molec. Sci. 2018 8(1), 1-6
     doi.org/10.1002/wcms.1327
  6. Neese, F.; Wennmohs, F.; Becker, U.; Riplinger, C.
     The ORCA quantum chemistry program package
     J. Chem. Phys. 2020 152(22), 224108
     doi.org/10.1063/5.0004608
  7. Neese, F.
     Software update: The ORCA program system—Version 5.0
     WIRES Comput. Molec. Sci. 2022 12(1), e1606
     doi.org/10.1002/wcms.1606

List of optional additional citations

  1. Neese, F.
     Approximate second-order SCF convergence for spin unrestricted wavefunctions
     Chem. Phys. Lett. 2000 325(1-3), 93-98
     doi.org/10.1016/s0009-2614(00)00662-x

Timings for individual modules:

Sum of individual times          ...    23256.930 sec (= 387.615 min)
Startup calculation              ...       77.927 sec (=   1.299 min)   0.3 %
SCF iterations                   ...     3224.225 sec (=  53.737 min)  13.9 %
Property integrals               ...        7.856 sec (=   0.131 min)   0.0 %
Property calculations            ...        1.376 sec (=   0.023 min)   0.0 %
CIS module                       ...    19945.546 sec (= 332.426 min)  85.8 %
                             ****ORCA TERMINATED NORMALLY****
TOTAL RUN TIME: 0 days 6 hours 27 minutes 37 seconds 978 msec
