
                                 *****************
                                 * O   R   C   A *
                                 *****************

                                            #,                                       
                                            ###                                      
                                            ####                                     
                                            #####                                    
                                            ######                                   
                                           ########,                                 
                                     ,,################,,,,,                         
                               ,,#################################,,                 
                          ,,##########################################,,             
                       ,#########################################, ''#####,          
                    ,#############################################,,   '####,        
                  ,##################################################,,,,####,       
                ,###########''''           ''''###############################       
              ,#####''   ,,,,##########,,,,          '''####'''          '####       
            ,##' ,,,,###########################,,,                        '##       
           ' ,,###''''                  '''############,,,                           
         ,,##''                                '''############,,,,        ,,,,,,###''
      ,#''                                            '''#######################'''  
     '                                                          ''''####''''         
             ,#######,   #######,   ,#######,      ##                                
            ,#'     '#,  ##    ##  ,#'     '#,    #''#        ,####,    ,#,          
            ##       ##  ##   ,#'  ##            #'  '#       #'       ,# #          
            ##       ##  #######   ##           ,######,      #####,      #          
            '#,     ,#'  ##    ##  '#,     ,#' ,#      #,     #,   #      #          
             '#######'   ##     ##  '#######'  #'      '#     '####' #    #          



                #########################################################
                #                        -***-                          #
                #          Department of theory and spectroscopy        #
                #                                                       #
                #                      Frank Neese                      #
                #                                                       #
                #     Directorship, Architecture, Infrastructure        #
                #                    SHARK, DRIVERS                     #
                #        Core code/Algorithms in most modules           #
                #                                                       #
                #        Max Planck Institute fuer Kohlenforschung      #
                #                Kaiser Wilhelm Platz 1                 #
                #                 D-45470 Muelheim/Ruhr                 #
                #                      Germany                          #
                #                                                       #
                #                  All rights reserved                  #
                #                        -***-                          #
                #########################################################


                         Program Version 6.1.1  -  RELEASE   -
                                (GIT: $487d211c$)
                          ($2025-11-21 10:33:24 +0100$)


 With contributions from (in alphabetic order):
[Max-Planck-Institut fuer Kohlenforschung]                               
  Daniel Aravena         : Magnetic Suceptibility                        
  Michael Atanasov       : Ab Initio Ligand Field Theory (pilot matlab implementation)
  Alexander A. Auer      : GIAO ZORA, VPT2 properties, NMR spectrum      
  Ute Becker             : All parallelization in ORCA, NUMFREQ, NUMCALC 
  Giovanni Bistoni       : ED, misc. LED, open-shell LED, HFLD           
  Dmytro Bykov           : pre 5.0 version of the SCF Hessian            
  Marcos Casanova-Páez   : Triplet and SCS-CIS(D). UHF-(DLPNO)-IP/EA/STEOM-CCSD. UHF-CVS-IP/STEOM-CCSD   
  Vijay G. Chilkuri      : MRCI spin determinant printing, contributions to CSF-ICE 
  Pauline Colinet        : FMM embedding                                 
  Dipayan Datta          : RHF DLPNO-CCSD density                        
  Achintya Kumar Dutta   : EOM-CC, STEOM-CC                              
  Nicolas Foglia         : Exact transition moments, OPA infrastructure, MCD improvements    
  Dmitry Ganyushin       : Spin-Orbit,Spin-Spin,Magnetic field MRCI      
  Miquel Garcia-Rates    : C-PCM and meta-GGA Hessian, CCSD/C-PCM, Gaussian charge scheme 
  Tiago L. C. Gouveia    : GS-ROHF, GS-ROCIS                             
  Yang Guo               : DLPNO-NEVPT2, F12-NEVPT2, CIM, IAO-localization        
  Andreas Hansen         : Spin unrestricted coupled pair/coupled cluster methods 
  Ingolf Harden          : AUTO-CI MPn and infrastructure                
  Benjamin Helmich-Paris : MC-RPA, TRAH-(SCF,CASSCF), AVAS, COSX integrals, SCF dyn. polar., MC-PDFT, srDFT 
  Lee Huntington         : MR-EOM, pCC                                   
  Robert Izsak           : Overlap fitted RIJCOSX, COSX-SCS-MP3, EOM     
  Riya Kayal             : Wick's Theorem for AUTO-CI, AUTO-CI UHF-CCSDT 
  Emily Kempfer          : AUTO-CI RHF CISDT and CCSDT, approximate NEVPT4
  Christian Kollmar      : KDIIS, OOCD, Brueckner-CCSD(T), CCSD density, CASPT2, CASPT2-K, improved NEVPT2 
  Axel Koslowski         : Symmetry handling                             
  Simone Kossmann        : meta-GGA functionals, TD-DFT gradient, OOMP2, (MP2 Hessian; deprecated post 5.0) 
  Lucas Lang             : DCDCAS, Hyperfine gauge corrections, ICE-SOC+SSC
  Marvin Lechner         : AUTO-CI (C++ implementation), FIC-MRCC        
  Spencer Leger          : CASSCF response                               
  Dagmar Lenk            : GEPOL surface, SMD, ORCA-2-JSON               
  Dimitrios Liakos       : Extrapolation schemes; Compound Job, Property file
  Dimitrios Manganas     : Further ROCIS development; embedding schemes. LFT, Crystal Embedding 
  Dimitrios Pantazis     : SARC Basis sets                               
  Anastasios Papadopoulos: AUTO-CI, single reference methods and gradients 
  Taras Petrenko         : pre 6.0 DFT Hessian and TD-DFT gradient,  ECA, NRVS 
  Petra Pikulova         : Analytic Raman intensities                    
  Peter Pinski           : DLPNO-MP2, DLPNO-MP2 Gradient                 
  Shashank Vittal Rao    : ES-AILFT, MagRelax                            
  Christoph Reimann      : Effective Core Potentials                     
  Marius Retegan         : Local ZFS, SOC                                
  Christoph Riplinger    : Optimizer, TS searches, QM/MM, DLPNO-CCSD(T), (RO)-DLPNO pert. Triples 
  Michael Roemelt        : Original ROCIS implementation, recursive CI coupling coefficients
  Masaaki Saitow         : Open-shell DLPNO-CCSD energy and density      
  Barbara Sandhoefer     : DKH picture change effects                    
  Yorick L. A. Schmerwitz: GMF and freeze-and-release deltaSCF, NEB S-IDPP initial path                    
  Kantharuban Sivalingam : CASSCF convergence/infrastructure, NEVPT2, NEVPT3, NEVPT4(SD), FIC-MRCI and CEPA variants
  Bernardo de Souza      : ESD, SOC TD-DFT                               
  Georgi L. Stoychev     : AutoAux, RI-MP2 NMR, DLPNO-MP2 response, X2C  
  Van Anh Tran           : RI-MP2 g-tensors                              
  Willem Van den Heuvel  : Paramagnetic NMR                              
  Zikuan Wang            : NOTCH, Electric field optimization            
  Frank Wennmohs         : Technical directorship and infrastructure     
  Hang Xu                : AUTO-CI-Response properties                   
                                                                         
[FACCTs GmbH]                                                            
  Markus Bursch, Nicolas Foglia, Miquel Garcia-Rates, Ingolf Harden, Hagen Neugebauer, Anastasios Papadopoulos, 
  Christoph Riplinger, Bernardo de Souza, Georgi L. Stoychev                                                    
                                                                 
  APM, various basis sets, CI-OPT, improved COSX, DLPNO-Multilevel,           
  DOCKER, DRACO, updates on ESD, Fragmentator, GOAT, IRC, LR-CPCM, L-BFGS, MBIS, meta-GGA TD-DFT gradient, ML-optimized integration grids, 
  MM, NACMEs, nearIR, NEB, NEB-TS, NL-DFT gradient (VV10), 2- and 3-layer-ONIOM, interface openCOSMO-RS, QMMM,   
  Crystal-QMMM, RESP, rigid body optimization, SF, symmetry and pop. for TD-DFT, various functionals, SOLVATOR                                   
                                                                         
[Other institutions]                                                     
  V. Asgeirsson          : NEB                                           
  Christoph Bannwarth    : sTDA-DFT, sTD-DFT, PBEh-3c, B97-3c, D3        
  Giovanni Bistoni       : ETS/NOCV, ADLD/ADEX, COVALED                  
  Martin Brehm           : Molecular dynamics                            
  Ronald Cardenas        : ETS/NOCV                                      
  Martina Colucci        : COVALED                                       
  Sebastian Ehlert       : rSCAN, r2SCAN, r2SCAN-3c, D4, dhf basis sets  
  Marvin Friede          : D4 for Fr, Ra, Ac-Lr                          
  Lars Goerigk           : TD-DFT with DH, B97 family of functionals     
  Stefan Grimme          : VdW corrections, initial TS optimization, DFT functionals, gCP, sTDA/sTD-DF 
  Waldemar Hujo          : DFT-NL                                        
  H. Jonsson             : NEB                                           
  Holger Kruse           : gCP                                           
  Marcel Mueller         : wB97X-3c, vDZP basis set                      
  Hagen Neugebauer       : wr2SCAN, Native XTB                           
  Gianluca Regni         : ADLD/ADEX                                     
  Tobias Risthaus        : pre 6.0 range-separated hybrid DFT and stability analysis
  Lukas Wittmann         : regularized MP2, r2SCAN double-hybrids, wr2SCAN        
                                                                         
We gratefully acknowledge several colleagues who have allowed us to      
interface, adapt or use parts of their codes:                            
  Ed Valeev, F. Pavosevic, A. Kumar             : LibInt (2-el integral package), F12 methods 
  Garnet Chan, S. Sharma, J. Yang, R. Olivares  : DMRG                   
  Ulf Ekstrom                                   : XCFun DFT Library      
  Mihaly Kallay                                 : mrcc  (arbitrary order and MRCC methods)
  Frank Weinhold                                : gennbo (NPA and NBO analysis)           
  Simon Mueller                                 : openCOSMO-RS                            
  Christopher J. Cramer and Donald G. Truhlar   : smd solvation model                     
  S Lehtola, MJT Oliveira, MAL Marques          : LibXC Library                           
  Liviu Ungur et al                             : ANISO software                          


 Your calculation uses the libint2 library for the computation of 2-el integrals
 For citations please refer to: http://libint.valeyev.net

 Your ORCA version has been built with support for libXC version: 7.0.0
 For citations please refer to: https://libxc.gitlab.io

 This ORCA versions uses:
   CBLAS   interface :  Fast vector & matrix operations
   LAPACKE interface :  Fast linear algebra routines
   SCALAPACK package :  Parallel linear algebra routines
   Shared memory     :  Shared parallel matrices
   BLAS/LAPACK       :  OpenBLAS 0.3.29  USE64BITINT DYNAMIC_ARCH NO_AFFINITY Haswell SINGLE_THREADED
        Core in use  :  Haswell
   Copyright (c) 2011-2014, The OpenBLAS Project


  ***********************************
  * Starting time: Sun Jun 14 19:13:07 2026
  * Host name:     steezy
  * Process ID:    2915966
  * Working dir.:  /home/jannes/mgtpp/04_tddft_tda_comparison/runs/tdaon_bp86
  ***********************************

NOTE: MaxCore=3000 MB was set to SCF,MP2,MDCI,CIPSI,MRCI,RASCI and CIS
      => If you want to overwrite this, your respective input block should be placed after the MaxCore statement


***************************************
The coordinates will be read from file: /home/jannes/mgtpp/01_opt/mgtpp_opt_b3lyp_tzvp.xyz
***************************************


================================================================================

----- Orbital basis set information -----
Your calculation utilizes the basis: def2-TZVP
   F. Weigend and R. Ahlrichs, Phys. Chem. Chem. Phys. 7, 3297 (2005).

----- AuxJ basis set information -----
Your calculation utilizes the auxiliary basis: def2/J
   H-Rn: F. Weigend, Phys. Chem. Chem. Phys. 8, 1057 (2006).
   Fr-Lr: K. Eichkorn, F. Weigend, O. Treutler, R. Ahlrichs; Theor. Chem. Acc. 97, 119 (1997).

================================================================================
                                        WARNINGS
                       Please study these warnings very carefully!
================================================================================



WARNING: Found flag for RIJCOSX approximation but no HF exchange needed!
  ===> : RIJCOSX  will be disabled and Split-RI-J is turned on

WARNING: CIS/ROCIS methods need fully converged wavefunctions
  ===> : Setting SCFConvForced true
         You can overwrite this default with %scf ConvForced false 


================================================================================
                                       INPUT FILE
================================================================================
NAME = tddft.inp
|  1> %pal nprocs 8 end
|  2> %maxcore 3000
|  3> ! BP86 def2-TZVP def2/J RIJCOSX DefGrid3 TightSCF CPCM(Toluene)
|  4> %tddft
|  5>   nroots 30
|  6>   triplets false
|  7> end
|  8> * xyzfile 0 1 /home/jannes/mgtpp/01_opt/mgtpp_opt_b3lyp_tzvp.xyz
|  9> 
| 10>                          ****END OF INPUT****
================================================================================

                       ****************************
                       * Single Point Calculation *
                       ****************************

---------------------------------
CARTESIAN COORDINATES (ANGSTROEM)
---------------------------------
  N     -2.132782    2.520982    3.513584
  H      1.679617   -2.258823    3.910366
  C     -4.375479    3.011680    3.504687
  C     -0.398226   -1.579010    3.872638
  N      0.090830    0.653535    3.656021
  C      0.954286   -1.465385    3.843438
  H     -0.977688   -2.482435    3.962791
  C      2.868723    1.838465    3.504305
  N     -0.260569    4.732470    3.276338
  C     -1.123876    6.851501    3.089028
  C      2.556883    0.474350    3.636098
  C      2.680107    4.027385    3.292968
  N      1.962924    2.864942    3.418265
  C      4.089820    3.721502    3.302785
  C     -0.939102   -0.246509    3.759221
  C      1.259741   -0.062511    3.703416
  C     -2.850174    1.358051    3.633086
  C     -3.038341    3.548279    3.434420
  C     -4.259729    1.665028    3.631888
  C     -2.309465    0.065876    3.749063
  C     -2.726504    4.911917    3.298069
  C      4.205746    2.374704    3.428271
  C     -1.429470    5.448150    3.224446
  C      0.228548    6.964522    3.054127
  C      2.139518    5.319764    3.180041
  C      0.769411    5.632748    3.175667
  H     -5.283234    3.589919    3.462669
  H     -5.055915    0.944668    3.717118
  H      5.113506    1.796209    3.466048
  H      4.885916    4.442736    3.224054
  H      0.808093    7.867022    2.955342
  H     -1.849084    7.645562    3.028370
  Mg    -0.084919    2.692996    3.466091
  C      3.703495   -0.488201    3.711904
  C      4.101097   -1.215525    2.587737
  C      5.165592   -2.108030    2.657336
  C      5.849374   -2.288349    3.854678
  C      5.462233   -1.570166    4.980745
  C      4.398318   -0.677200    4.908689
  H      3.572273   -1.076734    1.652653
  H      5.461204   -2.660972    1.774105
  H      6.677910   -2.983489    3.909795
  H      5.987070   -1.705473    5.918549
  H      4.098897   -0.121111    5.788694
  C     -3.274743   -1.074068    3.873336
  C     -3.919889   -1.589806    2.746971
  C     -4.815224   -2.648008    2.861564
  C     -5.081050   -3.207004    4.106767
  C     -4.445489   -2.701389    5.235531
  C     -3.549452   -1.644091    5.118594
  H     -3.714517   -1.158773    1.774687
  H     -5.303562   -3.036316    1.976146
  H     -5.778536   -4.030491    4.196889
  H     -4.647956   -3.128218    6.210244
  H     -3.058018   -1.252160    6.000733
  C     -3.872844    5.874939    3.223553
  C     -4.310229    6.369574    1.992756
  C     -5.373793    7.263047    1.921894
  C     -6.016961    7.677520    3.083040
  C     -5.590067    7.192252    4.314284
  C     -4.527122    6.297837    4.382858
  H     -3.813083    6.048242    1.085609
  H     -5.700324    7.633616    0.957908
  H     -6.844813    8.373553    3.028823
  H     -6.083198    7.510781    5.224553
  H     -4.196875    5.923693    5.344245
  C      3.105171    6.459067    3.051802
  C      3.692305    6.761120    1.820939
  C      4.588737    7.817613    1.699925
  C      4.913564    8.589219    2.810246
  C      4.335714    8.297774    4.041028
  C      3.438490    7.241601    4.159639
  H      3.440981    6.163649    0.953078
  H      5.031793    8.038132    0.736437
  H      5.611836    9.411705    2.717096
  H      4.584023    8.891578    4.912210
  H      2.992103    7.017052    5.120716

----------------------------
CARTESIAN COORDINATES (A.U.)
----------------------------
  NO LB      ZA    FRAG     MASS         X           Y           Z
   0 N     7.0000    0    14.007   -4.030373    4.763966    6.639711
   1 H     1.0000    0     1.008    3.174016   -4.268557    7.389520
   2 C     6.0000    0    12.011   -8.268457    5.691251    6.622899
   3 C     6.0000    0    12.011   -0.752537   -2.983896    7.318226
   4 N     7.0000    0    14.007    0.171644    1.235003    6.908878
   5 C     6.0000    0    12.011    1.803339   -2.769176    7.263045
   6 H     1.0000    0     1.008   -1.847562   -4.691123    7.488589
   7 C     6.0000    0    12.011    5.421100    3.474195    6.622177
   8 N     7.0000    0    14.007   -0.492404    8.943073    6.191381
   9 C     6.0000    0    12.011   -2.123818   12.947460    5.837416
  10 C     6.0000    0    12.011    4.831809    0.896392    6.871230
  11 C     6.0000    0    12.011    5.064669    7.610655    6.222807
  12 N     7.0000    0    14.007    3.709389    5.413957    6.459585
  13 C     6.0000    0    12.011    7.728640    7.032619    6.241359
  14 C     6.0000    0    12.011   -1.774645   -0.465835    7.103898
  15 C     6.0000    0    12.011    2.380565   -0.118129    6.998441
  16 C     6.0000    0    12.011   -5.386048    2.566345    6.865537
  17 C     6.0000    0    12.011   -5.741633    6.705275    6.490113
  18 C     6.0000    0    12.011   -8.049721    3.146447    6.863274
  19 C     6.0000    0    12.011   -4.364257    0.124488    7.084702
  20 C     6.0000    0    12.011   -5.152345    9.282177    6.232447
  21 C     6.0000    0    12.011    7.947708    4.487541    6.478494
  22 C     6.0000    0    12.011   -2.701306   10.295511    6.093319
  23 C     6.0000    0    12.011    0.431893   13.161039    5.771463
  24 C     6.0000    0    12.011    4.043102   10.052896    6.009407
  25 C     6.0000    0    12.011    1.453976   10.644352    6.001141
  26 H     1.0000    0     1.008   -9.983866    6.783964    6.543496
  27 H     1.0000    0     1.008   -9.554295    1.785164    7.024335
  28 H     1.0000    0     1.008    9.663125    3.394342    6.549882
  29 H     1.0000    0     1.008    9.233044    8.395555    6.092579
  30 H     1.0000    0     1.008    1.527075   14.866517    5.584787
  31 H     1.0000    0     1.008   -3.494263   14.448018    5.722789
  32 Mg   12.0000    0    24.305   -0.160474    5.089025    6.549963
  33 C     6.0000    0    12.011    6.998591   -0.922565    7.014483
  34 C     6.0000    0    12.011    7.749950   -2.297008    4.890114
  35 C     6.0000    0    12.011    9.761555   -3.983599    5.021637
  36 C     6.0000    0    12.011   11.053714   -4.324353    7.284286
  37 C     6.0000    0    12.011   10.322124   -2.967184    9.412244
  38 C     6.0000    0    12.011    8.311617   -1.279722    9.276078
  39 H     1.0000    0     1.008    6.750618   -2.034732    3.123061
  40 H     1.0000    0     1.008   10.320181   -5.028509    3.352573
  41 H     1.0000    0     1.008   12.619421   -5.637977    7.388441
  42 H     1.0000    0     1.008   11.313922   -3.222877   11.184437
  43 H     1.0000    0     1.008    7.745793   -0.228867   10.939046
  44 C     6.0000    0    12.011   -6.188368   -2.029695    7.319544
  45 C     6.0000    0    12.011   -7.407517   -3.004298    5.191024
  46 C     6.0000    0    12.011   -9.099455   -5.004009    5.407573
  47 C     6.0000    0    12.011   -9.601794   -6.060359    7.760665
  48 C     6.0000    0    12.011   -8.400756   -5.104886    9.893719
  49 C     6.0000    0    12.011   -6.707493   -3.106883    9.672741
  50 H     1.0000    0     1.008   -7.019420   -2.189764    3.353672
  51 H     1.0000    0     1.008  -10.022280   -5.737807    3.734374
  52 H     1.0000    0     1.008  -10.919851   -7.616524    7.930970
  53 H     1.0000    0     1.008   -8.783365   -5.911476   11.735661
  54 H     1.0000    0     1.008   -5.778817   -2.366239   11.339742
  55 C     6.0000    0    12.011   -7.318615   11.102027    6.091633
  56 C     6.0000    0    12.011   -8.145153   12.036751    3.765764
  57 C     6.0000    0    12.011  -10.154997   13.725171    3.631853
  58 C     6.0000    0    12.011  -11.370408   14.508411    5.826101
  59 C     6.0000    0    12.011  -10.563696   13.591387    8.152815
  60 C     6.0000    0    12.011   -8.555020   11.901188    8.282401
  61 H     1.0000    0     1.008   -7.205683   11.429521    2.051503
  62 H     1.0000    0     1.008  -10.772052   14.425444    1.810183
  63 H     1.0000    0     1.008  -12.934822   15.823721    5.723646
  64 H     1.0000    0     1.008  -11.495578   14.193319    9.872973
  65 H     1.0000    0     1.008   -7.930944   11.194158   10.099160
  66 C     6.0000    0    12.011    5.867923   12.205869    5.767071
  67 C     6.0000    0    12.011    6.977445   12.776665    3.441075
  68 C     6.0000    0    12.011    8.671457   14.773148    3.212392
  69 C     6.0000    0    12.011    9.285290   16.231272    5.310596
  70 C     6.0000    0    12.011    8.193312   15.680520    7.636437
  71 C     6.0000    0    12.011    6.497804   13.684643    7.860578
  72 H     1.0000    0     1.008    6.502511   11.647608    1.801056
  73 H     1.0000    0     1.008    9.508710   15.189868    1.391664
  74 H     1.0000    0     1.008   10.604834   17.785546    5.134567
  75 H     1.0000    0     1.008    8.662547   16.802648    9.282732
  76 H     1.0000    0     1.008    5.654254   13.260307    9.676751

--------------------------------
INTERNAL COORDINATES (ANGSTROEM)
--------------------------------
 N      0   0   0     0.000000000000     0.00000000     0.00000000
 H      1   0   0     6.126855329357     0.00000000     0.00000000
 C      1   2   0     2.295769133195   140.79213807     0.00000000
 C      2   1   3     2.186549708108    33.38660231     0.36505468
 N      4   2   1     2.295725821932    95.82788655     0.09095297
 C      2   1   3     1.077092693640     3.85150056     2.09162491
 H      4   2   1     1.077070819340   104.41978534   179.96288643
 C      5   4   2     3.023865266525   125.55676336     0.11166825
 N      1   2   6     2.907257362329   101.42052387   181.91422582
 C      9   1   2     2.295795178635   117.81429197   180.02242555
 C      8   5   4     1.405496899374    53.92458718     0.03779823
 C      8   5   4     2.207172589612   108.35589016   179.76307688
 N     12   8   5     1.371613516291    36.43262200     0.17329619
 C     12   8   5     1.442550076138    72.87533357   180.07415276
 C      5   4   2     1.371674426107    36.37427985   180.37251744
 C      5   4   2     1.371612574923    70.76800154     0.23219254
 C      1   2   6     1.371619575259    70.02341670     1.85612268
 C      1   2   6     1.371730087584   177.15630369     5.97587101
 C      3   1   2     1.357589890726    72.80216719   359.95304185
 C     17   1   2     1.405536565970   125.83487943     0.09366032
 C     18   1  17     1.405469067731   125.85546027   180.26559898
 C     14  12   8     1.357589360726   107.12361011     0.19983052
 C      9   1   2     1.371575077204    81.44175047   179.94495588
 C     10   9   1     1.357587276934    72.80232389   180.16933284
 C     12   8   5     1.405429467262   162.27344014     0.83813114
 C      9   1   2     1.371675707321   171.41952863     0.03824775
 H      3   1   2     1.077100496928   159.74999488   180.25953249
 H     19   3   1     1.077077338377   127.43130158   179.82791890
 H     22  14  12     1.077084983978   127.44744025   179.69739367
 H     14  12   8     1.077101086105   125.43663657   180.20366353
 H     24  10   9     1.077096534207   127.45443232   179.85753388
 H     10   9   1     1.077097541933   159.75828880     0.53310854
 Mg    13  12   8     2.055606050552   126.43550651   180.06019481
 C     11   8   5     1.498989282988   117.27452497   180.13304197
 C     34  11   8     1.396724581542   120.75894288   260.01689972
 C     35  34  11     1.390884488100   120.77967458   179.95157356
 C     36  35  34     1.390575596770   120.17416869     0.06383067
 C     37  36  35     1.390572269206   119.56359354   359.96393605
 C     38  37  36     1.390861247794   120.17158367   359.97314775
 H     35  34  11     1.083189366330   119.28215266     0.12320002
 H     36  35  34     1.083156650446   119.71220349   180.18132819
 H     37  36  35     1.082926322306   120.21696134   179.96439740
 H     38  37  36     1.083161349761   120.11258722   179.85120178
 H     39  38  37     1.083188138256   119.93128689   179.88961748
 C     20  17   1     1.498892464170   117.27635023   179.83555470
 C     45  20  17     1.396744746557   120.75805895    79.50356453
 C     46  45  20     1.390880167394   120.78473073   179.96907332
 C     47  46  45     1.390564385753   120.17705909     0.07442139
 C     48  47  46     1.390572934770   119.56006095   359.97047586
 C     49  48  47     1.390839370010   120.17276971   359.96185086
 H     46  45  20     1.083191573814   119.29758564     0.15759396
 H     47  46  45     1.083154294075   119.71071430   180.18273845
 H     48  47  46     1.082930826873   120.22050345   179.95838139
 H     49  48  47     1.083163400019   120.11519157   179.83114167
 H     50  49  48     1.083183905041   119.92580323   179.88660474
 C     21  18   1     1.499020289368   117.28798408   179.72398695
 C     56  21  18     1.396721410460   120.71653922   260.55104232
 C     57  56  21     1.390856932927   120.78737548   179.99292393
 C     58  57  56     1.390579796248   120.17255169     0.05877075
 C     59  58  57     1.390570153966   119.55994938   359.96611660
 C     60  59  58     1.390875025766   120.17707541   359.97196552
 H     57  56  21     1.083201529200   119.28811259     0.14261226
 H     58  57  56     1.083149767515   119.71220131   180.16232012
 H     59  58  57     1.082931272380   120.22123367   179.96845591
 H     60  59  58     1.083156416554   120.11314103   179.86695053
 H     61  60  59     1.083195532775   119.92563663   179.89758366
 C     25  12   8     1.498981196444   117.25803690   179.52387829
 C     67  25  12     1.396777768498   120.69986376    80.52329734
 C     68  67  25     1.390831652439   120.78822075   180.01410426
 C     69  68  67     1.390576172584   120.17081329     0.05908974
 C     70  69  68     1.390566770699   119.56087131   359.96273928
 C     71  70  69     1.390892103912   120.17793429   359.97535578
 H     68  67  25     1.083198152583   119.28960554     0.16639622
 H     69  68  67     1.083159804820   119.71470417   180.16298856
 H     70  69  68     1.082933302780   120.22323348   179.96819721
 H     71  70  69     1.083152161424   120.11387427   179.86380867
 H     72  71  70     1.083214366481   119.92750176   179.89120147

---------------------------
INTERNAL COORDINATES (A.U.)
---------------------------
 N      0   0   0     0.000000000000     0.00000000     0.00000000
 H      1   0   0    11.578078634640     0.00000000     0.00000000
 C      1   2   0     4.338374928449   140.79213807     0.00000000
 C      2   1   3     4.131980126529    33.38660231     0.36505468
 N      4   2   1     4.338293082022    95.82788655     0.09095297
 C      2   1   3     2.035410211826     3.85150056     2.09162491
 H      4   2   1     2.035368875391   104.41978534   179.96288643
 C      5   4   2     5.714277219608   125.55676336     0.11166825
 N      1   2   6     5.493920215627   101.42052387   181.91422582
 C      9   1   2     4.338424147198   117.81429197   180.02242555
 C      8   5   4     2.656004221892    53.92458718     0.03779823
 C      8   5   4     4.170951724664   108.35589016   179.76307688
 N     12   8   5     2.591973907374    36.43262200     0.17329619
 C     12   8   5     2.726024578368    72.87533357   180.07415276
 C      5   4   2     2.592089010246    36.37427985   180.37251744
 C      5   4   2     2.591972128447    70.76800154     0.23219254
 C      1   2   6     2.591985357166    70.02341670     1.85612268
 C      1   2   6     2.592194195193   177.15630369     5.97587101
 C      3   1   2     2.565473095651    72.80216719   359.95304185
 C     17   1   2     2.656079180895   125.83487943     0.09366032
 C     18   1  17     2.655951627710   125.85546027   180.26559898
 C     14  12   8     2.565472094097   107.12361011     0.19983052
 C      9   1   2     2.591901268027    81.44175047   179.94495588
 C     10   9   1     2.565468156301    72.80232389   180.16933284
 C     12   8   5     2.655876793668   162.27344014     0.83813114
 C      9   1   2     2.592091431390   171.41952863     0.03824775
 H      3   1   2     2.035424957904   159.74999488   180.25953249
 H     19   3   1     2.035381194584   127.43130158   179.82791890
 H     22  14  12     2.035395642677   127.44744025   179.69739367
 H     14  12   8     2.035426071288   125.43663657   180.20366353
 H     24  10   9     2.035417469446   127.45443232   179.85753388
 H     10   9   1     2.035419373773   159.75828880     0.53310854
 Mg    13  12   8     3.884532474774   126.43550651   180.06019481
 C     11   8   5     2.832679222530   117.27452497   180.13304197
 C     34  11   8     2.639426943631   120.75894288   260.01689972
 C     35  34  11     2.628390766428   120.77967458   179.95157356
 C     36  35  34     2.627807046409   120.17416869     0.06383067
 C     37  36  35     2.627800758224   119.56359354   359.96393605
 C     38  37  36     2.628346848615   120.17158367   359.97314775
 H     35  34  11     2.046931253539   119.28215266     0.12320002
 H     36  35  34     2.046869429478   119.71220349   180.18132819
 H     37  36  35     2.046434172373   120.21696134   179.96439740
 H     38  37  36     2.046878309898   120.11258722   179.85120178
 H     39  38  37     2.046928932815   119.93128689   179.88961748
 C     20  17   1     2.832496261479   117.27635023   179.83555470
 C     45  20  17     2.639465049985   120.75805895    79.50356453
 C     46  45  20     2.628382601477   120.78473073   179.96907332
 C     47  46  45     2.627785860657   120.17705909     0.07442139
 C     48  47  46     2.627802015959   119.56006095   359.97047586
 C     49  48  47     2.628305505594   120.17276971   359.96185086
 H     46  45  20     2.046935425080   119.29758564     0.15759396
 H     47  46  45     2.046864976583   119.71071430   180.18273845
 H     48  47  46     2.046442684772   120.22050345   179.95838139
 H     49  48  47     2.046882184323   120.11519157   179.83114167
 H     50  49  48     2.046920933199   119.92580323   179.88660474
 C     21  18   1     2.832737816097   117.28798408   179.72398695
 C     56  21  18     2.639420951153   120.71653922   260.55104232
 C     57  56  21     2.628338694698   120.78737548   179.99292393
 C     58  57  56     2.627814982273   120.17255169     0.05877075
 C     59  58  57     2.627796761001   119.55994938   359.96611660
 C     60  59  58     2.628372885207   120.17707541   359.97196552
 H     57  56  21     2.046954238033   119.28811259     0.14261226
 H     58  57  56     2.046856422624   119.71220131   180.16232012
 H     59  58  57     2.046443526657   120.22123367   179.96845591
 H     60  59  58     2.046868987487   120.11314103   179.86695053
 H     61  60  59     2.046942906433   119.92563663   179.89758366
 C     25  12   8     2.832663941177   117.25803690   179.52387829
 C     67  25  12     2.639527452411   120.69986376    80.52329734
 C     68  67  25     2.628290921499   120.78822075   180.01410426
 C     69  68  67     2.627808134540   120.17081329     0.05908974
 C     70  69  68     2.627790367553   119.56087131   359.96273928
 C     71  70  69     2.628405158227   120.17793429   359.97535578
 H     68  67  25     2.046947857152   119.28960554     0.16639622
 H     69  68  67     2.046875390382   119.71470417   180.16298856
 H     70  69  68     2.046447363557   120.22323348   179.96819721
 H     71  70  69     2.046860946455   120.11387427   179.86380867
 H     72  71  70     2.046978496977   119.92750176   179.89120147

---------------------
BASIS SET INFORMATION
---------------------
There are 4 groups of distinct atoms

 Group   1 Type N   : 11s6p2d1f contracted to 5s3p2d1f pattern {62111/411/11/1}
 Group   2 Type H   : 5s1p contracted to 3s1p pattern {311/1}
 Group   3 Type C   : 11s6p2d1f contracted to 5s3p2d1f pattern {62111/411/11/1}
 Group   4 Type Mg  : 14s8p3d contracted to 5s4p3d pattern {73211/5111/111}

Atom   0N    basis set group =>   1
Atom   1H    basis set group =>   2
Atom   2C    basis set group =>   3
Atom   3C    basis set group =>   3
Atom   4N    basis set group =>   1
Atom   5C    basis set group =>   3
Atom   6H    basis set group =>   2
Atom   7C    basis set group =>   3
Atom   8N    basis set group =>   1
Atom   9C    basis set group =>   3
Atom  10C    basis set group =>   3
Atom  11C    basis set group =>   3
Atom  12N    basis set group =>   1
Atom  13C    basis set group =>   3
Atom  14C    basis set group =>   3
Atom  15C    basis set group =>   3
Atom  16C    basis set group =>   3
Atom  17C    basis set group =>   3
Atom  18C    basis set group =>   3
Atom  19C    basis set group =>   3
Atom  20C    basis set group =>   3
Atom  21C    basis set group =>   3
Atom  22C    basis set group =>   3
Atom  23C    basis set group =>   3
Atom  24C    basis set group =>   3
Atom  25C    basis set group =>   3
Atom  26H    basis set group =>   2
Atom  27H    basis set group =>   2
Atom  28H    basis set group =>   2
Atom  29H    basis set group =>   2
Atom  30H    basis set group =>   2
Atom  31H    basis set group =>   2
Atom  32Mg   basis set group =>   4
Atom  33C    basis set group =>   3
Atom  34C    basis set group =>   3
Atom  35C    basis set group =>   3
Atom  36C    basis set group =>   3
Atom  37C    basis set group =>   3
Atom  38C    basis set group =>   3
Atom  39H    basis set group =>   2
Atom  40H    basis set group =>   2
Atom  41H    basis set group =>   2
Atom  42H    basis set group =>   2
Atom  43H    basis set group =>   2
Atom  44C    basis set group =>   3
Atom  45C    basis set group =>   3
Atom  46C    basis set group =>   3
Atom  47C    basis set group =>   3
Atom  48C    basis set group =>   3
Atom  49C    basis set group =>   3
Atom  50H    basis set group =>   2
Atom  51H    basis set group =>   2
Atom  52H    basis set group =>   2
Atom  53H    basis set group =>   2
Atom  54H    basis set group =>   2
Atom  55C    basis set group =>   3
Atom  56C    basis set group =>   3
Atom  57C    basis set group =>   3
Atom  58C    basis set group =>   3
Atom  59C    basis set group =>   3
Atom  60C    basis set group =>   3
Atom  61H    basis set group =>   2
Atom  62H    basis set group =>   2
Atom  63H    basis set group =>   2
Atom  64H    basis set group =>   2
Atom  65H    basis set group =>   2
Atom  66C    basis set group =>   3
Atom  67C    basis set group =>   3
Atom  68C    basis set group =>   3
Atom  69C    basis set group =>   3
Atom  70C    basis set group =>   3
Atom  71C    basis set group =>   3
Atom  72H    basis set group =>   2
Atom  73H    basis set group =>   2
Atom  74H    basis set group =>   2
Atom  75H    basis set group =>   2
Atom  76H    basis set group =>   2
---------------------------------
AUXILIARY/J BASIS SET INFORMATION
---------------------------------
There are 4 groups of distinct atoms

 Group   1 Type N   : 12s5p4d2f1g contracted to 6s4p3d1f1g pattern {711111/2111/211/2/1}
 Group   2 Type H   : 5s2p1d contracted to 3s1p1d pattern {311/2/1}
 Group   3 Type C   : 12s5p4d2f1g contracted to 6s4p3d1f1g pattern {711111/2111/211/2/1}
 Group   4 Type Mg  : 14s5p5d2f1g contracted to 8s4p4d1f1g pattern {71111111/2111/2111/2/1}

Atom   0N    basis set group =>   1
Atom   1H    basis set group =>   2
Atom   2C    basis set group =>   3
Atom   3C    basis set group =>   3
Atom   4N    basis set group =>   1
Atom   5C    basis set group =>   3
Atom   6H    basis set group =>   2
Atom   7C    basis set group =>   3
Atom   8N    basis set group =>   1
Atom   9C    basis set group =>   3
Atom  10C    basis set group =>   3
Atom  11C    basis set group =>   3
Atom  12N    basis set group =>   1
Atom  13C    basis set group =>   3
Atom  14C    basis set group =>   3
Atom  15C    basis set group =>   3
Atom  16C    basis set group =>   3
Atom  17C    basis set group =>   3
Atom  18C    basis set group =>   3
Atom  19C    basis set group =>   3
Atom  20C    basis set group =>   3
Atom  21C    basis set group =>   3
Atom  22C    basis set group =>   3
Atom  23C    basis set group =>   3
Atom  24C    basis set group =>   3
Atom  25C    basis set group =>   3
Atom  26H    basis set group =>   2
Atom  27H    basis set group =>   2
Atom  28H    basis set group =>   2
Atom  29H    basis set group =>   2
Atom  30H    basis set group =>   2
Atom  31H    basis set group =>   2
Atom  32Mg   basis set group =>   4
Atom  33C    basis set group =>   3
Atom  34C    basis set group =>   3
Atom  35C    basis set group =>   3
Atom  36C    basis set group =>   3
Atom  37C    basis set group =>   3
Atom  38C    basis set group =>   3
Atom  39H    basis set group =>   2
Atom  40H    basis set group =>   2
Atom  41H    basis set group =>   2
Atom  42H    basis set group =>   2
Atom  43H    basis set group =>   2
Atom  44C    basis set group =>   3
Atom  45C    basis set group =>   3
Atom  46C    basis set group =>   3
Atom  47C    basis set group =>   3
Atom  48C    basis set group =>   3
Atom  49C    basis set group =>   3
Atom  50H    basis set group =>   2
Atom  51H    basis set group =>   2
Atom  52H    basis set group =>   2
Atom  53H    basis set group =>   2
Atom  54H    basis set group =>   2
Atom  55C    basis set group =>   3
Atom  56C    basis set group =>   3
Atom  57C    basis set group =>   3
Atom  58C    basis set group =>   3
Atom  59C    basis set group =>   3
Atom  60C    basis set group =>   3
Atom  61H    basis set group =>   2
Atom  62H    basis set group =>   2
Atom  63H    basis set group =>   2
Atom  64H    basis set group =>   2
Atom  65H    basis set group =>   2
Atom  66C    basis set group =>   3
Atom  67C    basis set group =>   3
Atom  68C    basis set group =>   3
Atom  69C    basis set group =>   3
Atom  70C    basis set group =>   3
Atom  71C    basis set group =>   3
Atom  72H    basis set group =>   2
Atom  73H    basis set group =>   2
Atom  74H    basis set group =>   2
Atom  75H    basis set group =>   2
Atom  76H    basis set group =>   2


           ************************************************************
           *        Program running with 8 parallel MPI-processes     *
           *              working on a common directory               *
           ************************************************************
------------------------------------------------------------------------------
                             ORCA STARTUP CALCULATIONS
                           -- RI-GTO INTEGRALS CHOSEN --
------------------------------------------------------------------------------
------------------------------------------------------------------------------
                   ___                                                        
                  /   \      - P O W E R E D   B Y -                         
                 /     \                                                     
                 |  |  |   _    _      __       _____    __    __             
                 |  |  |  | |  | |    /  \     |  _  \  |  |  /  |          
                  \  \/   | |  | |   /    \    | | | |  |  | /  /          
                 / \  \   | |__| |  /  /\  \   | |_| |  |  |/  /          
                |  |  |   |  __  | /  /__\  \  |    /   |      \           
                |  |  |   | |  | | |   __   |  |    \   |  |\   \          
                \     /   | |  | | |  |  |  |  | |\  \  |  | \   \       
                 \___/    |_|  |_| |__|  |__|  |_| \__\ |__|  \__/        
                                                                              
                      - O R C A' S   B I G   F R I E N D -                    
                                      &                                       
                       - I N T E G R A L  F E E D E R -                       
                                                                              
 v1 FN, 2020, v2 2021, v3 2022-2024                                           
------------------------------------------------------------------------------


----------------------
SHARK INTEGRAL PACKAGE
----------------------

Number of atoms                             ...     77
Number of basis functions                   ...   1688
Number of shells                            ...    652
Maximum angular momentum                    ...      3
Integral batch strategy                     ... SHARK/LIBINT Hybrid
RI-J (if used) integral strategy            ... SPLIT-RIJ (Revised 2003 algorithm where possible)
Printlevel                                  ...      1
Contraction scheme used                     ... SEGMENTED contraction
Prescreening option                         ... SCHWARTZ
   Thresh                                   ... 2.500e-11
   Tcut                                     ... 2.500e-12
   Tpresel                                  ... 2.500e-12 
Coulomb Range Separation                    ... NOT USED
Exchange Range Separation                   ... NOT USED
Multipole approximations                    ... NOT USED
Finite Nucleus Model                        ... NOT USED
CABS basis                                  ... NOT available
Auxiliary Coulomb fitting basis             ... AVAILABLE
   # of basis functions in Aux-J            ...   2716
   # of shells in Aux-J                     ...    878
   Maximum angular momentum in Aux-J        ...      4
Auxiliary J/K fitting basis                 ... NOT available
Auxiliary Correlation fitting basis         ... NOT available
Auxiliary 'external' fitting basis          ... NOT available

Checking pre-screening integrals            ... done (  0.0 sec) Dimension = 652
   => SHARK Basis and OBASIS are compatible. Storing Pre-screening
Shell pair information
Shell pair cut-off parameter TPreSel        ...   2.5e-12
Total number of shell pairs                 ...    212878
Shell pairs after pre-screening             ...    103183
Total number of primitive shell pairs       ...    666456
Primitive shell pairs kept                  ...    198892
          la=0 lb=0:  24577 shell pairs
          la=1 lb=0:  30403 shell pairs
          la=1 lb=1:   9285 shell pairs
          la=2 lb=0:  14681 shell pairs
          la=2 lb=1:   9224 shell pairs
          la=2 lb=2:   2210 shell pairs
          la=3 lb=0:   6441 shell pairs
          la=3 lb=1:   4108 shell pairs
          la=3 lb=2:   1824 shell pairs
          la=3 lb=3:    430 shell pairs

Checking whether 4 symmetric matrices of dimension 1688 fit in memory
:Max Core in MB      =   3000.00
 MB in use           =    125.94
 MB left             =   2874.06
 MB needed           =     43.50
 Data fit in memory  = YES
Calculating RI/J V-Matrix + Cholesky decomp.... done (  0.5 sec)
Calculating Nuclear repulsion               ... done (  0.0 sec) ENN=   5749.715742335587 Eh

Diagonalization of the overlap matrix:
Smallest eigenvalue                        ... 2.991e-06
Time for diagonalization                   ...    0.531 sec
Threshold for overlap eigenvalues          ... 1.000e-07
Number of eigenvalues below threshold      ... 0
Time for construction of square roots      ...    0.330 sec
Total time needed                          ...    0.907 sec

-------------------
DFT GRID GENERATION
-------------------

General Integration Accuracy     IntAcc      ... 4.959
Radial Grid Type                 RadialGrid  ... OptM3 with GC (2021)
Angular Grid (max. ang.)         AngularGrid ... 6 (Lebedev-590)
Angular grid pruning method      GridPruning ... 4 (adaptive)
Weight generation scheme         WeightScheme... mBecke (2022)
Basis function cutoff            BFCut       ... 1.0000e-11
Integration weight cutoff        WCut        ... 1.0000e-14
Partially contracted basis set               ... off
Rotationally invariant grid construction     ... off
Angular grids for H and He will be reduced by one unit

Total number of grid points                  ...   926618
Total number of batches                      ...    14522
Average number of points per batch           ...       63
Average number of grid points per atom       ...    12034
Grids setup in  14.4 sec
Initializing property integral containers    ... done (  0.0 sec)

SHARK setup successfully completed in  17.9 seconds

Maximum memory used throughout the entire STARTUP-calculation: 301.1 MB


           ************************************************************
           *        Program running with 8 parallel MPI-processes     *
           *              working on a common directory               *
           ************************************************************
-------------------------------------------------------------------------------
                                 ORCA GUESS
                   Start orbitals & Density for SCF / CASSCF
-------------------------------------------------------------------------------

------------
SCF SETTINGS
------------
Hamiltonian:
 Density Functional     Method          .... DFT(GTOs)
 Exchange Functional    Exchange        .... B88
   X-Alpha parameter    XAlpha          ....  0.666667
   Becke's b parameter  XBeta           ....  0.004200
 Correlation Functional Correlation     .... P86
 LDA part of GGA corr.  LDAOpt          .... PW91-LDA
 Gradients option       PostSCFGGA      .... off
   NL short-range parameter             ....  4.400000
 RI-approximation to the Coulomb term is turned on
   Number of AuxJ basis functions       .... 2716


General Settings:
 Integral files         IntName         .... tddft
 Hartree-Fock type      HFTyp           .... RHF
 Total Charge           Charge          ....    0
 Multiplicity           Mult            ....    1
 Number of Electrons    NEL             ....  332
 Basis Dimension        Dim             .... 1688
 Nuclear Repulsion      ENuc            ....   5749.7157423356 Eh

Convergence Acceleration:
 AO-DIIS                CNVDIIS         .... on
   Start iteration      DIISMaxIt       ....    12
   Startup error        DIISStart       ....  0.200000
   # of expansion vecs  DIISMaxEq       ....     5
   Bias factor          DIISBfac        ....   1.050
   Max. coefficient     DIISMaxC        ....  10.000
 MO-DIIS                CNVKDIIS        .... off
 Trust-Rad. Augm. Hess. CNVTRAH         .... auto
   Auto Start mean grad. ratio tolernc. ....  1.125000
   Auto Start start iteration           ....    50
   Auto Start num. interpolation iter.  ....    10
   Max. Number of Micro iterations      ....    24
   Max. Number of Macro iterations      .... Maxiter - #DIIS iter
   Number of Davidson start vectors     ....     2
   Converg. threshold    (grad. norm)   ....   1.000e-05
   Grad. Scal. Fac. for Micro threshold ....   0.100
   Minimum threshold for Micro iter.    ....   1.000e-02
   NR start threshold (gradient norm)   ....   1.000e-04
   Initial trust radius                 ....   0.400
   Minimum AH scaling param. (alpha)    ....   1.000
   Maximum AH scaling param. (alpha)    .... 1000.000
   Quad. conv. algorithm                .... NR
   White noise on init. David. guess    .... on
   Maximum white noise                  ....   0.010
   Pseudo random numbers                .... off
   Inactive MOs                         .... canonical
   Orbital update algorithm             .... Taylor
   Preconditioner                       .... Diag
   Full preconditioner red. dimension   ....   250
 SOSCF                 CNVSOSCF           .... on
   Start iteration     SOSCFMaxIt         ....   150
   Startup grad/error  SOSCFStart         ....  0.003300
   Hessian update      SOSCFHessUp        .... L-BFGS
   Autom. constraints  SOSCFAutoConstrain .... off
 Level Shifting         CNVShift        .... on
   Level shift para.    LevelShift      ....    0.2500
   Turn off err/grad.   ShiftErr        ....    0.0010
 Zerner damping         CNVZerner       .... off
 Static damping         CNVDamp         .... on
   Fraction old density DampFac         ....    0.7000
   Max. Damping (<1)    DampMax         ....    0.9800
   Min. Damping (>=0)   DampMin         ....    0.0000
   Turn off err/grad.   DampErr         ....    0.1000

SCF Procedure:
 Maximum # iterations   MaxIter         ....   125
 SCF integral mode      SCFMode         .... Direct
   Integral package                     .... SHARK and LIBINT hybrid scheme
 Reset frequency        DirectResetFreq ....    20
 Integral Threshold     Thresh          ....  2.500e-11 Eh
 Primitive CutOff       TCut            ....  2.500e-12 Eh

Convergence Tolerance:
 Convergence Check Mode ConvCheckMode   .... Total+1el-Energy
 Convergence forced     ConvForced      .... 1
 Energy Change          TolE            ....  1.000e-08 Eh
 1-El. energy change                    ....  1.000e-05 Eh
 Orbital Gradient       TolG            ....  1.000e-05
 Orbital Rotation angle TolX            ....  1.000e-05
 DIIS Error             TolErr          ....  5.000e-07

------------------------------
INITIAL GUESS: MODEL POTENTIAL
------------------------------
Loading Hartree-Fock densities                     ... done
Calculating cut-offs                               ... done
Initializing the effective Hamiltonian             ... done
Setting up the integral package (SHARK)            ... done
Starting the Coulomb interaction                   ... done (   4.3 sec)
Making the grid                                    ... done (   1.1 sec)
Mapping shells                                     ... done
Starting the XC term evaluation                    ... done (   1.3 sec)
  promolecular density results
     # of electrons  =    331.986215612
     EX              =   -277.088139651
     EC              =    -12.255756526
     EX+EC           =   -289.343896178
Transforming the Hamiltonian                       ... done (   0.4 sec)
Diagonalizing the Hamiltonian                      ... done (   0.7 sec)
Back transforming the eigenvectors                 ... done (   0.2 sec)
Now organizing SCF variables                       ... done
                      ------------------
                      INITIAL GUESS DONE (   8.3 sec)
                      ------------------
             **** ENERGY FILE WAS UPDATED (tddft.en.tmp) ****
Finished Guess after  10.6 sec
Maximum memory used throughout the entire GUESS-calculation: 204.1 MB


           ************************************************************
           *        Program running with 8 parallel MPI-processes     *
           *              working on a common directory               *
           ************************************************************

-------------------------------------------------------------------------------------------
                                      ORCA LEAN-SCF
                              memory conserving SCF solver
-------------------------------------------------------------------------------------------

--------------------
CPCM SOLVATION MODEL
--------------------
CPCM parameters:
  Epsilon                                         ...       2.3870
  Refrac                                          ...       1.4961
  Rsolv                                           ...       1.3000
  Surface type                                    ... GAUSSIAN VDW
  Discretization scheme                           ... Constant charge density
    Threshold for H atoms                         ...       5.0000 (charges/Ang^2)
    Threshold for non-H atoms                     ...       5.0000 (charges/Ang^2)
  Epsilon function type                           ...         CPCM
Solvent:                                          ... TOLUENE
Radii:
  Scheme                                          ... Element-dependent radii
  Radius for N  used is    3.5149 Bohr (=   1.8600 Ang.)
  Radius for H  used is    2.4944 Bohr (=   1.3200 Ang.)
  Radius for C  used is    3.8550 Bohr (=   2.0400 Ang.)
  Radius for Mg used is    3.9231 Bohr (=   2.0760 Ang.)
Calculating surface                               ...        done! (  0.0s)
Cavity surface points                             ...         6820
Cavity Volume                                     ...    4949.3392
Cavity Surface-area                               ...    2291.9203
Calculating surface distance matrix               ...        done! (  1.3s)
Performing Cholesky decomposition & store         ...        done! (  3.2s)
Overall time for CPCM initialization              ...                 4.5s

----------------------------------------D-I-I-S--------------------------------------------
Iteration    Energy (Eh)           Delta-E    RMSDP     MaxDP     DIISErr   Damp  Time(sec)
-------------------------------------------------------------------------------------------
               ***  Starting incremental Fock matrix formation  ***
    1    -2112.5884984218955651     0.00e+00  2.11e-03  7.00e-02  2.15e-01  0.700  29.1
Warning: op=0 Small HOMO/LUMO gap (   0.064) - skipping pre-diagonalization
         Will do a full diagonalization
    2    -2113.0168833362849909    -4.28e-01  1.79e-03  4.57e-02  8.65e-02  0.700  26.3
                               ***Turning on AO-DIIS***
    3    -2113.1816715199938699    -1.65e-01  8.56e-04  2.60e-02  2.52e-02  0.700  24.2
    4    -2113.2778538004668007    -9.62e-02  1.48e-03  5.01e-02  1.19e-02  0.000  24.2
    5    -2113.4891666859766701    -2.11e-01  4.21e-04  9.53e-03  4.81e-03  0.000  26.9
                              *** Initializing SOSCF ***
---------------------------------------S-O-S-C-F--------------------------------------
Iteration    Energy (Eh)           Delta-E    RMSDP     MaxDP     MaxGrad    Time(sec)
--------------------------------------------------------------------------------------
    6    -2113.4908427400487199    -1.68e-03  1.82e-04  5.96e-03  1.01e-03    28.8
               *** Restarting incremental Fock matrix formation ***
    7    -2113.4909569978954096    -1.14e-04  1.20e-04  2.23e-03  6.43e-04    31.4
    8    -2113.4909351873056949     2.18e-05  4.28e-05  1.41e-03  1.24e-03    24.1
    9    -2113.4909829326579711    -4.77e-05  2.55e-05  4.31e-04  8.77e-05    23.8
   10    -2113.4909822259187422     7.07e-07  1.61e-05  5.01e-04  1.09e-04    23.8
   11    -2113.4909842774277422    -2.05e-06  1.45e-05  5.30e-04  2.40e-05    22.2
   12    -2113.4909842146944357     6.27e-08  1.06e-05  3.51e-04  4.15e-05    23.4
   13    -2113.4909844458115913    -2.31e-07  1.76e-05  5.43e-04  5.20e-06    22.4
   14    -2113.4909843932136937     5.26e-08  8.85e-06  2.74e-04  7.11e-06    21.2
   15    -2113.4909844264848289    -3.33e-08  1.86e-05  7.25e-04  1.56e-06    34.4
                  *** Gradient check signals convergence ***

               *****************************************************
               *                     SUCCESS                       *
               *           SCF CONVERGED AFTER  15 CYCLES          *
               *****************************************************

             **** ENERGY FILE WAS UPDATED (tddft.en.tmp) ****

----------------
TOTAL SCF ENERGY
----------------

Total Energy       :      -2113.49098445117852 Eh          -57511.01349 eV

Components:
Nuclear Repulsion  :       5749.71574233558749 Eh          156457.71951 eV
Electronic Energy  :      -7863.19538555000599 Eh         -213968.42439 eV
One Electron Energy:     -14321.18736241375154 Eh         -389699.32006 eV
Two Electron Energy:       6457.99197686374555 Eh          175730.89568 eV
CPCM Dielectric    :         -0.01134123676036 Eh              -0.30861 eV

Virial components:
Potential Energy   :      -4218.15824567298660 Eh         -114781.92126 eV
Kinetic Energy     :       2104.66726122180853 Eh           57270.90777 eV
Virial Ratio       :          2.00419245521225

DFT components:
N(Alpha)           :      165.999985130064 electrons
N(Beta)            :      165.999985130064 electrons
N(Total)           :      331.999970260127 electrons
E(X)               :     -281.922862262502 Eh       
E(C)               :      -12.237799890605 Eh       
E(XC)              :     -294.160662153107 Eh       

CPCM Solvation Model Properties:
Surface-charge          :         -0.05020655865372
Corrected charge        :          0.00000000000000
Outlying charge corr.   :          0.00005744666871 Eh               0.00156 eV
Free-energy (cav+disp)  :  This term is not implemented in the current solvation scheme

---------------
SCF CONVERGENCE
---------------

  Last Energy change         ...    3.3271e-08  Tolerance :   1.0000e-08
  Last MAX-Density change    ...    7.2546e-04  Tolerance :   1.0000e-07
  Last RMS-Density change    ...    1.8595e-05  Tolerance :   5.0000e-09
  Last DIIS Error            ...    1.0121e-03  Tolerance :   5.0000e-07
  Last Orbital Gradient      ...    1.5560e-06  Tolerance :   1.0000e-05
  Last Orbital Rotation      ...    1.2236e-05  Tolerance :   1.0000e-05


----------------
ORBITAL ENERGIES
----------------

  NO   OCC          E(Eh)            E(eV) 
   0   2.0000     -46.205428     -1257.3136 
   1   2.0000     -13.991416      -380.7258 
   2   2.0000     -13.991407      -380.7255 
   3   2.0000     -13.991404      -380.7254 
   4   2.0000     -13.991392      -380.7251 
   5   2.0000      -9.933247      -270.2974 
   6   2.0000      -9.933233      -270.2970 
   7   2.0000      -9.933228      -270.2969 
   8   2.0000      -9.933214      -270.2965 
   9   2.0000      -9.933201      -270.2961 
  10   2.0000      -9.933194      -270.2959 
  11   2.0000      -9.933190      -270.2959 
  12   2.0000      -9.933183      -270.2957 
  13   2.0000      -9.920686      -269.9556 
  14   2.0000      -9.920677      -269.9553 
  15   2.0000      -9.920665      -269.9550 
  16   2.0000      -9.920651      -269.9546 
  17   2.0000      -9.914909      -269.7984 
  18   2.0000      -9.914907      -269.7983 
  19   2.0000      -9.914905      -269.7983 
  20   2.0000      -9.914897      -269.7981 
  21   2.0000      -9.901988      -269.4468 
  22   2.0000      -9.901984      -269.4467 
  23   2.0000      -9.901981      -269.4466 
  24   2.0000      -9.901975      -269.4464 
  25   2.0000      -9.901955      -269.4459 
  26   2.0000      -9.901953      -269.4458 
  27   2.0000      -9.901949      -269.4457 
  28   2.0000      -9.901947      -269.4457 
  29   2.0000      -9.901618      -269.4367 
  30   2.0000      -9.901615      -269.4366 
  31   2.0000      -9.901610      -269.4365 
  32   2.0000      -9.901609      -269.4365 
  33   2.0000      -9.901553      -269.4350 
  34   2.0000      -9.901551      -269.4349 
  35   2.0000      -9.901547      -269.4348 
  36   2.0000      -9.901545      -269.4347 
  37   2.0000      -9.901058      -269.4215 
  38   2.0000      -9.901056      -269.4214 
  39   2.0000      -9.901053      -269.4214 
  40   2.0000      -9.901053      -269.4213 
  41   2.0000      -9.895137      -269.2604 
  42   2.0000      -9.895125      -269.2600 
  43   2.0000      -9.895122      -269.2600 
  44   2.0000      -9.895117      -269.2598 
  45   2.0000      -9.894606      -269.2459 
  46   2.0000      -9.894593      -269.2456 
  47   2.0000      -9.894590      -269.2455 
  48   2.0000      -9.894584      -269.2453 
  49   2.0000      -2.879288       -78.3494 
  50   2.0000      -1.674867       -45.5754 
  51   2.0000      -1.668085       -45.3909 
  52   2.0000      -1.668085       -45.3909 
  53   2.0000      -0.884837       -24.0776 
  54   2.0000      -0.876769       -23.8581 
  55   2.0000      -0.876764       -23.8580 
  56   2.0000      -0.867640       -23.6097 
  57   2.0000      -0.795800       -21.6548 
  58   2.0000      -0.792574       -21.5670 
  59   2.0000      -0.792572       -21.5670 
  60   2.0000      -0.791049       -21.5255 
  61   2.0000      -0.752814       -20.4851 
  62   2.0000      -0.736694       -20.0465 
  63   2.0000      -0.736690       -20.0464 
  64   2.0000      -0.719770       -19.5859 
  65   2.0000      -0.698421       -19.0050 
  66   2.0000      -0.698301       -19.0017 
  67   2.0000      -0.698300       -19.0017 
  68   2.0000      -0.692027       -18.8310 
  69   2.0000      -0.682284       -18.5659 
  70   2.0000      -0.682166       -18.5627 
  71   2.0000      -0.682164       -18.5626 
  72   2.0000      -0.682095       -18.5608 
  73   2.0000      -0.676105       -18.3978 
  74   2.0000      -0.669066       -18.2062 
  75   2.0000      -0.669061       -18.2061 
  76   2.0000      -0.653542       -17.7838 
  77   2.0000      -0.645732       -17.5713 
  78   2.0000      -0.599804       -16.3215 
  79   2.0000      -0.599802       -16.3214 
  80   2.0000      -0.563453       -15.3323 
  81   2.0000      -0.552442       -15.0327 
  82   2.0000      -0.552159       -15.0250 
  83   2.0000      -0.552155       -15.0249 
  84   2.0000      -0.551893       -15.0178 
  85   2.0000      -0.546395       -14.8682 
  86   2.0000      -0.546374       -14.8676 
  87   2.0000      -0.540115       -14.6973 
  88   2.0000      -0.537982       -14.6392 
  89   2.0000      -0.528486       -14.3808 
  90   2.0000      -0.509857       -13.8739 
  91   2.0000      -0.509851       -13.8737 
  92   2.0000      -0.501687       -13.6516 
  93   2.0000      -0.494908       -13.4671 
  94   2.0000      -0.485823       -13.2199 
  95   2.0000      -0.478092       -13.0095 
  96   2.0000      -0.478089       -13.0095 
  97   2.0000      -0.473105       -12.8738 
  98   2.0000      -0.465623       -12.6703 
  99   2.0000      -0.465617       -12.6701 
 100   2.0000      -0.460132       -12.5208 
 101   2.0000      -0.452947       -12.3253 
 102   2.0000      -0.442035       -12.0284 
 103   2.0000      -0.442025       -12.0281 
 104   2.0000      -0.416721       -11.3396 
 105   2.0000      -0.414467       -11.2782 
 106   2.0000      -0.414457       -11.2779 
 107   2.0000      -0.414365       -11.2754 
 108   2.0000      -0.413031       -11.2391 
 109   2.0000      -0.404609       -11.0100 
 110   2.0000      -0.404608       -11.0099 
 111   2.0000      -0.402580       -10.9548 
 112   2.0000      -0.400968       -10.9109 
 113   2.0000      -0.383553       -10.4370 
 114   2.0000      -0.381822       -10.3899 
 115   2.0000      -0.378924       -10.3110 
 116   2.0000      -0.378921       -10.3110 
 117   2.0000      -0.378121       -10.2892 
 118   2.0000      -0.377955       -10.2847 
 119   2.0000      -0.377949       -10.2845 
 120   2.0000      -0.376807       -10.2534 
 121   2.0000      -0.376667       -10.2496 
 122   2.0000      -0.371317       -10.1041 
 123   2.0000      -0.371308       -10.1038 
 124   2.0000      -0.367622       -10.0035 
 125   2.0000      -0.358753        -9.7622 
 126   2.0000      -0.358750        -9.7621 
 127   2.0000      -0.356409        -9.6984 
 128   2.0000      -0.349897        -9.5212 
 129   2.0000      -0.344671        -9.3790 
 130   2.0000      -0.343575        -9.3491 
 131   2.0000      -0.338659        -9.2154 
 132   2.0000      -0.338651        -9.2152 
 133   2.0000      -0.333077        -9.0635 
 134   2.0000      -0.328539        -8.9400 
 135   2.0000      -0.328536        -8.9399 
 136   2.0000      -0.324126        -8.8199 
 137   2.0000      -0.318345        -8.6626 
 138   2.0000      -0.311247        -8.4695 
 139   2.0000      -0.310906        -8.4602 
 140   2.0000      -0.307288        -8.3617 
 141   2.0000      -0.307281        -8.3615 
 142   2.0000      -0.306974        -8.3532 
 143   2.0000      -0.306969        -8.3530 
 144   2.0000      -0.306469        -8.3394 
 145   2.0000      -0.299634        -8.1535 
 146   2.0000      -0.285920        -7.7803 
 147   2.0000      -0.275683        -7.5017 
 148   2.0000      -0.275670        -7.5014 
 149   2.0000      -0.257457        -7.0058 
 150   2.0000      -0.257417        -7.0047 
 151   2.0000      -0.247638        -6.7386 
 152   2.0000      -0.238803        -6.4982 
 153   2.0000      -0.238670        -6.4945 
 154   2.0000      -0.237534        -6.4636 
 155   2.0000      -0.237518        -6.4632 
 156   2.0000      -0.236765        -6.4427 
 157   2.0000      -0.235477        -6.4076 
 158   2.0000      -0.233513        -6.3542 
 159   2.0000      -0.233484        -6.3534 
 160   2.0000      -0.232874        -6.3368 
 161   2.0000      -0.225272        -6.1300 
 162   2.0000      -0.225266        -6.1298 
 163   2.0000      -0.221723        -6.0334 
 164   2.0000      -0.190796        -5.1918 
 165   2.0000      -0.180921        -4.9231 
 166   0.0000      -0.112304        -3.0560 
 167   0.0000      -0.112300        -3.0558 
 168   0.0000      -0.064077        -1.7436 
 169   0.0000      -0.049824        -1.3558 
 170   0.0000      -0.048695        -1.3251 
 171   0.0000      -0.048687        -1.3248 
 172   0.0000      -0.048295        -1.3142 
 173   0.0000      -0.047290        -1.2868 
 174   0.0000      -0.046921        -1.2768 
 175   0.0000      -0.046280        -1.2593 
 176   0.0000      -0.046270        -1.2591 
*Only the first 10 virtual orbitals were printed.

                    ********************************
                    * MULLIKEN POPULATION ANALYSIS *
                    ********************************

-----------------------
MULLIKEN ATOMIC CHARGES
-----------------------
   0 N :   -0.383694
   1 H :    0.156097
   2 C :   -0.227493
   3 C :   -0.228084
   4 N :   -0.383616
   5 C :   -0.227890
   6 H :    0.156139
   7 C :    0.228058
   8 N :   -0.383786
   9 C :   -0.227911
  10 C :    0.028048
  11 C :    0.228368
  12 N :   -0.383779
  13 C :   -0.227716
  14 C :    0.228108
  15 C :    0.228052
  16 C :    0.227352
  17 C :    0.228659
  18 C :   -0.228175
  19 C :    0.029205
  20 C :    0.026303
  21 C :   -0.227514
  22 C :    0.228983
  23 C :   -0.227294
  24 C :    0.026781
  25 C :    0.228647
  26 H :    0.155911
  27 H :    0.156142
  28 H :    0.156014
  29 H :    0.155969
  30 H :    0.155909
  31 H :    0.155987
  32 Mg:    0.605893
  33 C :   -0.022695
  34 C :   -0.166915
  35 C :   -0.142239
  36 C :   -0.106750
  37 C :   -0.142269
  38 C :   -0.166933
  39 H :    0.128779
  40 H :    0.126586
  41 H :    0.128624
  42 H :    0.126571
  43 H :    0.128845
  44 C :   -0.020483
  45 C :   -0.168845
  46 C :   -0.141432
  47 C :   -0.107334
  48 C :   -0.141232
  49 C :   -0.169058
  50 H :    0.128901
  51 H :    0.126620
  52 H :    0.128621
  53 H :    0.126630
  54 H :    0.128932
  55 C :   -0.024760
  56 C :   -0.165365
  57 C :   -0.142877
  58 C :   -0.106216
  59 C :   -0.143034
  60 C :   -0.165227
  61 H :    0.128762
  62 H :    0.126545
  63 H :    0.128606
  64 H :    0.126573
  65 H :    0.128661
  66 C :   -0.025045
  67 C :   -0.165033
  68 C :   -0.142954
  69 C :   -0.106311
  70 C :   -0.142906
  71 C :   -0.165147
  72 H :    0.128702
  73 H :    0.126577
  74 H :    0.128616
  75 H :    0.126561
  76 H :    0.128674
Sum of atomic charges:   -0.0000000

--------------------------------
MULLIKEN REDUCED ORBITAL CHARGES
--------------------------------
  0 N s       :     3.721590  s :     3.721590
      pz      :     1.349608  p :     3.600386
      px      :     1.240236
      py      :     1.010542
      dz2     :     0.004592  d :     0.058240
      dxz     :     0.005992
      dyz     :     0.014226
      dx2y2   :     0.017641
      dxy     :     0.015789
      f0      :     0.000612  f :     0.003478
      f+1     :     0.000291
      f-1     :     0.000379
      f+2     :     0.000100
      f-2     :     0.000593
      f+3     :     0.000569
      f-3     :     0.000933

  1 H s       :     0.821580  s :     0.821580
      pz      :     0.005043  p :     0.022323
      px      :     0.008387
      py      :     0.008894

  2 C s       :     3.298242  s :     3.298242
      pz      :     0.989232  p :     2.844083
      px      :     0.920351
      py      :     0.934500
      dz2     :     0.005604  d :     0.077772
      dxz     :     0.009780
      dyz     :     0.017980
      dx2y2   :     0.016087
      dxy     :     0.028322
      f0      :     0.001345  f :     0.007396
      f+1     :     0.000667
      f-1     :     0.000512
      f+2     :     0.000924
      f-2     :     0.000406
      f+3     :     0.002342
      f-3     :     0.001201

  3 C s       :     3.298430  s :     3.298430
      pz      :     0.988591  p :     2.844482
      px      :     0.935856
      py      :     0.920034
      dz2     :     0.005260  d :     0.077776
      dxz     :     0.018448
      dyz     :     0.009649
      dx2y2   :     0.016055
      dxy     :     0.028364
      f0      :     0.001384  f :     0.007396
      f+1     :     0.000425
      f-1     :     0.000686
      f+2     :     0.000968
      f-2     :     0.000394
      f+3     :     0.001181
      f-3     :     0.002358

  4 N s       :     3.721606  s :     3.721606
      pz      :     1.351187  p :     3.600286
      px      :     1.007785
      py      :     1.241314
      dz2     :     0.004447  d :     0.058246
      dxz     :     0.014398
      dyz     :     0.005921
      dx2y2   :     0.017610
      dxy     :     0.015870
      f0      :     0.000615  f :     0.003478
      f+1     :     0.000370
      f-1     :     0.000296
      f+2     :     0.000097
      f-2     :     0.000589
      f+3     :     0.000941
      f-3     :     0.000568

  5 C s       :     3.298393  s :     3.298393
      pz      :     0.985547  p :     2.844328
      px      :     0.946037
      py      :     0.912743
      dz2     :     0.005510  d :     0.077774
      dxz     :     0.016306
      dyz     :     0.011542
      dx2y2   :     0.016150
      dxy     :     0.028267
      f0      :     0.001371  f :     0.007395
      f+1     :     0.000466
      f-1     :     0.000664
      f+2     :     0.001232
      f-2     :     0.000122
      f+3     :     0.001343
      f-3     :     0.002197

  6 H s       :     0.821531  s :     0.821531
      pz      :     0.005071  p :     0.022330
      px      :     0.006844
      py      :     0.010415

  7 C s       :     3.170169  s :     3.170169
      pz      :     0.939075  p :     2.434137
      px      :     0.778820
      py      :     0.716242
      dz2     :     0.005271  d :     0.153704
      dxz     :     0.029551
      dyz     :     0.035029
      dx2y2   :     0.045286
      dxy     :     0.038567
      f0      :     0.001913  f :     0.013933
      f+1     :     0.000839
      f-1     :     0.001023
      f+2     :     0.000686
      f-2     :     0.002195
      f+3     :     0.003655
      f-3     :     0.003621

  8 N s       :     3.721741  s :     3.721741
      pz      :     1.351290  p :     3.600323
      px      :     1.007779
      py      :     1.241254
      dz2     :     0.004441  d :     0.058245
      dxz     :     0.014406
      dyz     :     0.005924
      dx2y2   :     0.017606
      dxy     :     0.015868
      f0      :     0.000616  f :     0.003478
      f+1     :     0.000370
      f-1     :     0.000296
      f+2     :     0.000097
      f-2     :     0.000590
      f+3     :     0.000941
      f-3     :     0.000568

  9 C s       :     3.298692  s :     3.298692
      pz      :     0.988970  p :     2.844012
      px      :     0.945406
      py      :     0.909637
      dz2     :     0.005427  d :     0.077810
      dxz     :     0.016332
      dyz     :     0.011594
      dx2y2   :     0.016209
      dxy     :     0.028247
      f0      :     0.001373  f :     0.007397
      f+1     :     0.000468
      f-1     :     0.000661
      f+2     :     0.001232
      f-2     :     0.000121
      f+3     :     0.001343
      f-3     :     0.002198

 10 C s       :     3.392141  s :     3.392141
      pz      :     0.970231  p :     2.449377
      px      :     0.725776
      py      :     0.753370
      dz2     :     0.005105  d :     0.121205
      dxz     :     0.022431
      dyz     :     0.023861
      dx2y2   :     0.031472
      dxy     :     0.038336
      f0      :     0.001416  f :     0.009230
      f+1     :     0.000645
      f-1     :     0.000665
      f+2     :     0.000816
      f-2     :     0.001108
      f+3     :     0.002683
      f-3     :     0.001897

 11 C s       :     3.169517  s :     3.169517
      pz      :     0.938144  p :     2.434473
      px      :     0.784333
      py      :     0.711997
      dz2     :     0.005307  d :     0.153707
      dxz     :     0.028436
      dyz     :     0.036131
      dx2y2   :     0.042459
      dxy     :     0.041374
      f0      :     0.001916  f :     0.013934
      f+1     :     0.000758
      f-1     :     0.001100
      f+2     :     0.001114
      f-2     :     0.001778
      f+3     :     0.002482
      f-3     :     0.004784

 12 N s       :     3.721724  s :     3.721724
      pz      :     1.349208  p :     3.600337
      px      :     1.240205
      py      :     1.010924
      dz2     :     0.004638  d :     0.058241
      dxz     :     0.005989
      dyz     :     0.014170
      dx2y2   :     0.017652
      dxy     :     0.015792
      f0      :     0.000609  f :     0.003478
      f+1     :     0.000292
      f-1     :     0.000382
      f+2     :     0.000102
      f-2     :     0.000592
      f+3     :     0.000570
      f-3     :     0.000932

 13 C s       :     3.298581  s :     3.298581
      pz      :     0.986748  p :     2.843938
      px      :     0.910125
      py      :     0.947066
      dz2     :     0.005493  d :     0.077801
      dxz     :     0.011873
      dyz     :     0.015960
      dx2y2   :     0.016293
      dxy     :     0.028181
      f0      :     0.001353  f :     0.007396
      f+1     :     0.000603
      f-1     :     0.000562
      f+2     :     0.001201
      f-2     :     0.000137
      f+3     :     0.002178
      f-3     :     0.001363

 14 C s       :     3.170081  s :     3.170081
      pz      :     0.935460  p :     2.434173
      px      :     0.717159
      py      :     0.781554
      dz2     :     0.004939  d :     0.153704
      dxz     :     0.035905
      dyz     :     0.029178
      dx2y2   :     0.045127
      dxy     :     0.038555
      f0      :     0.001944  f :     0.013933
      f+1     :     0.000977
      f-1     :     0.000845
      f+2     :     0.000706
      f-2     :     0.002166
      f+3     :     0.003638
      f-3     :     0.003657

 15 C s       :     3.169758  s :     3.169758
      pz      :     0.937859  p :     2.434531
      px      :     0.712746
      py      :     0.783926
      dz2     :     0.005027  d :     0.153725
      dxz     :     0.037131
      dyz     :     0.027900
      dx2y2   :     0.042276
      dxy     :     0.041391
      f0      :     0.001940  f :     0.013934
      f+1     :     0.001027
      f-1     :     0.000798
      f+2     :     0.001078
      f-2     :     0.001785
      f+3     :     0.004815
      f-3     :     0.002491

 16 C s       :     3.170159  s :     3.170159
      pz      :     0.931889  p :     2.434821
      px      :     0.784208
      py      :     0.718724
      dz2     :     0.005316  d :     0.153734
      dxz     :     0.028600
      dyz     :     0.036221
      dx2y2   :     0.042414
      dxy     :     0.041182
      f0      :     0.001921  f :     0.013934
      f+1     :     0.000756
      f-1     :     0.001092
      f+2     :     0.001117
      f-2     :     0.001776
      f+3     :     0.002488
      f-3     :     0.004783

 17 C s       :     3.169750  s :     3.169750
      pz      :     0.931726  p :     2.433956
      px      :     0.778773
      py      :     0.723457
      dz2     :     0.005207  d :     0.153703
      dxz     :     0.029711
      dyz     :     0.035156
      dx2y2   :     0.045196
      dxy     :     0.038434
      f0      :     0.001918  f :     0.013932
      f+1     :     0.000834
      f-1     :     0.001019
      f+2     :     0.000685
      f-2     :     0.002197
      f+3     :     0.003657
      f-3     :     0.003622

 18 C s       :     3.298661  s :     3.298661
      pz      :     0.988721  p :     2.844328
      px      :     0.910780
      py      :     0.944826
      dz2     :     0.005451  d :     0.077789
      dxz     :     0.011897
      dyz     :     0.016047
      dx2y2   :     0.016246
      dxy     :     0.028148
      f0      :     0.001354  f :     0.007396
      f+1     :     0.000601
      f-1     :     0.000560
      f+2     :     0.001204
      f-2     :     0.000140
      f+3     :     0.002178
      f-3     :     0.001360

 19 C s       :     3.392553  s :     3.392553
      pz      :     0.970308  p :     2.447853
      px      :     0.750584
      py      :     0.726962
      dz2     :     0.005130  d :     0.121160
      dxz     :     0.024428
      dyz     :     0.021722
      dx2y2   :     0.031727
      dxy     :     0.038153
      f0      :     0.001435  f :     0.009228
      f+1     :     0.000613
      f-1     :     0.000677
      f+2     :     0.000829
      f-2     :     0.001102
      f+3     :     0.001894
      f-3     :     0.002678

 20 C s       :     3.392349  s :     3.392349
      pz      :     0.971281  p :     2.450881
      px      :     0.726137
      py      :     0.753462
      dz2     :     0.005350  d :     0.121236
      dxz     :     0.022425
      dyz     :     0.023458
      dx2y2   :     0.031791
      dxy     :     0.038212
      f0      :     0.001421  f :     0.009231
      f+1     :     0.000649
      f-1     :     0.000666
      f+2     :     0.000812
      f-2     :     0.001117
      f+3     :     0.002671
[...]
  0-1A  -> 26-1A    3.473844   28018.4   356.9   0.025784233   0.30296  -0.16144  -0.52367   0.05160
  0-1A  -> 27-1A    3.473885   28018.8   356.9   0.025796772   0.30310   0.52581  -0.16308   0.00606
  0-1A  -> 28-1A    3.576724   28848.2   346.6   0.000003570   0.00004  -0.00599  -0.00221  -0.00004
  0-1A  -> 29-1A    3.595112   28996.5   344.9   0.467907027   5.31238  -0.86090  -2.12710   0.21601
  0-1A  -> 30-1A    3.595217   28997.4   344.9   0.467029708   5.30226  -2.13635   0.85795  -0.04696

----------------------------------------------------------------------------------------------------
                     ABSORPTION SPECTRUM VIA TRANSITION VELOCITY DIPOLE MOMENTS    
----------------------------------------------------------------------------------------------------
     Transition      Energy     Energy  Wavelength fosc(P2)      P2        PX        PY        PZ   
                      (eV)      (cm-1)    (nm)                 (au**2)    (au)      (au)      (au)  
----------------------------------------------------------------------------------------------------
  0-1A  ->  1-1A    2.194391   17699.0   565.0   0.013928007   0.00168   0.03950   0.01103  -0.00179
  0-1A  ->  2-1A    2.194435   17699.3   565.0   0.013885216   0.00168  -0.01100   0.03931  -0.00362
  0-1A  ->  3-1A    3.112602   25104.8   398.3   0.091319446   0.01567   0.09328   0.08291  -0.00964
  0-1A  ->  4-1A    3.112699   25105.6   398.3   0.089840234   0.01542  -0.08261   0.09239  -0.00744
  0-1A  ->  5-1A    3.174455   25603.7   390.6   0.164812204   0.02884  -0.03016   0.16641  -0.01546
  0-1A  ->  6-1A    3.174544   25604.4   390.6   0.164615411   0.02881   0.16697   0.02993  -0.00572
  0-1A  ->  7-1A    3.190719   25734.9   388.6   0.000420355   0.00007   0.00838  -0.00188   0.00038
  0-1A  ->  8-1A    3.218311   25957.4   385.2   0.000049352   0.00001  -0.00252  -0.00153   0.00021
  0-1A  ->  9-1A    3.256048   26261.8   380.8   0.000030378   0.00001   0.00120  -0.00200   0.00017
  0-1A  -> 10-1A    3.306499   26668.7   375.0   0.000218991   0.00004  -0.00154  -0.00609   0.00062
  0-1A  -> 11-1A    3.308981   26688.7   374.7   0.000139819   0.00003  -0.00404  -0.00300   0.00041
  0-1A  -> 12-1A    3.313816   26727.7   374.1   0.002069841   0.00038   0.01736  -0.00556   0.00678
  0-1A  -> 13-1A    3.314570   26733.8   374.1   0.000793289   0.00014   0.00313  -0.01144  -0.00204
  0-1A  -> 14-1A    3.317853   26760.3   373.7   0.035046836   0.00641   0.05085   0.06136  -0.00768
  0-1A  -> 15-1A    3.318151   26762.7   373.7   0.033922767   0.00620   0.06067  -0.05018   0.00242
  0-1A  -> 16-1A    3.324982   26817.8   372.9   0.000214356   0.00004   0.00212   0.00587  -0.00058
  0-1A  -> 17-1A    3.361685   27113.8   368.8   0.004416404   0.00082  -0.02304  -0.01684   0.00200
  0-1A  -> 18-1A    3.361811   27114.8   368.8   0.004945287   0.00092  -0.01839   0.02396  -0.00203
  0-1A  -> 19-1A    3.369228   27174.7   368.0   0.000023866   0.00000   0.00155   0.00142  -0.00012
  0-1A  -> 20-1A    3.415494   27547.8   363.0   0.000142340   0.00003  -0.00129  -0.00034  -0.00500
  0-1A  -> 21-1A    3.429658   27662.1   361.5   0.000003986   0.00000  -0.00032   0.00081  -0.00002
  0-1A  -> 22-1A    3.453018   27850.5   359.1   0.000000182   0.00000   0.00016  -0.00010   0.00001
  0-1A  -> 23-1A    3.460290   27909.1   358.3   0.001356974   0.00026   0.01204  -0.01061   0.00107
  0-1A  -> 24-1A    3.460383   27909.9   358.3   0.001349925   0.00026   0.01065   0.01195  -0.00116
  0-1A  -> 25-1A    3.469184   27980.9   357.4   0.000001336   0.00000  -0.00050  -0.00004   0.00009
  0-1A  -> 26-1A    3.473844   28018.4   356.9   0.006840413   0.00131   0.01063   0.03442  -0.00348
  0-1A  -> 27-1A    3.473885   28018.8   356.9   0.006840221   0.00131  -0.03459   0.01065  -0.00050
  0-1A  -> 28-1A    3.576724   28848.2   346.6   0.000000934   0.00000   0.00037   0.00021  -0.00000
  0-1A  -> 29-1A    3.595112   28996.5   344.9   0.039185983   0.00777   0.03293   0.08130  -0.00845
  0-1A  -> 30-1A    3.595217   28997.4   344.9   0.039073546   0.00774   0.08164  -0.03279   0.00172

------------------------------------------------------------------------------------------
                     CD SPECTRUM VIA TRANSITION ELECTRIC DIPOLE MOMENTS    
------------------------------------------------------------------------------------------
     Transition      Energy     Energy  Wavelength    R        MX        MY        MZ   
                      (eV)      (cm-1)    (nm)   (1e40*cgs)   (au)      (au)      (au)  
------------------------------------------------------------------------------------------
  0-1A  ->  1-1A    2.194391   17699.0   565.0   -1.30818  -0.00570  -0.00160  -0.00032
  0-1A  ->  2-1A    2.194435   17699.3   565.0   -1.27141   0.00148  -0.00552   0.00066
  0-1A  ->  3-1A    3.112602   25104.8   398.3   -6.87459  -0.00338  -0.00294  -0.00203
  0-1A  ->  4-1A    3.112699   25105.6   398.3   -7.14291   0.00285  -0.00316   0.00423
  0-1A  ->  5-1A    3.174455   25603.7   390.6  -26.91705   0.00324  -0.01675   0.01505
  0-1A  ->  6-1A    3.174544   25604.4   390.6  -27.58645  -0.01900  -0.00633  -0.03074
  0-1A  ->  7-1A    3.190719   25734.9   388.6  -16.35360   0.01263   0.07879   0.82705
  0-1A  ->  8-1A    3.218311   25957.4   385.2   -0.01245   0.00044   0.00002  -0.00090
  0-1A  ->  9-1A    3.256048   26261.8   380.8   -0.00586  -0.00030   0.00010  -0.00113
  0-1A  -> 10-1A    3.306499   26668.7   375.0    0.24319  -0.00125  -0.00482   0.00120
  0-1A  -> 11-1A    3.308981   26688.7   374.7    0.17049  -0.00336  -0.00251   0.00222
  0-1A  -> 12-1A    3.313816   26727.7   374.1   10.23703   0.01687   0.01288   0.18674
  0-1A  -> 13-1A    3.314570   26733.8   374.1    2.63390   0.00090  -0.01745  -0.08436
  0-1A  -> 14-1A    3.317853   26760.3   373.7   36.03394   0.03486   0.04062  -0.03088
  0-1A  -> 15-1A    3.318151   26762.7   373.7   34.31340   0.04108  -0.03781  -0.03542
  0-1A  -> 16-1A    3.324982   26817.8   372.9    0.21150   0.00149   0.00396   0.00035
  0-1A  -> 17-1A    3.361685   27113.8   368.8    3.61462  -0.02431  -0.01792   0.00388
  0-1A  -> 18-1A    3.361811   27114.8   368.8    4.02356  -0.01878   0.02496   0.00074
  0-1A  -> 19-1A    3.369228   27174.7   368.0    0.00243   0.00151   0.00112  -0.00079
  0-1A  -> 20-1A    3.415494   27547.8   363.0   -5.16636  -0.00217  -0.01042  -0.10884
  0-1A  -> 21-1A    3.429658   27662.1   361.5    0.00402  -0.00045   0.00119  -0.00160
  0-1A  -> 22-1A    3.453018   27850.5   359.1    0.00043   0.00018   0.00034   0.00015
  0-1A  -> 23-1A    3.460290   27909.1   358.3   -1.82374  -0.00744   0.00637  -0.00132
  0-1A  -> 24-1A    3.460383   27909.9   358.3   -1.72999  -0.00629  -0.00693   0.00032
  0-1A  -> 25-1A    3.469184   27980.9   357.4    0.00093  -0.00001  -0.00040   0.00015
  0-1A  -> 26-1A    3.473844   28018.4   356.9   -1.61781  -0.00179  -0.00591   0.00096
  0-1A  -> 27-1A    3.473885   28018.8   356.9   -1.57974   0.00582  -0.00175   0.00076
  0-1A  -> 28-1A    3.576724   28848.2   346.6    0.00520   0.00165   0.00051   0.00006
  0-1A  -> 29-1A    3.595112   28996.5   344.9   -4.09080  -0.00178  -0.00334   0.00015
  0-1A  -> 30-1A    3.595217   28997.4   344.9   -3.85566  -0.00331   0.00130   0.00026

------------------------------------------------------------------------------------------
                     CD SPECTRUM VIA TRANSITION VELOCITY DIPOLE MOMENTS    
------------------------------------------------------------------------------------------
     Transition      Energy     Energy  Wavelength    R        MX        MY        MZ   
                      (eV)      (cm-1)    (nm)   (1e40*cgs)   (au)      (au)      (au)  
------------------------------------------------------------------------------------------
  0-1A  ->  1-1A    2.194391   17699.0   565.0   -1.41562  -0.00570  -0.00160  -0.00032
  0-1A  ->  2-1A    2.194435   17699.3   565.0   -1.37754   0.00148  -0.00552   0.00066
  0-1A  ->  3-1A    3.112602   25104.8   398.3   -2.22233  -0.00338  -0.00294  -0.00203
  0-1A  ->  4-1A    3.112699   25105.6   398.3   -2.30282   0.00285  -0.00316   0.00423
  0-1A  ->  5-1A    3.174455   25603.7   390.6  -12.59682   0.00324  -0.01675   0.01505
  0-1A  ->  6-1A    3.174544   25604.4   390.6  -12.87560  -0.01900  -0.00633  -0.03074
  0-1A  ->  7-1A    3.190719   25734.9   388.6    1.09285   0.01263   0.07879   0.82705
  0-1A  ->  8-1A    3.218311   25957.4   385.2   -0.00526   0.00044   0.00002  -0.00090
  0-1A  ->  9-1A    3.256048   26261.8   380.8   -0.00297  -0.00030   0.00010  -0.00113
  0-1A  -> 10-1A    3.306499   26668.7   375.0    0.12428  -0.00125  -0.00482   0.00120
  0-1A  -> 11-1A    3.308981   26688.7   374.7    0.08546  -0.00336  -0.00251   0.00222
  0-1A  -> 12-1A    3.313816   26727.7   374.1    5.75591   0.01687   0.01288   0.18674
  0-1A  -> 13-1A    3.314570   26733.8   374.1    1.45030   0.00090  -0.01745  -0.08436
  0-1A  -> 14-1A    3.317853   26760.3   373.7   17.40836   0.03486   0.04062  -0.03088
  0-1A  -> 15-1A    3.318151   26762.7   373.7   16.64048   0.04108  -0.03781  -0.03542
  0-1A  -> 16-1A    3.324982   26817.8   372.9    0.10106   0.00149   0.00396   0.00035
  0-1A  -> 17-1A    3.361685   27113.8   368.8    3.31843  -0.02431  -0.01792   0.00388
  0-1A  -> 18-1A    3.361811   27114.8   368.8    3.59446  -0.01878   0.02496   0.00074
  0-1A  -> 19-1A    3.369228   27174.7   368.0    0.01533   0.00151   0.00112  -0.00079
  0-1A  -> 20-1A    3.415494   27547.8   363.0    2.06875  -0.00217  -0.01042  -0.10884
  0-1A  -> 21-1A    3.429658   27662.1   361.5    0.00425  -0.00045   0.00119  -0.00160
  0-1A  -> 22-1A    3.453018   27850.5   359.1   -0.00001   0.00018   0.00034   0.00015
  0-1A  -> 23-1A    3.460290   27909.1   358.3   -0.58819  -0.00744   0.00637  -0.00132
  0-1A  -> 24-1A    3.460383   27909.9   358.3   -0.55654  -0.00629  -0.00693   0.00032
  0-1A  -> 25-1A    3.469184   27980.9   357.4    0.00013  -0.00001  -0.00040   0.00015
  0-1A  -> 26-1A    3.473844   28018.4   356.9   -0.83339  -0.00179  -0.00591   0.00096
  0-1A  -> 27-1A    3.473885   28018.8   356.9   -0.81374   0.00582  -0.00175   0.00076
  0-1A  -> 28-1A    3.576724   28848.2   346.6    0.00260   0.00165   0.00051   0.00006
  0-1A  -> 29-1A    3.595112   28996.5   344.9   -1.18374  -0.00178  -0.00334   0.00015
  0-1A  -> 30-1A    3.595217   28997.4   344.9   -1.11532  -0.00331   0.00130   0.00026

Total run time:     2069.951 sec

           *** ORCA-CIS/TD-DFT FINISHED WITHOUT ERROR ***
-----------------------
CIS/TD-DFT TOTAL ENERGY
-----------------------

    E(SCF)  =  -2113.490984451 Eh
    DE(CIS) =      0.080642378 Eh (Root  1)
    ----------------------------- ---------
    E(tot)  =  -2113.410342073 Eh


Maximum memory used throughout the entire CIS-calculation: 2998.7 MB
=> NOW LEAVING ORCA_CIS

-------------------------   --------------------
FINAL SINGLE POINT ENERGY     -2113.410342072932
-------------------------   --------------------



           ************************************************************
           *        Program running with 8 parallel MPI-processes     *
           *              working on a common directory               *
           ************************************************************

------------------------------------------------------------------------------
                              ORCA PROPERTY CALCULATIONS
------------------------------------------------------------------------------

GBWName                                 ... tddft.gbw
Number of atoms                         ...     77
Number of basis functions               ...   1688
Max core memory                         ...   3000 MB

Electric properties:
Dipole moment                           ... YES
Quadrupole moment                       ...  NO
Static polarizability (Dipole/Dipole)   ...  NO
Static polarizability (Dipole/Quad.)    ...  NO
Static polarizability (Quad./Quad.)     ...  NO
Static polarizability (Velocity)        ...  NO
Static hyperpolarizability              ...  NO

Atomic electric properties:
Dipole moment                           ...  NO
Quadrupole moment                       ...  NO
Static polarizability                   ...  NO

Choice of electric origin               ... Center of mass
Position of electric origin             ...    -0.159849     5.088964     6.548248

General magnetic properties:
Magnetizability                         ...  NO

EPR properties:
g-Tensor (aka g-matrix)                 ...  NO
Zero-Field splitting spin-orbit         ...  NO
Zero-field splitting spin-spin          ...  NO
Hyperfine couplings                     ...  NO (   0 nuclei)
Quadrupole couplings                    ...  NO (   0 nuclei)
Contact density                         ...  NO (   0 nuclei)

NMR properties:
Chemical shifts                         ...  NO (   0 nuclei)
Spin-rotation constants                 ...  NO (   0 nuclei)
Spin-spin couplings                     ...  NO (   0 nuclei,    0 pairs)

Choice of magnetic origin               ... GIAO
Position of magnetic origin             ...     0.000000     0.000000     0.000000

Properties with geometric perturbations:
SCF Hessian                             ...  NO
IR spectrum                             ...  NO
VCD spectrum                            ...  NO
X-ray spectroscopy properties:
SCF XES/XAS/RIXS spectra                ...  NO

SCF SOC stabilization energy            ...  NO
Diagonal Born-Oppenheimer correction    ...  NO

-------------
DIPOLE MOMENT
-------------

Method             : SCF
Type of density    : Electron Density
Multiplicity       :   1
Irrep              :   0
Energy             : -2113.4909844511785195 Eh
Basis              : AO
                                X                 Y                 Z
Electronic contribution:     -0.006170145      -0.000627496       0.014014200
Nuclear contribution   :      0.006551862       0.000121054      -0.014501534
                        -----------------------------------------
Total Dipole Moment    :      0.000381716      -0.000506442      -0.000487334
                        -----------------------------------------
Magnitude (a.u.)       :      0.000799804
Magnitude (Debye)      :      0.002032940



--------------------
Rotational spectrum 
--------------------
 
Rotational constants in cm-1:             0.001944             0.001943             0.001012 
Rotational constants in MHz :            58.267391            58.258492            30.324103 

Dipole components along the rotational axes: 
x,y,z [a.u.] :     0.000405    -0.000444    -0.000527 
x,y,z [Debye]:     0.001030    -0.001129    -0.001341 

 

Dipole moment calculation done in   0.2 sec 

Maximum memory used throughout the entire PROP-calculation: 230.7 MB

--------------------------------
SUGGESTED CITATIONS FOR THIS RUN
--------------------------------

Below you find a list of papers that are relevant to this ORCA run
We neither can nor want to force you to cite these papers, but we appreciate if you do
You receive ORCA, which is the product of decades of hard work by many enthusiastic individuals, for free
The only thing we kindly ask in return is that you cite our papers,
We deeply appreciate it, if you show your appreciation for ORCA by not just citing the generic ORCA reference.

Please note that relegating all ORCA citations to the supporting information does *not* help us.
SI sections are not indexed - citations you put there will not count into any citation statistics
But we need these citations in order to attract the funding resources that allow us to do what we are doing

Therefore, if you are a happy ORCA user, please consider citing a few of the papers listed below in the main body of your paper

In addition to the list printed below, the program has created the file tddft.bibtex that contains the list in bibtex format
You can import this file easily into all common literature databanks and citation aid programs

It goes without saying that in many instances, there are alternative algorithms to achieve similar
results as the ones you have gotten from ORCA. It is, of course, also the case that in some instances
ORCA just re-implements algorithms worked out by others. We are fully aware of that and we are also
fully appreciative of our colleagues work. Hence this citation list should not be read as indicating
that the listed papers, which are focused on our own work, are the only ones worth citing. It simply
meant to make it easier for users to cite ORCA specific papers. It is not a substitute for doing your
own literature research and citing the relevant literature in a scientifically appropriate manner.

List of essential papers. We consider these as the minimum necessary citations

  1. Neese, F.
     Software update: the ORCA program system, version 6.0
     WIRES Comput. Molec. Sci. 2025 15(1), e70019
     doi.org/10.1002/wcms.70019

List of papers to cite with high priority. The work reported in these papers was absolutely
necessary for this run to complete.
Our perspective: the developers of density functionals and basis sets usually get cited in chemistry papers
Good! But without the algorithms to do something with them, the functionals or basis sets would not do anything.
Hence, in our opinion, the algorithm design and method developments papers are equally worthy of getting cited

  1. Neese, F.; Olbrich, G.
     Efficient use of the resolution of the identity approximation in time-dependent density functional calculations with hybrid density functionals
     Chem. Phys. Lett. 2002 362 , 170-178
     doi.org/10.1016/s0009-2614(02)01053-9
  2. Neese, F.
     An improvement of the resolution of the identity approximation for the formation of the Coulomb matrix
     J. Comp. Chem. 2003 24(14), 1740-1747
     doi.org/10.1002/jcc.10318
  3. Garcia-Rates, M.; Neese, F.
     Effect of the Solute Cavity on the Solvation Energy and its Derivatives within the Framework of the Gaussian Charge Scheme
     J. Comput. Chem. 2020 41 , 922-939
     doi.org/10.1002/jcc.26139
  4. Neese, F.
     The SHARK Integral Generation and Digestion System
     J. Comp. Chem. 2022 44(3), 381
     doi.org/10.1002/jcc.26942

List of suggested additional citations. These are papers that are important in the 'surrounding' of 
of this run, or papers that preceded the highly important papers. If you like your results we are grateful for a citation.

  1. Neese, F.
     The ORCA program system
     WIRES Comput. Molec. Sci. 2012 2(1), 73-78
     doi.org/10.1002/wcms.81
  2. Neese, F.
     Software update: the ORCA program system, version 4.0
     WIRES Comput. Molec. Sci. 2018 8(1), 1-6
     doi.org/10.1002/wcms.1327
  3. Neese, F.; Wennmohs, F.; Becker, U.; Riplinger, C.
     The ORCA quantum chemistry program package
     J. Chem. Phys. 2020 152(22), 224108
     doi.org/10.1063/5.0004608
  4. Neese, F.
     Software update: The ORCA program system—Version 5.0
     WIRES Comput. Molec. Sci. 2022 12(1), e1606
     doi.org/10.1002/wcms.1606

List of optional additional citations

  1. Neese, F.
     Approximate second-order SCF convergence for spin unrestricted wavefunctions
     Chem. Phys. Lett. 2000 325(1-3), 93-98
     doi.org/10.1016/s0009-2614(00)00662-x

Timings for individual modules:

Sum of individual times          ...     2528.356 sec (=  42.139 min)
Startup calculation              ...       18.299 sec (=   0.305 min)   0.7 %
SCF iterations                   ...      434.052 sec (=   7.234 min)  17.2 %
Property integrals               ...        3.075 sec (=   0.051 min)   0.1 %
Property calculations            ...        1.881 sec (=   0.031 min)   0.1 %
CIS module                       ...     2071.049 sec (=  34.517 min)  81.9 %
                             ****ORCA TERMINATED NORMALLY****
TOTAL RUN TIME: 0 days 0 hours 42 minutes 8 seconds 950 msec
