
                                 *****************
                                 * O   R   C   A *
                                 *****************

                                            #,                                       
                                            ###                                      
                                            ####                                     
                                            #####                                    
                                            ######                                   
                                           ########,                                 
                                     ,,################,,,,,                         
                               ,,#################################,,                 
                          ,,##########################################,,             
                       ,#########################################, ''#####,          
                    ,#############################################,,   '####,        
                  ,##################################################,,,,####,       
                ,###########''''           ''''###############################       
              ,#####''   ,,,,##########,,,,          '''####'''          '####       
            ,##' ,,,,###########################,,,                        '##       
           ' ,,###''''                  '''############,,,                           
         ,,##''                                '''############,,,,        ,,,,,,###''
      ,#''                                            '''#######################'''  
     '                                                          ''''####''''         
             ,#######,   #######,   ,#######,      ##                                
            ,#'     '#,  ##    ##  ,#'     '#,    #''#        ,####,    ,#,          
            ##       ##  ##   ,#'  ##            #'  '#       #'       ,# #          
            ##       ##  #######   ##           ,######,      #####,      #          
            '#,     ,#'  ##    ##  '#,     ,#' ,#      #,     #,   #      #          
             '#######'   ##     ##  '#######'  #'      '#     '####' #    #          



                #########################################################
                #                        -***-                          #
                #          Department of theory and spectroscopy        #
                #                                                       #
                #                      Frank Neese                      #
                #                                                       #
                #     Directorship, Architecture, Infrastructure        #
                #                    SHARK, DRIVERS                     #
                #        Core code/Algorithms in most modules           #
                #                                                       #
                #        Max Planck Institute fuer Kohlenforschung      #
                #                Kaiser Wilhelm Platz 1                 #
                #                 D-45470 Muelheim/Ruhr                 #
                #                      Germany                          #
                #                                                       #
                #                  All rights reserved                  #
                #                        -***-                          #
                #########################################################


                         Program Version 6.1.1  -  RELEASE   -
                                (GIT: $487d211c$)
                          ($2025-11-21 10:33:24 +0100$)


 With contributions from (in alphabetic order):
[Max-Planck-Institut fuer Kohlenforschung]                               
  Daniel Aravena         : Magnetic Suceptibility                        
  Michael Atanasov       : Ab Initio Ligand Field Theory (pilot matlab implementation)
  Alexander A. Auer      : GIAO ZORA, VPT2 properties, NMR spectrum      
  Ute Becker             : All parallelization in ORCA, NUMFREQ, NUMCALC 
  Giovanni Bistoni       : ED, misc. LED, open-shell LED, HFLD           
  Dmytro Bykov           : pre 5.0 version of the SCF Hessian            
  Marcos Casanova-Páez   : Triplet and SCS-CIS(D). UHF-(DLPNO)-IP/EA/STEOM-CCSD. UHF-CVS-IP/STEOM-CCSD   
  Vijay G. Chilkuri      : MRCI spin determinant printing, contributions to CSF-ICE 
  Pauline Colinet        : FMM embedding                                 
  Dipayan Datta          : RHF DLPNO-CCSD density                        
  Achintya Kumar Dutta   : EOM-CC, STEOM-CC                              
  Nicolas Foglia         : Exact transition moments, OPA infrastructure, MCD improvements    
  Dmitry Ganyushin       : Spin-Orbit,Spin-Spin,Magnetic field MRCI      
  Miquel Garcia-Rates    : C-PCM and meta-GGA Hessian, CCSD/C-PCM, Gaussian charge scheme 
  Tiago L. C. Gouveia    : GS-ROHF, GS-ROCIS                             
  Yang Guo               : DLPNO-NEVPT2, F12-NEVPT2, CIM, IAO-localization        
  Andreas Hansen         : Spin unrestricted coupled pair/coupled cluster methods 
  Ingolf Harden          : AUTO-CI MPn and infrastructure                
  Benjamin Helmich-Paris : MC-RPA, TRAH-(SCF,CASSCF), AVAS, COSX integrals, SCF dyn. polar., MC-PDFT, srDFT 
  Lee Huntington         : MR-EOM, pCC                                   
  Robert Izsak           : Overlap fitted RIJCOSX, COSX-SCS-MP3, EOM     
  Riya Kayal             : Wick's Theorem for AUTO-CI, AUTO-CI UHF-CCSDT 
  Emily Kempfer          : AUTO-CI RHF CISDT and CCSDT, approximate NEVPT4
  Christian Kollmar      : KDIIS, OOCD, Brueckner-CCSD(T), CCSD density, CASPT2, CASPT2-K, improved NEVPT2 
  Axel Koslowski         : Symmetry handling                             
  Simone Kossmann        : meta-GGA functionals, TD-DFT gradient, OOMP2, (MP2 Hessian; deprecated post 5.0) 
  Lucas Lang             : DCDCAS, Hyperfine gauge corrections, ICE-SOC+SSC
  Marvin Lechner         : AUTO-CI (C++ implementation), FIC-MRCC        
  Spencer Leger          : CASSCF response                               
  Dagmar Lenk            : GEPOL surface, SMD, ORCA-2-JSON               
  Dimitrios Liakos       : Extrapolation schemes; Compound Job, Property file
  Dimitrios Manganas     : Further ROCIS development; embedding schemes. LFT, Crystal Embedding 
  Dimitrios Pantazis     : SARC Basis sets                               
  Anastasios Papadopoulos: AUTO-CI, single reference methods and gradients 
  Taras Petrenko         : pre 6.0 DFT Hessian and TD-DFT gradient,  ECA, NRVS 
  Petra Pikulova         : Analytic Raman intensities                    
  Peter Pinski           : DLPNO-MP2, DLPNO-MP2 Gradient                 
  Shashank Vittal Rao    : ES-AILFT, MagRelax                            
  Christoph Reimann      : Effective Core Potentials                     
  Marius Retegan         : Local ZFS, SOC                                
  Christoph Riplinger    : Optimizer, TS searches, QM/MM, DLPNO-CCSD(T), (RO)-DLPNO pert. Triples 
  Michael Roemelt        : Original ROCIS implementation, recursive CI coupling coefficients
  Masaaki Saitow         : Open-shell DLPNO-CCSD energy and density      
  Barbara Sandhoefer     : DKH picture change effects                    
  Yorick L. A. Schmerwitz: GMF and freeze-and-release deltaSCF, NEB S-IDPP initial path                    
  Kantharuban Sivalingam : CASSCF convergence/infrastructure, NEVPT2, NEVPT3, NEVPT4(SD), FIC-MRCI and CEPA variants
  Bernardo de Souza      : ESD, SOC TD-DFT                               
  Georgi L. Stoychev     : AutoAux, RI-MP2 NMR, DLPNO-MP2 response, X2C  
  Van Anh Tran           : RI-MP2 g-tensors                              
  Willem Van den Heuvel  : Paramagnetic NMR                              
  Zikuan Wang            : NOTCH, Electric field optimization            
  Frank Wennmohs         : Technical directorship and infrastructure     
  Hang Xu                : AUTO-CI-Response properties                   
                                                                         
[FACCTs GmbH]                                                            
  Markus Bursch, Nicolas Foglia, Miquel Garcia-Rates, Ingolf Harden, Hagen Neugebauer, Anastasios Papadopoulos, 
  Christoph Riplinger, Bernardo de Souza, Georgi L. Stoychev                                                    
                                                                 
  APM, various basis sets, CI-OPT, improved COSX, DLPNO-Multilevel,           
  DOCKER, DRACO, updates on ESD, Fragmentator, GOAT, IRC, LR-CPCM, L-BFGS, MBIS, meta-GGA TD-DFT gradient, ML-optimized integration grids, 
  MM, NACMEs, nearIR, NEB, NEB-TS, NL-DFT gradient (VV10), 2- and 3-layer-ONIOM, interface openCOSMO-RS, QMMM,   
  Crystal-QMMM, RESP, rigid body optimization, SF, symmetry and pop. for TD-DFT, various functionals, SOLVATOR                                   
                                                                         
[Other institutions]                                                     
  V. Asgeirsson          : NEB                                           
  Christoph Bannwarth    : sTDA-DFT, sTD-DFT, PBEh-3c, B97-3c, D3        
  Giovanni Bistoni       : ETS/NOCV, ADLD/ADEX, COVALED                  
  Martin Brehm           : Molecular dynamics                            
  Ronald Cardenas        : ETS/NOCV                                      
  Martina Colucci        : COVALED                                       
  Sebastian Ehlert       : rSCAN, r2SCAN, r2SCAN-3c, D4, dhf basis sets  
  Marvin Friede          : D4 for Fr, Ra, Ac-Lr                          
  Lars Goerigk           : TD-DFT with DH, B97 family of functionals     
  Stefan Grimme          : VdW corrections, initial TS optimization, DFT functionals, gCP, sTDA/sTD-DF 
  Waldemar Hujo          : DFT-NL                                        
  H. Jonsson             : NEB                                           
  Holger Kruse           : gCP                                           
  Marcel Mueller         : wB97X-3c, vDZP basis set                      
  Hagen Neugebauer       : wr2SCAN, Native XTB                           
  Gianluca Regni         : ADLD/ADEX                                     
  Tobias Risthaus        : pre 6.0 range-separated hybrid DFT and stability analysis
  Lukas Wittmann         : regularized MP2, r2SCAN double-hybrids, wr2SCAN        
                                                                         
We gratefully acknowledge several colleagues who have allowed us to      
interface, adapt or use parts of their codes:                            
  Ed Valeev, F. Pavosevic, A. Kumar             : LibInt (2-el integral package), F12 methods 
  Garnet Chan, S. Sharma, J. Yang, R. Olivares  : DMRG                   
  Ulf Ekstrom                                   : XCFun DFT Library      
  Mihaly Kallay                                 : mrcc  (arbitrary order and MRCC methods)
  Frank Weinhold                                : gennbo (NPA and NBO analysis)           
  Simon Mueller                                 : openCOSMO-RS                            
  Christopher J. Cramer and Donald G. Truhlar   : smd solvation model                     
  S Lehtola, MJT Oliveira, MAL Marques          : LibXC Library                           
  Liviu Ungur et al                             : ANISO software                          


 Your calculation uses the libint2 library for the computation of 2-el integrals
 For citations please refer to: http://libint.valeyev.net

 Your ORCA version has been built with support for libXC version: 7.0.0
 For citations please refer to: https://libxc.gitlab.io

 This ORCA versions uses:
   CBLAS   interface :  Fast vector & matrix operations
   LAPACKE interface :  Fast linear algebra routines
   SCALAPACK package :  Parallel linear algebra routines
   Shared memory     :  Shared parallel matrices
   BLAS/LAPACK       :  OpenBLAS 0.3.29  USE64BITINT DYNAMIC_ARCH NO_AFFINITY Haswell SINGLE_THREADED
        Core in use  :  Haswell
   Copyright (c) 2011-2014, The OpenBLAS Project


  ***********************************
  * Starting time: Sun Jun 14 20:51:09 2026
  * Host name:     steezy
  * Process ID:    2929518
  * Working dir.:  /home/jannes/mgtpp/04_tddft_tda_comparison/runs/tdaon_wb97xd
  ***********************************

NOTE: MaxCore=3000 MB was set to SCF,MP2,MDCI,CIPSI,MRCI,RASCI and CIS
      => If you want to overwrite this, your respective input block should be placed after the MaxCore statement


***************************************
The coordinates will be read from file: /home/jannes/mgtpp/01_opt/mgtpp_opt_b3lyp_tzvp.xyz
***************************************


Your calculation utilizes the atom-pairwise dispersion correction
with the zero-damping scheme (D30)


XCFun DFT library Copyright 2009-2010 Ulf Ekstrom and contributors.
See http://admol.org/xcfun for more information.
This is free software; see the source code for copying conditions.
There is ABSOLUTELY NO WARRANTY; not even for MERCHANTABILITY or FITNESS FOR A PARTICULAR PURPOSE.
For details see the documentation.
Scientific users of this library should cite U. Ekstrom, L. Visscher, R. Bast, A. J. Thorvaldsen and K. Ruud;
J.Chem.Theor.Comp. 2010, DOI: 10.1021/ct100117s
XCFun Version 0.99 

================================================================================

----- Orbital basis set information -----
Your calculation utilizes the basis: def2-TZVP
   F. Weigend and R. Ahlrichs, Phys. Chem. Chem. Phys. 7, 3297 (2005).

----- AuxJ basis set information -----
Your calculation utilizes the auxiliary basis: def2/J
   H-Rn: F. Weigend, Phys. Chem. Chem. Phys. 8, 1057 (2006).
   Fr-Lr: K. Eichkorn, F. Weigend, O. Treutler, R. Ahlrichs; Theor. Chem. Acc. 97, 119 (1997).

================================================================================
                                        WARNINGS
                       Please study these warnings very carefully!
================================================================================


WARNING: CIS/ROCIS methods need fully converged wavefunctions
  ===> : Setting SCFConvForced true
         You can overwrite this default with %scf ConvForced false 


================================================================================
                                       INPUT FILE
================================================================================
NAME = tddft.inp
|  1> %pal nprocs 8 end
|  2> %maxcore 3000
|  3> ! wB97X-D3 def2-TZVP def2/J RIJCOSX DefGrid3 TightSCF CPCM(Toluene)
|  4> %tddft
|  5>   nroots 30
|  6>   triplets false
|  7> end
|  8> * xyzfile 0 1 /home/jannes/mgtpp/01_opt/mgtpp_opt_b3lyp_tzvp.xyz
|  9> 
| 10>                          ****END OF INPUT****
================================================================================

                       ****************************
                       * Single Point Calculation *
                       ****************************

---------------------------------
CARTESIAN COORDINATES (ANGSTROEM)
---------------------------------
  N     -2.132782    2.520982    3.513584
  H      1.679617   -2.258823    3.910366
  C     -4.375479    3.011680    3.504687
  C     -0.398226   -1.579010    3.872638
  N      0.090830    0.653535    3.656021
  C      0.954286   -1.465385    3.843438
  H     -0.977688   -2.482435    3.962791
  C      2.868723    1.838465    3.504305
  N     -0.260569    4.732470    3.276338
  C     -1.123876    6.851501    3.089028
  C      2.556883    0.474350    3.636098
  C      2.680107    4.027385    3.292968
  N      1.962924    2.864942    3.418265
  C      4.089820    3.721502    3.302785
  C     -0.939102   -0.246509    3.759221
  C      1.259741   -0.062511    3.703416
  C     -2.850174    1.358051    3.633086
  C     -3.038341    3.548279    3.434420
  C     -4.259729    1.665028    3.631888
  C     -2.309465    0.065876    3.749063
  C     -2.726504    4.911917    3.298069
  C      4.205746    2.374704    3.428271
  C     -1.429470    5.448150    3.224446
  C      0.228548    6.964522    3.054127
  C      2.139518    5.319764    3.180041
  C      0.769411    5.632748    3.175667
  H     -5.283234    3.589919    3.462669
  H     -5.055915    0.944668    3.717118
  H      5.113506    1.796209    3.466048
  H      4.885916    4.442736    3.224054
  H      0.808093    7.867022    2.955342
  H     -1.849084    7.645562    3.028370
  Mg    -0.084919    2.692996    3.466091
  C      3.703495   -0.488201    3.711904
  C      4.101097   -1.215525    2.587737
  C      5.165592   -2.108030    2.657336
  C      5.849374   -2.288349    3.854678
  C      5.462233   -1.570166    4.980745
  C      4.398318   -0.677200    4.908689
  H      3.572273   -1.076734    1.652653
  H      5.461204   -2.660972    1.774105
  H      6.677910   -2.983489    3.909795
  H      5.987070   -1.705473    5.918549
  H      4.098897   -0.121111    5.788694
  C     -3.274743   -1.074068    3.873336
  C     -3.919889   -1.589806    2.746971
  C     -4.815224   -2.648008    2.861564
  C     -5.081050   -3.207004    4.106767
  C     -4.445489   -2.701389    5.235531
  C     -3.549452   -1.644091    5.118594
  H     -3.714517   -1.158773    1.774687
  H     -5.303562   -3.036316    1.976146
  H     -5.778536   -4.030491    4.196889
  H     -4.647956   -3.128218    6.210244
  H     -3.058018   -1.252160    6.000733
  C     -3.872844    5.874939    3.223553
  C     -4.310229    6.369574    1.992756
  C     -5.373793    7.263047    1.921894
  C     -6.016961    7.677520    3.083040
  C     -5.590067    7.192252    4.314284
  C     -4.527122    6.297837    4.382858
  H     -3.813083    6.048242    1.085609
  H     -5.700324    7.633616    0.957908
  H     -6.844813    8.373553    3.028823
  H     -6.083198    7.510781    5.224553
  H     -4.196875    5.923693    5.344245
  C      3.105171    6.459067    3.051802
  C      3.692305    6.761120    1.820939
  C      4.588737    7.817613    1.699925
  C      4.913564    8.589219    2.810246
  C      4.335714    8.297774    4.041028
  C      3.438490    7.241601    4.159639
  H      3.440981    6.163649    0.953078
  H      5.031793    8.038132    0.736437
  H      5.611836    9.411705    2.717096
  H      4.584023    8.891578    4.912210
  H      2.992103    7.017052    5.120716

----------------------------
CARTESIAN COORDINATES (A.U.)
----------------------------
  NO LB      ZA    FRAG     MASS         X           Y           Z
   0 N     7.0000    0    14.007   -4.030373    4.763966    6.639711
   1 H     1.0000    0     1.008    3.174016   -4.268557    7.389520
   2 C     6.0000    0    12.011   -8.268457    5.691251    6.622899
   3 C     6.0000    0    12.011   -0.752537   -2.983896    7.318226
   4 N     7.0000    0    14.007    0.171644    1.235003    6.908878
   5 C     6.0000    0    12.011    1.803339   -2.769176    7.263045
   6 H     1.0000    0     1.008   -1.847562   -4.691123    7.488589
   7 C     6.0000    0    12.011    5.421100    3.474195    6.622177
   8 N     7.0000    0    14.007   -0.492404    8.943073    6.191381
   9 C     6.0000    0    12.011   -2.123818   12.947460    5.837416
  10 C     6.0000    0    12.011    4.831809    0.896392    6.871230
  11 C     6.0000    0    12.011    5.064669    7.610655    6.222807
  12 N     7.0000    0    14.007    3.709389    5.413957    6.459585
  13 C     6.0000    0    12.011    7.728640    7.032619    6.241359
  14 C     6.0000    0    12.011   -1.774645   -0.465835    7.103898
  15 C     6.0000    0    12.011    2.380565   -0.118129    6.998441
  16 C     6.0000    0    12.011   -5.386048    2.566345    6.865537
  17 C     6.0000    0    12.011   -5.741633    6.705275    6.490113
  18 C     6.0000    0    12.011   -8.049721    3.146447    6.863274
  19 C     6.0000    0    12.011   -4.364257    0.124488    7.084702
  20 C     6.0000    0    12.011   -5.152345    9.282177    6.232447
  21 C     6.0000    0    12.011    7.947708    4.487541    6.478494
  22 C     6.0000    0    12.011   -2.701306   10.295511    6.093319
  23 C     6.0000    0    12.011    0.431893   13.161039    5.771463
  24 C     6.0000    0    12.011    4.043102   10.052896    6.009407
  25 C     6.0000    0    12.011    1.453976   10.644352    6.001141
  26 H     1.0000    0     1.008   -9.983866    6.783964    6.543496
  27 H     1.0000    0     1.008   -9.554295    1.785164    7.024335
  28 H     1.0000    0     1.008    9.663125    3.394342    6.549882
  29 H     1.0000    0     1.008    9.233044    8.395555    6.092579
  30 H     1.0000    0     1.008    1.527075   14.866517    5.584787
  31 H     1.0000    0     1.008   -3.494263   14.448018    5.722789
  32 Mg   12.0000    0    24.305   -0.160474    5.089025    6.549963
  33 C     6.0000    0    12.011    6.998591   -0.922565    7.014483
  34 C     6.0000    0    12.011    7.749950   -2.297008    4.890114
  35 C     6.0000    0    12.011    9.761555   -3.983599    5.021637
  36 C     6.0000    0    12.011   11.053714   -4.324353    7.284286
  37 C     6.0000    0    12.011   10.322124   -2.967184    9.412244
  38 C     6.0000    0    12.011    8.311617   -1.279722    9.276078
  39 H     1.0000    0     1.008    6.750618   -2.034732    3.123061
  40 H     1.0000    0     1.008   10.320181   -5.028509    3.352573
  41 H     1.0000    0     1.008   12.619421   -5.637977    7.388441
  42 H     1.0000    0     1.008   11.313922   -3.222877   11.184437
  43 H     1.0000    0     1.008    7.745793   -0.228867   10.939046
  44 C     6.0000    0    12.011   -6.188368   -2.029695    7.319544
  45 C     6.0000    0    12.011   -7.407517   -3.004298    5.191024
  46 C     6.0000    0    12.011   -9.099455   -5.004009    5.407573
  47 C     6.0000    0    12.011   -9.601794   -6.060359    7.760665
  48 C     6.0000    0    12.011   -8.400756   -5.104886    9.893719
  49 C     6.0000    0    12.011   -6.707493   -3.106883    9.672741
  50 H     1.0000    0     1.008   -7.019420   -2.189764    3.353672
  51 H     1.0000    0     1.008  -10.022280   -5.737807    3.734374
  52 H     1.0000    0     1.008  -10.919851   -7.616524    7.930970
  53 H     1.0000    0     1.008   -8.783365   -5.911476   11.735661
  54 H     1.0000    0     1.008   -5.778817   -2.366239   11.339742
  55 C     6.0000    0    12.011   -7.318615   11.102027    6.091633
  56 C     6.0000    0    12.011   -8.145153   12.036751    3.765764
  57 C     6.0000    0    12.011  -10.154997   13.725171    3.631853
  58 C     6.0000    0    12.011  -11.370408   14.508411    5.826101
  59 C     6.0000    0    12.011  -10.563696   13.591387    8.152815
  60 C     6.0000    0    12.011   -8.555020   11.901188    8.282401
  61 H     1.0000    0     1.008   -7.205683   11.429521    2.051503
  62 H     1.0000    0     1.008  -10.772052   14.425444    1.810183
  63 H     1.0000    0     1.008  -12.934822   15.823721    5.723646
  64 H     1.0000    0     1.008  -11.495578   14.193319    9.872973
  65 H     1.0000    0     1.008   -7.930944   11.194158   10.099160
  66 C     6.0000    0    12.011    5.867923   12.205869    5.767071
  67 C     6.0000    0    12.011    6.977445   12.776665    3.441075
  68 C     6.0000    0    12.011    8.671457   14.773148    3.212392
  69 C     6.0000    0    12.011    9.285290   16.231272    5.310596
  70 C     6.0000    0    12.011    8.193312   15.680520    7.636437
  71 C     6.0000    0    12.011    6.497804   13.684643    7.860578
  72 H     1.0000    0     1.008    6.502511   11.647608    1.801056
  73 H     1.0000    0     1.008    9.508710   15.189868    1.391664
  74 H     1.0000    0     1.008   10.604834   17.785546    5.134567
  75 H     1.0000    0     1.008    8.662547   16.802648    9.282732
  76 H     1.0000    0     1.008    5.654254   13.260307    9.676751

--------------------------------
INTERNAL COORDINATES (ANGSTROEM)
--------------------------------
 N      0   0   0     0.000000000000     0.00000000     0.00000000
 H      1   0   0     6.126855329357     0.00000000     0.00000000
 C      1   2   0     2.295769133195   140.79213807     0.00000000
 C      2   1   3     2.186549708108    33.38660231     0.36505468
 N      4   2   1     2.295725821932    95.82788655     0.09095297
 C      2   1   3     1.077092693640     3.85150056     2.09162491
 H      4   2   1     1.077070819340   104.41978534   179.96288643
 C      5   4   2     3.023865266525   125.55676336     0.11166825
 N      1   2   6     2.907257362329   101.42052387   181.91422582
 C      9   1   2     2.295795178635   117.81429197   180.02242555
 C      8   5   4     1.405496899374    53.92458718     0.03779823
 C      8   5   4     2.207172589612   108.35589016   179.76307688
 N     12   8   5     1.371613516291    36.43262200     0.17329619
 C     12   8   5     1.442550076138    72.87533357   180.07415276
 C      5   4   2     1.371674426107    36.37427985   180.37251744
 C      5   4   2     1.371612574923    70.76800154     0.23219254
 C      1   2   6     1.371619575259    70.02341670     1.85612268
 C      1   2   6     1.371730087584   177.15630369     5.97587101
 C      3   1   2     1.357589890726    72.80216719   359.95304185
 C     17   1   2     1.405536565970   125.83487943     0.09366032
 C     18   1  17     1.405469067731   125.85546027   180.26559898
 C     14  12   8     1.357589360726   107.12361011     0.19983052
 C      9   1   2     1.371575077204    81.44175047   179.94495588
 C     10   9   1     1.357587276934    72.80232389   180.16933284
 C     12   8   5     1.405429467262   162.27344014     0.83813114
 C      9   1   2     1.371675707321   171.41952863     0.03824775
 H      3   1   2     1.077100496928   159.74999488   180.25953249
 H     19   3   1     1.077077338377   127.43130158   179.82791890
 H     22  14  12     1.077084983978   127.44744025   179.69739367
 H     14  12   8     1.077101086105   125.43663657   180.20366353
 H     24  10   9     1.077096534207   127.45443232   179.85753388
 H     10   9   1     1.077097541933   159.75828880     0.53310854
 Mg    13  12   8     2.055606050552   126.43550651   180.06019481
 C     11   8   5     1.498989282988   117.27452497   180.13304197
 C     34  11   8     1.396724581542   120.75894288   260.01689972
 C     35  34  11     1.390884488100   120.77967458   179.95157356
 C     36  35  34     1.390575596770   120.17416869     0.06383067
 C     37  36  35     1.390572269206   119.56359354   359.96393605
 C     38  37  36     1.390861247794   120.17158367   359.97314775
 H     35  34  11     1.083189366330   119.28215266     0.12320002
 H     36  35  34     1.083156650446   119.71220349   180.18132819
 H     37  36  35     1.082926322306   120.21696134   179.96439740
 H     38  37  36     1.083161349761   120.11258722   179.85120178
 H     39  38  37     1.083188138256   119.93128689   179.88961748
 C     20  17   1     1.498892464170   117.27635023   179.83555470
 C     45  20  17     1.396744746557   120.75805895    79.50356453
 C     46  45  20     1.390880167394   120.78473073   179.96907332
 C     47  46  45     1.390564385753   120.17705909     0.07442139
 C     48  47  46     1.390572934770   119.56006095   359.97047586
 C     49  48  47     1.390839370010   120.17276971   359.96185086
 H     46  45  20     1.083191573814   119.29758564     0.15759396
 H     47  46  45     1.083154294075   119.71071430   180.18273845
 H     48  47  46     1.082930826873   120.22050345   179.95838139
 H     49  48  47     1.083163400019   120.11519157   179.83114167
 H     50  49  48     1.083183905041   119.92580323   179.88660474
 C     21  18   1     1.499020289368   117.28798408   179.72398695
 C     56  21  18     1.396721410460   120.71653922   260.55104232
 C     57  56  21     1.390856932927   120.78737548   179.99292393
 C     58  57  56     1.390579796248   120.17255169     0.05877075
 C     59  58  57     1.390570153966   119.55994938   359.96611660
 C     60  59  58     1.390875025766   120.17707541   359.97196552
 H     57  56  21     1.083201529200   119.28811259     0.14261226
 H     58  57  56     1.083149767515   119.71220131   180.16232012
 H     59  58  57     1.082931272380   120.22123367   179.96845591
 H     60  59  58     1.083156416554   120.11314103   179.86695053
 H     61  60  59     1.083195532775   119.92563663   179.89758366
 C     25  12   8     1.498981196444   117.25803690   179.52387829
 C     67  25  12     1.396777768498   120.69986376    80.52329734
 C     68  67  25     1.390831652439   120.78822075   180.01410426
 C     69  68  67     1.390576172584   120.17081329     0.05908974
 C     70  69  68     1.390566770699   119.56087131   359.96273928
 C     71  70  69     1.390892103912   120.17793429   359.97535578
 H     68  67  25     1.083198152583   119.28960554     0.16639622
 H     69  68  67     1.083159804820   119.71470417   180.16298856
 H     70  69  68     1.082933302780   120.22323348   179.96819721
 H     71  70  69     1.083152161424   120.11387427   179.86380867
 H     72  71  70     1.083214366481   119.92750176   179.89120147

---------------------------
INTERNAL COORDINATES (A.U.)
---------------------------
 N      0   0   0     0.000000000000     0.00000000     0.00000000
 H      1   0   0    11.578078634640     0.00000000     0.00000000
 C      1   2   0     4.338374928449   140.79213807     0.00000000
 C      2   1   3     4.131980126529    33.38660231     0.36505468
 N      4   2   1     4.338293082022    95.82788655     0.09095297
 C      2   1   3     2.035410211826     3.85150056     2.09162491
 H      4   2   1     2.035368875391   104.41978534   179.96288643
 C      5   4   2     5.714277219608   125.55676336     0.11166825
 N      1   2   6     5.493920215627   101.42052387   181.91422582
 C      9   1   2     4.338424147198   117.81429197   180.02242555
 C      8   5   4     2.656004221892    53.92458718     0.03779823
 C      8   5   4     4.170951724664   108.35589016   179.76307688
 N     12   8   5     2.591973907374    36.43262200     0.17329619
 C     12   8   5     2.726024578368    72.87533357   180.07415276
 C      5   4   2     2.592089010246    36.37427985   180.37251744
 C      5   4   2     2.591972128447    70.76800154     0.23219254
 C      1   2   6     2.591985357166    70.02341670     1.85612268
 C      1   2   6     2.592194195193   177.15630369     5.97587101
 C      3   1   2     2.565473095651    72.80216719   359.95304185
 C     17   1   2     2.656079180895   125.83487943     0.09366032
 C     18   1  17     2.655951627710   125.85546027   180.26559898
 C     14  12   8     2.565472094097   107.12361011     0.19983052
 C      9   1   2     2.591901268027    81.44175047   179.94495588
 C     10   9   1     2.565468156301    72.80232389   180.16933284
 C     12   8   5     2.655876793668   162.27344014     0.83813114
 C      9   1   2     2.592091431390   171.41952863     0.03824775
 H      3   1   2     2.035424957904   159.74999488   180.25953249
 H     19   3   1     2.035381194584   127.43130158   179.82791890
 H     22  14  12     2.035395642677   127.44744025   179.69739367
 H     14  12   8     2.035426071288   125.43663657   180.20366353
 H     24  10   9     2.035417469446   127.45443232   179.85753388
 H     10   9   1     2.035419373773   159.75828880     0.53310854
 Mg    13  12   8     3.884532474774   126.43550651   180.06019481
 C     11   8   5     2.832679222530   117.27452497   180.13304197
 C     34  11   8     2.639426943631   120.75894288   260.01689972
 C     35  34  11     2.628390766428   120.77967458   179.95157356
 C     36  35  34     2.627807046409   120.17416869     0.06383067
 C     37  36  35     2.627800758224   119.56359354   359.96393605
 C     38  37  36     2.628346848615   120.17158367   359.97314775
 H     35  34  11     2.046931253539   119.28215266     0.12320002
 H     36  35  34     2.046869429478   119.71220349   180.18132819
 H     37  36  35     2.046434172373   120.21696134   179.96439740
 H     38  37  36     2.046878309898   120.11258722   179.85120178
 H     39  38  37     2.046928932815   119.93128689   179.88961748
 C     20  17   1     2.832496261479   117.27635023   179.83555470
 C     45  20  17     2.639465049985   120.75805895    79.50356453
 C     46  45  20     2.628382601477   120.78473073   179.96907332
 C     47  46  45     2.627785860657   120.17705909     0.07442139
 C     48  47  46     2.627802015959   119.56006095   359.97047586
 C     49  48  47     2.628305505594   120.17276971   359.96185086
 H     46  45  20     2.046935425080   119.29758564     0.15759396
 H     47  46  45     2.046864976583   119.71071430   180.18273845
 H     48  47  46     2.046442684772   120.22050345   179.95838139
 H     49  48  47     2.046882184323   120.11519157   179.83114167
 H     50  49  48     2.046920933199   119.92580323   179.88660474
 C     21  18   1     2.832737816097   117.28798408   179.72398695
 C     56  21  18     2.639420951153   120.71653922   260.55104232
 C     57  56  21     2.628338694698   120.78737548   179.99292393
 C     58  57  56     2.627814982273   120.17255169     0.05877075
 C     59  58  57     2.627796761001   119.55994938   359.96611660
 C     60  59  58     2.628372885207   120.17707541   359.97196552
 H     57  56  21     2.046954238033   119.28811259     0.14261226
 H     58  57  56     2.046856422624   119.71220131   180.16232012
 H     59  58  57     2.046443526657   120.22123367   179.96845591
 H     60  59  58     2.046868987487   120.11314103   179.86695053
 H     61  60  59     2.046942906433   119.92563663   179.89758366
 C     25  12   8     2.832663941177   117.25803690   179.52387829
 C     67  25  12     2.639527452411   120.69986376    80.52329734
 C     68  67  25     2.628290921499   120.78822075   180.01410426
 C     69  68  67     2.627808134540   120.17081329     0.05908974
 C     70  69  68     2.627790367553   119.56087131   359.96273928
 C     71  70  69     2.628405158227   120.17793429   359.97535578
 H     68  67  25     2.046947857152   119.28960554     0.16639622
 H     69  68  67     2.046875390382   119.71470417   180.16298856
 H     70  69  68     2.046447363557   120.22323348   179.96819721
 H     71  70  69     2.046860946455   120.11387427   179.86380867
 H     72  71  70     2.046978496977   119.92750176   179.89120147

---------------------
BASIS SET INFORMATION
---------------------
There are 4 groups of distinct atoms

 Group   1 Type N   : 11s6p2d1f contracted to 5s3p2d1f pattern {62111/411/11/1}
 Group   2 Type H   : 5s1p contracted to 3s1p pattern {311/1}
 Group   3 Type C   : 11s6p2d1f contracted to 5s3p2d1f pattern {62111/411/11/1}
 Group   4 Type Mg  : 14s8p3d contracted to 5s4p3d pattern {73211/5111/111}

Atom   0N    basis set group =>   1
Atom   1H    basis set group =>   2
Atom   2C    basis set group =>   3
Atom   3C    basis set group =>   3
Atom   4N    basis set group =>   1
Atom   5C    basis set group =>   3
Atom   6H    basis set group =>   2
Atom   7C    basis set group =>   3
Atom   8N    basis set group =>   1
Atom   9C    basis set group =>   3
Atom  10C    basis set group =>   3
Atom  11C    basis set group =>   3
Atom  12N    basis set group =>   1
Atom  13C    basis set group =>   3
Atom  14C    basis set group =>   3
Atom  15C    basis set group =>   3
Atom  16C    basis set group =>   3
Atom  17C    basis set group =>   3
Atom  18C    basis set group =>   3
Atom  19C    basis set group =>   3
Atom  20C    basis set group =>   3
Atom  21C    basis set group =>   3
Atom  22C    basis set group =>   3
Atom  23C    basis set group =>   3
Atom  24C    basis set group =>   3
Atom  25C    basis set group =>   3
Atom  26H    basis set group =>   2
Atom  27H    basis set group =>   2
Atom  28H    basis set group =>   2
Atom  29H    basis set group =>   2
Atom  30H    basis set group =>   2
Atom  31H    basis set group =>   2
Atom  32Mg   basis set group =>   4
Atom  33C    basis set group =>   3
Atom  34C    basis set group =>   3
Atom  35C    basis set group =>   3
Atom  36C    basis set group =>   3
Atom  37C    basis set group =>   3
Atom  38C    basis set group =>   3
Atom  39H    basis set group =>   2
Atom  40H    basis set group =>   2
Atom  41H    basis set group =>   2
Atom  42H    basis set group =>   2
Atom  43H    basis set group =>   2
Atom  44C    basis set group =>   3
Atom  45C    basis set group =>   3
Atom  46C    basis set group =>   3
Atom  47C    basis set group =>   3
Atom  48C    basis set group =>   3
Atom  49C    basis set group =>   3
Atom  50H    basis set group =>   2
Atom  51H    basis set group =>   2
Atom  52H    basis set group =>   2
Atom  53H    basis set group =>   2
Atom  54H    basis set group =>   2
Atom  55C    basis set group =>   3
Atom  56C    basis set group =>   3
Atom  57C    basis set group =>   3
Atom  58C    basis set group =>   3
Atom  59C    basis set group =>   3
Atom  60C    basis set group =>   3
Atom  61H    basis set group =>   2
Atom  62H    basis set group =>   2
Atom  63H    basis set group =>   2
Atom  64H    basis set group =>   2
Atom  65H    basis set group =>   2
Atom  66C    basis set group =>   3
Atom  67C    basis set group =>   3
Atom  68C    basis set group =>   3
Atom  69C    basis set group =>   3
Atom  70C    basis set group =>   3
Atom  71C    basis set group =>   3
Atom  72H    basis set group =>   2
Atom  73H    basis set group =>   2
Atom  74H    basis set group =>   2
Atom  75H    basis set group =>   2
Atom  76H    basis set group =>   2
---------------------------------
AUXILIARY/J BASIS SET INFORMATION
---------------------------------
There are 4 groups of distinct atoms

 Group   1 Type N   : 12s5p4d2f1g contracted to 6s4p3d1f1g pattern {711111/2111/211/2/1}
 Group   2 Type H   : 5s2p1d contracted to 3s1p1d pattern {311/2/1}
 Group   3 Type C   : 12s5p4d2f1g contracted to 6s4p3d1f1g pattern {711111/2111/211/2/1}
 Group   4 Type Mg  : 14s5p5d2f1g contracted to 8s4p4d1f1g pattern {71111111/2111/2111/2/1}

Atom   0N    basis set group =>   1
Atom   1H    basis set group =>   2
Atom   2C    basis set group =>   3
Atom   3C    basis set group =>   3
Atom   4N    basis set group =>   1
Atom   5C    basis set group =>   3
Atom   6H    basis set group =>   2
Atom   7C    basis set group =>   3
Atom   8N    basis set group =>   1
Atom   9C    basis set group =>   3
Atom  10C    basis set group =>   3
Atom  11C    basis set group =>   3
Atom  12N    basis set group =>   1
Atom  13C    basis set group =>   3
Atom  14C    basis set group =>   3
Atom  15C    basis set group =>   3
Atom  16C    basis set group =>   3
Atom  17C    basis set group =>   3
Atom  18C    basis set group =>   3
Atom  19C    basis set group =>   3
Atom  20C    basis set group =>   3
Atom  21C    basis set group =>   3
Atom  22C    basis set group =>   3
Atom  23C    basis set group =>   3
Atom  24C    basis set group =>   3
Atom  25C    basis set group =>   3
Atom  26H    basis set group =>   2
Atom  27H    basis set group =>   2
Atom  28H    basis set group =>   2
Atom  29H    basis set group =>   2
Atom  30H    basis set group =>   2
Atom  31H    basis set group =>   2
Atom  32Mg   basis set group =>   4
Atom  33C    basis set group =>   3
Atom  34C    basis set group =>   3
Atom  35C    basis set group =>   3
Atom  36C    basis set group =>   3
Atom  37C    basis set group =>   3
Atom  38C    basis set group =>   3
Atom  39H    basis set group =>   2
Atom  40H    basis set group =>   2
Atom  41H    basis set group =>   2
Atom  42H    basis set group =>   2
Atom  43H    basis set group =>   2
Atom  44C    basis set group =>   3
Atom  45C    basis set group =>   3
Atom  46C    basis set group =>   3
Atom  47C    basis set group =>   3
Atom  48C    basis set group =>   3
Atom  49C    basis set group =>   3
Atom  50H    basis set group =>   2
Atom  51H    basis set group =>   2
Atom  52H    basis set group =>   2
Atom  53H    basis set group =>   2
Atom  54H    basis set group =>   2
Atom  55C    basis set group =>   3
Atom  56C    basis set group =>   3
Atom  57C    basis set group =>   3
Atom  58C    basis set group =>   3
Atom  59C    basis set group =>   3
Atom  60C    basis set group =>   3
Atom  61H    basis set group =>   2
Atom  62H    basis set group =>   2
Atom  63H    basis set group =>   2
Atom  64H    basis set group =>   2
Atom  65H    basis set group =>   2
Atom  66C    basis set group =>   3
Atom  67C    basis set group =>   3
Atom  68C    basis set group =>   3
Atom  69C    basis set group =>   3
Atom  70C    basis set group =>   3
Atom  71C    basis set group =>   3
Atom  72H    basis set group =>   2
Atom  73H    basis set group =>   2
Atom  74H    basis set group =>   2
Atom  75H    basis set group =>   2
Atom  76H    basis set group =>   2


           ************************************************************
           *        Program running with 8 parallel MPI-processes     *
           *              working on a common directory               *
           ************************************************************
------------------------------------------------------------------------------
                             ORCA STARTUP CALCULATIONS
                           -- RI-GTO INTEGRALS CHOSEN --
------------------------------------------------------------------------------
------------------------------------------------------------------------------
                   ___                                                        
                  /   \      - P O W E R E D   B Y -                         
                 /     \                                                     
                 |  |  |   _    _      __       _____    __    __             
                 |  |  |  | |  | |    /  \     |  _  \  |  |  /  |          
                  \  \/   | |  | |   /    \    | | | |  |  | /  /          
                 / \  \   | |__| |  /  /\  \   | |_| |  |  |/  /          
                |  |  |   |  __  | /  /__\  \  |    /   |      \           
                |  |  |   | |  | | |   __   |  |    \   |  |\   \          
                \     /   | |  | | |  |  |  |  | |\  \  |  | \   \       
                 \___/    |_|  |_| |__|  |__|  |_| \__\ |__|  \__/        
                                                                              
                      - O R C A' S   B I G   F R I E N D -                    
                                      &                                       
                       - I N T E G R A L  F E E D E R -                       
                                                                              
 v1 FN, 2020, v2 2021, v3 2022-2024                                           
------------------------------------------------------------------------------


----------------------
SHARK INTEGRAL PACKAGE
----------------------

Number of atoms                             ...     77
Number of basis functions                   ...   1688
Number of shells                            ...    652
Maximum angular momentum                    ...      3
Integral batch strategy                     ... SHARK/LIBINT Hybrid
RI-J (if used) integral strategy            ... SPLIT-RIJ (Revised 2003 algorithm where possible)
Printlevel                                  ...      1
Contraction scheme used                     ... SEGMENTED contraction
Prescreening option                         ... SCHWARTZ
   Thresh                                   ... 2.500e-11
   Tcut                                     ... 2.500e-12
   Tpresel                                  ... 2.500e-12 
Coulomb Range Separation                    ... NOT USED
Exchange Range Separation                   ... Long Range
   Mu parameter                             ... 2.500e-01
   Scaling (regular/separated)              ... 1.957e-01 8.043e-01
Robust (split-)RI terms used:
  metric    (central integrals)             ... YES
  density   (r.h.s.  integrals)             ... YES
  potential (l.h.s.  integrals)             ... YES
Multipole approximations                    ... NOT USED
Finite Nucleus Model                        ... NOT USED
CABS basis                                  ... NOT available
Auxiliary Coulomb fitting basis             ... AVAILABLE
   # of basis functions in Aux-J            ...   2716
   # of shells in Aux-J                     ...    878
   Maximum angular momentum in Aux-J        ...      4
Auxiliary J/K fitting basis                 ... NOT available
Auxiliary Correlation fitting basis         ... NOT available
Auxiliary 'external' fitting basis          ... NOT available

Checking pre-screening integrals            ... done (  0.0 sec) Dimension = 652
   => SHARK Basis and OBASIS are compatible. Storing Pre-screening
Shell pair information
Shell pair cut-off parameter TPreSel        ...   2.5e-12
Total number of shell pairs                 ...    212878
Shell pairs after pre-screening             ...    103183
Total number of primitive shell pairs       ...    666456
Primitive shell pairs kept                  ...    198892
          la=0 lb=0:  24577 shell pairs
          la=1 lb=0:  30403 shell pairs
          la=1 lb=1:   9285 shell pairs
          la=2 lb=0:  14681 shell pairs
          la=2 lb=1:   9224 shell pairs
          la=2 lb=2:   2210 shell pairs
          la=3 lb=0:   6441 shell pairs
          la=3 lb=1:   4108 shell pairs
          la=3 lb=2:   1824 shell pairs
          la=3 lb=3:    430 shell pairs

Checking whether 4 symmetric matrices of dimension 1688 fit in memory
:Max Core in MB      =   3000.00
 MB in use           =    125.94
 MB left             =   2874.06
 MB needed           =     43.50
 Data fit in memory  = YES
Calculating RI/J V-Matrix + Cholesky decomp.... done (  0.7 sec)
Calculating Nuclear repulsion               ... done (  0.0 sec) ENN=   5749.715742335587 Eh

Diagonalization of the overlap matrix:
Smallest eigenvalue                        ... 2.991e-06
Time for diagonalization                   ...    0.720 sec
Threshold for overlap eigenvalues          ... 1.000e-07
Number of eigenvalues below threshold      ... 0
Time for construction of square roots      ...    2.631 sec
Total time needed                          ...    3.412 sec

-------------------
DFT GRID GENERATION
-------------------

General Integration Accuracy     IntAcc      ... 4.959
Radial Grid Type                 RadialGrid  ... OptM3 with GC (2021)
Angular Grid (max. ang.)         AngularGrid ... 6 (Lebedev-590)
Angular grid pruning method      GridPruning ... 4 (adaptive)
Weight generation scheme         WeightScheme... mBecke (2022)
Basis function cutoff            BFCut       ... 1.0000e-11
Integration weight cutoff        WCut        ... 1.0000e-14
Partially contracted basis set               ... off
Rotationally invariant grid construction     ... off
Angular grids for H and He will be reduced by one unit

Total number of grid points                  ...   926618
Total number of batches                      ...    14522
Average number of points per batch           ...       63
Average number of grid points per atom       ...    12034

--------------------
COSX GRID GENERATION
--------------------

GRIDX 1
-------
General Integration Accuracy     IntAcc      ... 4.020
Radial Grid Type                 RadialGrid  ... OptM3 with GC (2021)
Angular Grid (max. ang.)         AngularGrid ... 2 (Lebedev-110)
Angular grid pruning method      GridPruning ... 4 (adaptive)
Weight generation scheme         WeightScheme... mBecke (2022)
Basis function cutoff            BFCut       ... 1.0000e-11
Integration weight cutoff        WCut        ... 1.0000e-14
Partially contracted basis set               ... on
Rotationally invariant grid construction     ... off
Angular grids for H and He will be reduced by one unit

Total number of grid points                  ...   104925
Total number of batches                      ...      870
Average number of points per batch           ...      120
Average number of grid points per atom       ...     1363
UseSFitting                                  ... on

GRIDX 2
-------
General Integration Accuracy     IntAcc      ... 4.338
Radial Grid Type                 RadialGrid  ... OptM3 with GC (2021)
Angular Grid (max. ang.)         AngularGrid ... 3 (Lebedev-194)
Angular grid pruning method      GridPruning ... 4 (adaptive)
Weight generation scheme         WeightScheme... mBecke (2022)
Basis function cutoff            BFCut       ... 1.0000e-11
Integration weight cutoff        WCut        ... 1.0000e-14
Partially contracted basis set               ... on
Rotationally invariant grid construction     ... off
Angular grids for H and He will be reduced by one unit

Total number of grid points                  ...   229479
Total number of batches                      ...     1830
Average number of points per batch           ...      125
Average number of grid points per atom       ...     2980
UseSFitting                                  ... on

GRIDX 3
-------
General Integration Accuracy     IntAcc      ... 4.871
Radial Grid Type                 RadialGrid  ... OptM3 with GC (2021)
Angular Grid (max. ang.)         AngularGrid ... 4 (Lebedev-302)
Angular grid pruning method      GridPruning ... 4 (adaptive)
Weight generation scheme         WeightScheme... mBecke (2022)
Basis function cutoff            BFCut       ... 1.0000e-11
Integration weight cutoff        WCut        ... 1.0000e-14
Partially contracted basis set               ... on
Rotationally invariant grid construction     ... off
Angular grids for H and He will be reduced by one unit

Total number of grid points                  ...   421309
Total number of batches                      ...     3327
Average number of points per batch           ...      126
Average number of grid points per atom       ...     5472
UseSFitting                                  ... on
Grids setup in  57.2 sec
Initializing property integral containers    ... done (  0.0 sec)

SHARK setup successfully completed in  68.4 seconds

Maximum memory used throughout the entire STARTUP-calculation: 301.1 MB


           ************************************************************
           *        Program running with 8 parallel MPI-processes     *
           *              working on a common directory               *
           ************************************************************
-------------------------------------------------------------------------------
                                 ORCA GUESS
                   Start orbitals & Density for SCF / CASSCF
-------------------------------------------------------------------------------

------------
SCF SETTINGS
------------
Hamiltonian:
 Density Functional     Method          .... DFT(GTOs)
 Exchange Functional    Exchange        .... WB97X-D3
 Correlation Functional Correlation     .... WB97X-D3
 Gradients option       PostSCFGGA      .... off
 Hybrid DFT is turned on
   Fraction HF Exchange ScalHFX         ....  0.195728
   Scaling of DF-GGA-X  ScalDFX         ....  0.000000
   Scaling of DF-GGA-C  ScalDFC         ....  1.000000
   Scaling of DF-LDA-C  ScalLDAC        ....  1.000000
   Perturbative correction              ....  0.000000
 Long-range corrected/Screened/Range-Separated Hybrid DFT is turned on
   Amount of maximum screened exact exchange              ....  0.804272
   Range separation parameter mu (erf(mu*r12)/r12)        ....  0.250000
 RI-approximation to the Coulomb term is turned on
   Number of AuxJ basis functions       .... 2716
   RIJ-COSX (HFX calculated with COS-X)).... on


General Settings:
 Integral files         IntName         .... tddft
 Hartree-Fock type      HFTyp           .... RHF
 Total Charge           Charge          ....    0
 Multiplicity           Mult            ....    1
 Number of Electrons    NEL             ....  332
 Basis Dimension        Dim             .... 1688
 Nuclear Repulsion      ENuc            ....   5749.7157423356 Eh

Convergence Acceleration:
 AO-DIIS                CNVDIIS         .... on
   Start iteration      DIISMaxIt       ....    12
   Startup error        DIISStart       ....  0.200000
   # of expansion vecs  DIISMaxEq       ....     5
   Bias factor          DIISBfac        ....   1.050
   Max. coefficient     DIISMaxC        ....  10.000
 MO-DIIS                CNVKDIIS        .... off
 Trust-Rad. Augm. Hess. CNVTRAH         .... auto
   Auto Start mean grad. ratio tolernc. ....  1.125000
   Auto Start start iteration           ....    50
   Auto Start num. interpolation iter.  ....    10
   Max. Number of Micro iterations      ....    24
   Max. Number of Macro iterations      .... Maxiter - #DIIS iter
   Number of Davidson start vectors     ....     2
   Converg. threshold    (grad. norm)   ....   1.000e-05
   Grad. Scal. Fac. for Micro threshold ....   0.100
   Minimum threshold for Micro iter.    ....   1.000e-02
   NR start threshold (gradient norm)   ....   1.000e-04
   Initial trust radius                 ....   0.400
   Minimum AH scaling param. (alpha)    ....   1.000
   Maximum AH scaling param. (alpha)    .... 1000.000
   Quad. conv. algorithm                .... NR
   White noise on init. David. guess    .... on
   Maximum white noise                  ....   0.010
   Pseudo random numbers                .... off
   Inactive MOs                         .... canonical
   Orbital update algorithm             .... Taylor
   Preconditioner                       .... Diag
   Full preconditioner red. dimension   ....   250
 SOSCF                 CNVSOSCF           .... on
   Start iteration     SOSCFMaxIt         ....   150
   Startup grad/error  SOSCFStart         ....  0.003300
   Hessian update      SOSCFHessUp        .... L-BFGS
   Autom. constraints  SOSCFAutoConstrain .... off
 Level Shifting         CNVShift        .... on
   Level shift para.    LevelShift      ....    0.2500
   Turn off err/grad.   ShiftErr        ....    0.0010
 Zerner damping         CNVZerner       .... off
 Static damping         CNVDamp         .... on
   Fraction old density DampFac         ....    0.7000
   Max. Damping (<1)    DampMax         ....    0.9800
   Min. Damping (>=0)   DampMin         ....    0.0000
   Turn off err/grad.   DampErr         ....    0.1000

SCF Procedure:
 Maximum # iterations   MaxIter         ....   125
 SCF integral mode      SCFMode         .... Direct
   Integral package                     .... SHARK and LIBINT hybrid scheme
 Reset frequency        DirectResetFreq ....    20
 Integral Threshold     Thresh          ....  2.500e-11 Eh
 Primitive CutOff       TCut            ....  2.500e-12 Eh

Convergence Tolerance:
 Convergence Check Mode ConvCheckMode   .... Total+1el-Energy
 Convergence forced     ConvForced      .... 1
 Energy Change          TolE            ....  1.000e-08 Eh
 1-El. energy change                    ....  1.000e-05 Eh
 Orbital Gradient       TolG            ....  1.000e-05
 Orbital Rotation angle TolX            ....  1.000e-05
 DIIS Error             TolErr          ....  5.000e-07

------------------------------
INITIAL GUESS: MODEL POTENTIAL
------------------------------
Loading Hartree-Fock densities                     ... done
Calculating cut-offs                               ... done
Initializing the effective Hamiltonian             ... done
Setting up the integral package (SHARK)            ... done
Starting the Coulomb interaction                   ... done (   7.7 sec)
Making the grid                                    ... done (   2.3 sec)
Mapping shells                                     ... done
Starting the XC term evaluation                    ... done (   2.7 sec)
  promolecular density results
     # of electrons  =    331.986215612
     EX              =   -275.603230785
     EC              =    -11.222706759
     EX+EC           =   -286.825937544
Transforming the Hamiltonian                       ... done (   1.3 sec)
Diagonalizing the Hamiltonian                      ... done (   4.4 sec)
Back transforming the eigenvectors                 ... done (   1.4 sec)
Now organizing SCF variables                       ... done
                      ------------------
                      INITIAL GUESS DONE (  20.5 sec)
                      ------------------
             **** ENERGY FILE WAS UPDATED (tddft.en.tmp) ****
Finished Guess after  25.2 sec
Maximum memory used throughout the entire GUESS-calculation: 204.1 MB


           ************************************************************
           *        Program running with 8 parallel MPI-processes     *
           *              working on a common directory               *
           ************************************************************

-------------------------------------------------------------------------------------------
                                      ORCA LEAN-SCF
                              memory conserving SCF solver
-------------------------------------------------------------------------------------------

--------------------
CPCM SOLVATION MODEL
--------------------
CPCM parameters:
  Epsilon                                         ...       2.3870
  Refrac                                          ...       1.4961
  Rsolv                                           ...       1.3000
  Surface type                                    ... GAUSSIAN VDW
  Discretization scheme                           ... Constant charge density
    Threshold for H atoms                         ...       5.0000 (charges/Ang^2)
    Threshold for non-H atoms                     ...       5.0000 (charges/Ang^2)
  Epsilon function type                           ...         CPCM
Solvent:                                          ... TOLUENE
Radii:
  Scheme                                          ... Element-dependent radii
  Radius for N  used is    3.5149 Bohr (=   1.8600 Ang.)
  Radius for H  used is    2.4944 Bohr (=   1.3200 Ang.)
  Radius for C  used is    3.8550 Bohr (=   2.0400 Ang.)
  Radius for Mg used is    3.9231 Bohr (=   2.0760 Ang.)
Calculating surface                               ...        done! (  0.1s)
Cavity surface points                             ...         6820
Cavity Volume                                     ...    4949.3392
Cavity Surface-area                               ...    2291.9203
Calculating surface distance matrix               ...        done! (  5.6s)
Performing Cholesky decomposition & store         ...        done! (  9.3s)
Overall time for CPCM initialization              ...                15.0s

----------------------------------------D-I-I-S--------------------------------------------
Iteration    Energy (Eh)           Delta-E    RMSDP     MaxDP     DIISErr   Damp  Time(sec)
-------------------------------------------------------------------------------------------
               ***  Starting incremental Fock matrix formation  ***
    1    -2111.9089404322012342     0.00e+00  1.86e-03  7.01e-02  2.12e-01  0.700 518.7
    2    -2112.2741605163946588    -3.65e-01  1.49e-03  5.25e-02  1.17e-01  0.700 226.3
                               ***Turning on AO-DIIS***
    3    -2112.4719955361542816    -1.98e-01  9.98e-04  2.94e-02  5.47e-02  0.700 238.8
    4    -2112.5921096201782348    -1.20e-01  2.30e-03  5.83e-02  3.93e-02  0.000 202.0
    5    -2112.8503801398510404    -2.58e-01  3.16e-04  7.81e-03  3.97e-03  0.000 215.8
                              *** Initializing SOSCF ***
---------------------------------------S-O-S-C-F--------------------------------------
Iteration    Energy (Eh)           Delta-E    RMSDP     MaxDP     MaxGrad    Time(sec)
--------------------------------------------------------------------------------------
    6    -2112.8510197798896115    -6.40e-04  1.28e-04  2.94e-03  2.23e-03   223.0
               *** Restarting incremental Fock matrix formation ***
    7    -2112.8511320655770760    -1.12e-04  1.70e-04  2.62e-03  6.87e-04   517.7
    8    -2112.8511644996051473    -3.24e-05  9.99e-05  1.82e-03  4.04e-04   392.3
    9    -2112.8511693044692947    -4.80e-06  6.65e-05  1.03e-03  2.19e-04   354.6
   10    -2112.8511730516329408    -3.75e-06  1.50e-05  6.84e-04  1.83e-05   314.8
   11    -2112.8511729410838598     1.11e-07  1.60e-05  5.60e-04  1.74e-05   266.9
   12    -2112.8511729199799447     2.11e-08  2.33e-05  7.16e-04  3.84e-06   238.2
   13    -2112.8511728505836800     6.94e-08  1.86e-05  6.00e-04  2.13e-06   235.7
                  *** Gradient check signals convergence ***

               *****************************************************
               *                     SUCCESS                       *
               *           SCF CONVERGED AFTER  13 CYCLES          *
               *****************************************************

Recomputing exchange energy using gridx3       ... done (  774.098 sec)
Old exchange energy                            :    -90.489522705 Eh
New exchange energy                            :    -90.489513730 Eh
Exchange energy change after final integration :      0.000008974 Eh
Total energy after final integration           :  -2112.851163907 Eh
             **** ENERGY FILE WAS UPDATED (tddft.en.tmp) ****

----------------
TOTAL SCF ENERGY
----------------

Total Energy       :      -2112.85116390663688 Eh          -57493.60309 eV

Components:
Nuclear Repulsion  :       5749.71574233558749 Eh          156457.71951 eV
Electronic Energy  :      -7862.55407981565622 Eh         -213950.97357 eV
One Electron Energy:     -14320.47120037880995 Eh         -389679.83230 eV
Two Electron Energy:       6457.91712056315373 Eh          175728.85873 eV
CPCM Dielectric    :         -0.01283540102196 Eh              -0.34927 eV

Virial components:
Potential Energy   :      -4215.95309883714071 Eh         -114721.91617 eV
Kinetic Energy     :       2103.10193493050429 Eh           57228.31308 eV
Virial Ratio       :          2.00463564262588

DFT components:
N(Alpha)           :      165.999985422625 electrons
N(Beta)            :      165.999985422625 electrons
N(Total)           :      331.999970845250 electrons
E(XC)              :     -202.989586745955 Eh       

CPCM Solvation Model Properties:
Surface-charge          :         -0.04805990494343
Corrected charge        :         -0.00000000000000
Outlying charge corr.   :          0.00005263925764 Eh               0.00143 eV
Free-energy (cav+disp)  :  This term is not implemented in the current solvation scheme

---------------
SCF CONVERGENCE
---------------

  Last Energy change         ...   -6.9396e-08  Tolerance :   1.0000e-08
  Last MAX-Density change    ...    6.0018e-04  Tolerance :   1.0000e-07
  Last RMS-Density change    ...    1.8555e-05  Tolerance :   5.0000e-09
  Last DIIS Error            ...    2.2256e-03  Tolerance :   5.0000e-07
  Last Orbital Gradient      ...    2.1276e-06  Tolerance :   1.0000e-05
  Last Orbital Rotation      ...    3.9103e-06  Tolerance :   1.0000e-05


----------------
ORBITAL ENERGIES
----------------

  NO   OCC          E(Eh)            E(eV) 
   0   2.0000     -46.851265     -1274.8877 
   1   2.0000     -14.412883      -392.1945 
   2   2.0000     -14.412877      -392.1943 
   3   2.0000     -14.412866      -392.1940 
   4   2.0000     -14.412860      -392.1939 
   5   2.0000     -10.316583      -280.7285 
   6   2.0000     -10.316570      -280.7282 
   7   2.0000     -10.316564      -280.7280 
   8   2.0000     -10.316557      -280.7278 
   9   2.0000     -10.316539      -280.7273 
  10   2.0000     -10.316526      -280.7270 
  11   2.0000     -10.316521      -280.7268 
  12   2.0000     -10.316513      -280.7266 
  13   2.0000     -10.303447      -280.3710 
  14   2.0000     -10.303417      -280.3702 
  15   2.0000     -10.303397      -280.3697 
  16   2.0000     -10.303381      -280.3693 
  17   2.0000     -10.296192      -280.1736 
  18   2.0000     -10.296179      -280.1733 
  19   2.0000     -10.296177      -280.1732 
  20   2.0000     -10.296170      -280.1730 
  21   2.0000     -10.283193      -279.8199 
  22   2.0000     -10.283191      -279.8198 
  23   2.0000     -10.283186      -279.8197 
  24   2.0000     -10.283178      -279.8195 
  25   2.0000     -10.283097      -279.8173 
  26   2.0000     -10.283095      -279.8173 
  27   2.0000     -10.283090      -279.8171 
  28   2.0000     -10.283084      -279.8169 
  29   2.0000     -10.282551      -279.8025 
  30   2.0000     -10.282550      -279.8024 
  31   2.0000     -10.282544      -279.8022 
  32   2.0000     -10.282542      -279.8022 
  33   2.0000     -10.282453      -279.7998 
  34   2.0000     -10.282451      -279.7997 
  35   2.0000     -10.282445      -279.7996 
  36   2.0000     -10.282444      -279.7995 
  37   2.0000     -10.282027      -279.7882 
  38   2.0000     -10.282027      -279.7882 
  39   2.0000     -10.282019      -279.7880 
  40   2.0000     -10.282014      -279.7878 
  41   2.0000     -10.277973      -279.6779 
  42   2.0000     -10.277955      -279.6774 
  43   2.0000     -10.277953      -279.6773 
  44   2.0000     -10.277952      -279.6773 
  45   2.0000     -10.277225      -279.6575 
  46   2.0000     -10.277207      -279.6570 
  47   2.0000     -10.277206      -279.6570 
  48   2.0000     -10.277204      -279.6569 
  49   2.0000      -3.161389       -86.0258 
  50   2.0000      -1.899532       -51.6889 
  51   2.0000      -1.893711       -51.5305 
  52   2.0000      -1.893710       -51.5305 
  53   2.0000      -1.082753       -29.4632 
  54   2.0000      -1.073730       -29.2177 
  55   2.0000      -1.073722       -29.2175 
  56   2.0000      -1.063372       -28.9358 
  57   2.0000      -0.989914       -26.9369 
  58   2.0000      -0.986153       -26.8346 
  59   2.0000      -0.986151       -26.8345 
  60   2.0000      -0.984427       -26.7876 
  61   2.0000      -0.942887       -25.6573 
  62   2.0000      -0.924872       -25.1671 
  63   2.0000      -0.924866       -25.1669 
  64   2.0000      -0.906001       -24.6535 
  65   2.0000      -0.884426       -24.0664 
  66   2.0000      -0.883897       -24.0521 
  67   2.0000      -0.883895       -24.0520 
  68   2.0000      -0.876895       -23.8615 
  69   2.0000      -0.866040       -23.5661 
  70   2.0000      -0.865911       -23.5626 
  71   2.0000      -0.865909       -23.5626 
  72   2.0000      -0.865832       -23.5605 
  73   2.0000      -0.858564       -23.3627 
  74   2.0000      -0.850866       -23.1532 
  75   2.0000      -0.850860       -23.1531 
  76   2.0000      -0.833133       -22.6707 
  77   2.0000      -0.824052       -22.4236 
  78   2.0000      -0.772142       -21.0111 
  79   2.0000      -0.772140       -21.0110 
  80   2.0000      -0.730207       -19.8700 
  81   2.0000      -0.718640       -19.5552 
  82   2.0000      -0.718291       -19.5457 
  83   2.0000      -0.718288       -19.5456 
  84   2.0000      -0.718059       -19.5394 
  85   2.0000      -0.711143       -19.3512 
  86   2.0000      -0.711124       -19.3507 
  87   2.0000      -0.704487       -19.1701 
  88   2.0000      -0.703954       -19.1556 
  89   2.0000      -0.690456       -18.7883 
  90   2.0000      -0.669912       -18.2292 
  91   2.0000      -0.669905       -18.2290 
  92   2.0000      -0.658742       -17.9253 
  93   2.0000      -0.652469       -17.7546 
  94   2.0000      -0.645409       -17.5625 
  95   2.0000      -0.633825       -17.2473 
  96   2.0000      -0.633823       -17.2472 
  97   2.0000      -0.627180       -17.0664 
  98   2.0000      -0.620614       -16.8878 
  99   2.0000      -0.620607       -16.8876 
 100   2.0000      -0.614987       -16.7347 
 101   2.0000      -0.604651       -16.4534 
 102   2.0000      -0.592234       -16.1155 
 103   2.0000      -0.592222       -16.1152 
 104   2.0000      -0.564035       -15.3482 
 105   2.0000      -0.563858       -15.3434 
 106   2.0000      -0.560823       -15.2608 
 107   2.0000      -0.560813       -15.2605 
 108   2.0000      -0.558667       -15.2021 
 109   2.0000      -0.551602       -15.0098 
 110   2.0000      -0.551600       -15.0098 
 111   2.0000      -0.549564       -14.9544 
 112   2.0000      -0.542337       -14.7577 
 113   2.0000      -0.529208       -14.4005 
 114   2.0000      -0.523398       -14.2424 
 115   2.0000      -0.521908       -14.2018 
 116   2.0000      -0.521903       -14.2017 
 117   2.0000      -0.520478       -14.1629 
 118   2.0000      -0.520299       -14.1581 
 119   2.0000      -0.520207       -14.1556 
 120   2.0000      -0.520201       -14.1554 
 121   2.0000      -0.519004       -14.1228 
 122   2.0000      -0.514774       -14.0077 
 123   2.0000      -0.514760       -14.0073 
 124   2.0000      -0.508602       -13.8398 
 125   2.0000      -0.497420       -13.5355 
 126   2.0000      -0.497418       -13.5354 
 127   2.0000      -0.497120       -13.5273 
 128   2.0000      -0.486714       -13.2442 
 129   2.0000      -0.484448       -13.1825 
 130   2.0000      -0.482889       -13.1401 
 131   2.0000      -0.477440       -12.9918 
 132   2.0000      -0.477431       -12.9916 
 133   2.0000      -0.470800       -12.8111 
 134   2.0000      -0.464827       -12.6486 
 135   2.0000      -0.464824       -12.6485 
 136   2.0000      -0.464408       -12.6372 
 137   2.0000      -0.452459       -12.3120 
 138   2.0000      -0.443800       -12.0764 
 139   2.0000      -0.443575       -12.0703 
 140   2.0000      -0.439437       -11.9577 
 141   2.0000      -0.439430       -11.9575 
 142   2.0000      -0.438660       -11.9365 
 143   2.0000      -0.438654       -11.9364 
 144   2.0000      -0.438592       -11.9347 
 145   2.0000      -0.429140       -11.6775 
 146   2.0000      -0.412752       -11.2316 
 147   2.0000      -0.409772       -11.1504 
 148   2.0000      -0.409765       -11.1503 
 149   2.0000      -0.379005       -10.3132 
 150   2.0000      -0.371155       -10.0997 
 151   2.0000      -0.371101       -10.0982 
 152   2.0000      -0.354112        -9.6359 
 153   2.0000      -0.347940        -9.4679 
 154   2.0000      -0.346604        -9.4316 
 155   2.0000      -0.345941        -9.4135 
 156   2.0000      -0.345913        -9.4128 
 157   2.0000      -0.342666        -9.3244 
 158   2.0000      -0.341402        -9.2900 
 159   2.0000      -0.341393        -9.2898 
 160   2.0000      -0.340247        -9.2586 
 161   2.0000      -0.338502        -9.2111 
 162   2.0000      -0.338443        -9.2095 
 163   2.0000      -0.334785        -9.1100 
 164   2.0000      -0.257776        -7.0144 
 165   2.0000      -0.253504        -6.8982 
 166   0.0000      -0.042027        -1.1436 
 167   0.0000      -0.042015        -1.1433 
 168   0.0000       0.040700         1.1075 
 169   0.0000       0.057082         1.5533 
 170   0.0000       0.058312         1.5867 
 171   0.0000       0.058325         1.5871 
 172   0.0000       0.058520         1.5924 
 173   0.0000       0.059334         1.6146 
 174   0.0000       0.060356         1.6424 
 175   0.0000       0.061292         1.6678 
 176   0.0000       0.061305         1.6682 
*Only the first 10 virtual orbitals were printed.

                    ********************************
                    * MULLIKEN POPULATION ANALYSIS *
                    ********************************

-----------------------
MULLIKEN ATOMIC CHARGES
-----------------------
   0 N :   -0.442762
   1 H :    0.176504
   2 C :   -0.250014
   3 C :   -0.250542
   4 N :   -0.443141
   5 C :   -0.249955
   6 H :    0.176551
   7 C :    0.266647
   8 N :   -0.443242
   9 C :   -0.249695
  10 C :    0.003009
  11 C :    0.267794
  12 N :   -0.442797
  13 C :   -0.250112
  14 C :    0.264618
  15 C :    0.267621
  16 C :    0.264729
  17 C :    0.266960
  18 C :   -0.249608
  19 C :    0.008550
  20 C :    0.001188
  21 C :   -0.250055
  22 C :    0.268605
  23 C :   -0.249948
  24 C :    0.001837
  25 C :    0.265961
  26 H :    0.176218
  27 H :    0.176578
  28 H :    0.176284
  29 H :    0.176296
  30 H :    0.176325
  31 H :    0.176427
  32 Mg:    0.779654
  33 C :   -0.031089
  34 C :   -0.208343
  35 C :   -0.150194
  36 C :   -0.123456
  37 C :   -0.150096
  38 C :   -0.208618
  39 H :    0.149673
  40 H :    0.143016
  41 H :    0.145087
  42 H :    0.143135
  43 H :    0.149687
  44 C :   -0.029566
  45 C :   -0.210468
  46 C :   -0.149324
  47 C :   -0.123918
  48 C :   -0.149029
  49 C :   -0.211389
  50 H :    0.149728
  51 H :    0.143012
  52 H :    0.145064
  53 H :    0.143127
  54 H :    0.149685
  55 C :   -0.034049
  56 C :   -0.206531
  57 C :   -0.151348
  58 C :   -0.122623
  59 C :   -0.151339
  60 C :   -0.205857
  61 H :    0.149591
  62 H :    0.143039
  63 H :    0.145090
  64 H :    0.143040
  65 H :    0.149533
  66 C :   -0.033802
  67 C :   -0.206353
  68 C :   -0.151436
  69 C :   -0.122513
  70 C :   -0.151195
  71 C :   -0.205738
  72 H :    0.149634
  73 H :    0.143008
  74 H :    0.145069
  75 H :    0.143028
  76 H :    0.149542
Sum of atomic charges:    0.0000000

--------------------------------
MULLIKEN REDUCED ORBITAL CHARGES
--------------------------------
  0 N s       :     3.672890  s :     3.672890
      pz      :     1.373705  p :     3.705396
      px      :     1.290170
      py      :     1.041521
      dz2     :     0.005030  d :     0.060848
      dxz     :     0.005746
      dyz     :     0.014149
      dx2y2   :     0.016815
      dxy     :     0.019107
      f0      :     0.000661  f :     0.003629
      f+1     :     0.000320
      f-1     :     0.000439
      f+2     :     0.000107
      f-2     :     0.000597
      f+3     :     0.000603
      f-3     :     0.000900

  1 H s       :     0.800960  s :     0.800960
      pz      :     0.004550  p :     0.022536
      px      :     0.008673
      py      :     0.009314

  2 C s       :     3.245819  s :     3.245819
      pz      :     0.984700  p :     2.911590
      px      :     0.943664
      py      :     0.983226
      dz2     :     0.005473  d :     0.084875
      dxz     :     0.009340
      dyz     :     0.019628
      dx2y2   :     0.019623
      dxy     :     0.030811
      f0      :     0.001495  f :     0.007730
      f+1     :     0.000764
      f-1     :     0.000661
      f+2     :     0.000921
      f-2     :     0.000423
      f+3     :     0.002274
      f-3     :     0.001192

  3 C s       :     3.245536  s :     3.245536
      pz      :     0.983220  p :     2.912410
      px      :     0.985225
      py      :     0.943964
      dz2     :     0.005091  d :     0.084866
      dxz     :     0.020146
      dyz     :     0.009219
      dx2y2   :     0.019529
      dxy     :     0.030881
      f0      :     0.001535  f :     0.007730
      f+1     :     0.000571
      f-1     :     0.000781
      f+2     :     0.000967
      f-2     :     0.000414
      f+3     :     0.001172
      f-3     :     0.002290

  4 N s       :     3.673325  s :     3.673325
      pz      :     1.375262  p :     3.705331
      px      :     1.039044
      py      :     1.291025
      dz2     :     0.004891  d :     0.060855
      dxz     :     0.014327
      dyz     :     0.005656
      dx2y2   :     0.016790
      dxy     :     0.019191
      f0      :     0.000664  f :     0.003629
      f+1     :     0.000429
      f-1     :     0.000327
      f+2     :     0.000104
      f-2     :     0.000592
      f+3     :     0.000909
      f-3     :     0.000603

  5 C s       :     3.245257  s :     3.245257
      pz      :     0.981446  p :     2.912087
      px      :     0.999852
      py      :     0.930790
      dz2     :     0.005339  d :     0.084880
      dxz     :     0.018020
      dyz     :     0.011045
      dx2y2   :     0.021131
      dxy     :     0.029345
      f0      :     0.001522  f :     0.007730
      f+1     :     0.000611
      f-1     :     0.000761
      f+2     :     0.001238
      f-2     :     0.000134
      f+3     :     0.001323
      f-3     :     0.002141

  6 H s       :     0.800905  s :     0.800905
      pz      :     0.004583  p :     0.022544
      px      :     0.006916
      py      :     0.011045

  7 C s       :     3.148998  s :     3.148998
      pz      :     0.929303  p :     2.412263
      px      :     0.808487
      py      :     0.674473
      dz2     :     0.003682  d :     0.157704
      dxz     :     0.029593
      dyz     :     0.035258
      dx2y2   :     0.048088
      dxy     :     0.041082
      f0      :     0.002180  f :     0.014389
      f+1     :     0.000940
      f-1     :     0.001134
      f+2     :     0.000693
      f-2     :     0.002260
      f+3     :     0.003514
      f-3     :     0.003668

  8 N s       :     3.673364  s :     3.673364
      pz      :     1.375443  p :     3.705398
      px      :     1.038992
      py      :     1.290963
      dz2     :     0.004882  d :     0.060852
      dxz     :     0.014337
      dyz     :     0.005659
      dx2y2   :     0.016787
      dxy     :     0.019187
      f0      :     0.000665  f :     0.003629
      f+1     :     0.000429
      f-1     :     0.000326
      f+2     :     0.000104
      f-2     :     0.000593
      f+3     :     0.000908
      f-3     :     0.000603

  9 C s       :     3.245355  s :     3.245355
      pz      :     0.983660  p :     2.911674
      px      :     0.999136
      py      :     0.928877
      dz2     :     0.005272  d :     0.084934
      dxz     :     0.018032
      dyz     :     0.011144
      dx2y2   :     0.021135
      dxy     :     0.029351
      f0      :     0.001524  f :     0.007731
      f+1     :     0.000613
      f-1     :     0.000758
      f+2     :     0.001238
      f-2     :     0.000133
      f+3     :     0.001323
      f-3     :     0.002142

 10 C s       :     3.425735  s :     3.425735
      pz      :     0.977722  p :     2.438353
      px      :     0.709795
      py      :     0.750836
      dz2     :     0.003104  d :     0.123278
      dxz     :     0.022257
      dyz     :     0.023515
      dx2y2   :     0.028396
      dxy     :     0.046006
      f0      :     0.001607  f :     0.009624
      f+1     :     0.000798
      f-1     :     0.000829
      f+2     :     0.000800
      f-2     :     0.001146
      f+3     :     0.002658
      f-3     :     0.001784

 11 C s       :     3.150299  s :     3.150299
      pz      :     0.928118  p :     2.409976
      px      :     0.804428
      py      :     0.677430
      dz2     :     0.003818  d :     0.157545
      dxz     :     0.028143
      dyz     :     0.036629
      dx2y2   :     0.048490
      dxy     :     0.040465
      f0      :     0.002178  f :     0.014386
      f+1     :     0.000881
      f-1     :     0.001198
      f+2     :     0.001128
      f-2     :     0.001830
      f+3     :     0.002300
      f-3     :     0.004872

 12 N s       :     3.672934  s :     3.672934
      pz      :     1.373035  p :     3.705384
      px      :     1.290194
      py      :     1.042155
      dz2     :     0.005082  d :     0.060850
      dxz     :     0.005743
      dyz     :     0.014085
      dx2y2   :     0.016829
      dxy     :     0.019110
      f0      :     0.000658  f :     0.003629
      f+1     :     0.000321
      f-1     :     0.000442
      f+2     :     0.000109
      f-2     :     0.000596
      f+3     :     0.000603
      f-3     :     0.000899

 13 C s       :     3.245866  s :     3.245866
      pz      :     0.982121  p :     2.911605
      px      :     0.928996
      py      :     1.000488
      dz2     :     0.005369  d :     0.084909
      dxz     :     0.011375
      dyz     :     0.017677
      dx2y2   :     0.021251
      dxy     :     0.029237
      f0      :     0.001502  f :     0.007731
      f+1     :     0.000701
      f-1     :     0.000711
[...]
  0-1A  -> 16-1A    5.149105   41530.3   240.8   0.021379150   0.00607  -0.07417  -0.02357   0.00341
  0-1A  -> 17-1A    5.149681   41535.0   240.8   0.019994342   0.00568  -0.02921   0.06916  -0.00627
  0-1A  -> 18-1A    5.158383   41605.2   240.4   0.000007912   0.00000   0.00025  -0.00147   0.00016
  0-1A  -> 19-1A    5.203755   41971.1   238.3   0.018417160   0.00528   0.05451  -0.04793   0.00380
  0-1A  -> 20-1A    5.204409   41976.4   238.2   0.018069630   0.00518  -0.04762  -0.05367   0.00598
  0-1A  -> 21-1A    5.217281   42080.2   237.6   0.000092815   0.00003  -0.00272   0.00280   0.00339
  0-1A  -> 22-1A    5.281485   42598.1   234.8   0.003304032   0.00096   0.00029   0.00282   0.03089
  0-1A  -> 23-1A    5.394508   43509.6   229.8   0.000291919   0.00009   0.00451  -0.00811   0.00082
  0-1A  -> 24-1A    5.401937   43569.6   229.5   0.003440706   0.00102   0.02858  -0.01436   0.00114
  0-1A  -> 25-1A    5.402557   43574.6   229.5   0.003555029   0.00106  -0.01554  -0.02844   0.00291
  0-1A  -> 26-1A    5.474567   44155.4   226.5   0.001380996   0.00042   0.00013  -0.00188  -0.02033
  0-1A  -> 27-1A    5.503711   44390.4   225.3   0.000000766   0.00000   0.00027  -0.00038   0.00012
  0-1A  -> 28-1A    5.544390   44718.5   223.6   0.000000474   0.00000   0.00038   0.00006  -0.00001
  0-1A  -> 29-1A    5.545232   44725.3   223.6   0.000018882   0.00001  -0.00077   0.00227  -0.00019
  0-1A  -> 30-1A    5.612417   45267.2   220.9   0.020419992   0.00632  -0.06501  -0.04521   0.00690

------------------------------------------------------------------------------------------
                     CD SPECTRUM VIA TRANSITION ELECTRIC DIPOLE MOMENTS    
------------------------------------------------------------------------------------------
     Transition      Energy     Energy  Wavelength    R        MX        MY        MZ   
                      (eV)      (cm-1)    (nm)   (1e40*cgs)   (au)      (au)      (au)  
------------------------------------------------------------------------------------------
  0-1A  ->  1-1A    2.322803   18734.7   533.8   -0.38719   0.00334   0.00471  -0.00008
  0-1A  ->  2-1A    2.322925   18735.7   533.7   -0.37669   0.00483  -0.00297   0.00051
  0-1A  ->  3-1A    3.575058   28834.8   346.8   53.45373   0.00768   0.01731  -0.00206
  0-1A  ->  4-1A    3.575251   28836.4   346.8   53.99505   0.01729  -0.00845  -0.00036
  0-1A  ->  5-1A    4.315946   34810.5   287.3    1.48826  -0.01956  -0.11764  -1.23575
  0-1A  ->  6-1A    4.380824   35333.7   283.0   -0.00012  -0.00005   0.00045  -0.00022
  0-1A  ->  7-1A    4.447644   35872.7   278.8   -0.97711  -0.00091   0.00107  -0.00039
  0-1A  ->  8-1A    4.447775   35873.7   278.8   -1.79631  -0.00227  -0.00133  -0.00022
  0-1A  ->  9-1A    4.702965   37932.0   263.6   -0.00169   0.00066  -0.00097  -0.00002
  0-1A  -> 10-1A    4.942112   39860.8   250.9   -0.00241   0.00034   0.00084  -0.00027
  0-1A  -> 11-1A    4.968628   40074.7   249.5   -0.00158  -0.00007   0.00097   0.00004
  0-1A  -> 12-1A    5.096131   41103.1   243.3   28.93156  -0.12155  -0.25637   0.02541
  0-1A  -> 13-1A    5.096244   41104.0   243.3   28.35105  -0.25799   0.12185  -0.00859
  0-1A  -> 14-1A    5.143757   41487.2   241.0   -0.34757   0.01017   0.00381  -0.00157
  0-1A  -> 15-1A    5.146101   41506.1   240.9  -13.16973   0.01721   0.05775  -0.00573
  0-1A  -> 16-1A    5.149105   41530.3   240.8  -68.57204   0.12952   0.04011  -0.01066
  0-1A  -> 17-1A    5.149681   41535.0   240.8  -64.50351   0.05114  -0.12074   0.01409
  0-1A  -> 18-1A    5.158383   41605.2   240.4   -0.04667   0.00560   0.00523  -0.00234
  0-1A  -> 19-1A    5.203755   41971.1   238.3   42.14727   0.04784  -0.04083   0.01528
  0-1A  -> 20-1A    5.204409   41976.4   238.2   42.09552  -0.04193  -0.04639   0.01702
  0-1A  -> 21-1A    5.217281   42080.2   237.6   29.65010   0.00740   0.05230   0.51788
  0-1A  -> 22-1A    5.281485   42598.1   234.8   -8.48906  -0.00196  -0.00891  -0.09378
  0-1A  -> 23-1A    5.394508   43509.6   229.8    0.14861   0.00349  -0.00531   0.00430
  0-1A  -> 24-1A    5.401937   43569.6   229.5    2.00780   0.02538  -0.01177   0.00894
  0-1A  -> 25-1A    5.402557   43574.6   229.5    2.10039  -0.01416  -0.02588   0.00114
  0-1A  -> 26-1A    5.474567   44155.4   226.5  -12.21975  -0.00296  -0.03071  -0.31710
  0-1A  -> 27-1A    5.503711   44390.4   225.3    0.00220   0.00108   0.00057   0.00055
  0-1A  -> 28-1A    5.544390   44718.5   223.6    0.00048   0.00044   0.00014   0.00002
  0-1A  -> 29-1A    5.545232   44725.3   223.6    0.02234  -0.00276   0.00345  -0.00532
  0-1A  -> 30-1A    5.612417   45267.2   220.9   28.09798  -0.07020  -0.05012  -0.01441

------------------------------------------------------------------------------------------
                     CD SPECTRUM VIA TRANSITION VELOCITY DIPOLE MOMENTS    
------------------------------------------------------------------------------------------
     Transition      Energy     Energy  Wavelength    R        MX        MY        MZ   
                      (eV)      (cm-1)    (nm)   (1e40*cgs)   (au)      (au)      (au)  
------------------------------------------------------------------------------------------
  0-1A  ->  1-1A    2.322803   18734.7   533.8   -1.94079   0.00334   0.00471  -0.00008
  0-1A  ->  2-1A    2.322925   18735.7   533.7   -1.91376   0.00483  -0.00297   0.00051
  0-1A  ->  3-1A    3.575058   28834.8   346.8   23.36644   0.00768   0.01731  -0.00206
  0-1A  ->  4-1A    3.575251   28836.4   346.8   23.59602   0.01729  -0.00845  -0.00036
  0-1A  ->  5-1A    4.315946   34810.5   287.3    4.62998  -0.01956  -0.11764  -1.23575
  0-1A  ->  6-1A    4.380824   35333.7   283.0   -0.00012  -0.00005   0.00045  -0.00022
  0-1A  ->  7-1A    4.447644   35872.7   278.8   -0.59240  -0.00091   0.00107  -0.00039
  0-1A  ->  8-1A    4.447775   35873.7   278.8   -1.08867  -0.00227  -0.00133  -0.00022
  0-1A  ->  9-1A    4.702965   37932.0   263.6   -0.00122   0.00066  -0.00097  -0.00002
  0-1A  -> 10-1A    4.942112   39860.8   250.9   -0.00225   0.00034   0.00084  -0.00027
  0-1A  -> 11-1A    4.968628   40074.7   249.5   -0.00119  -0.00007   0.00097   0.00004
  0-1A  -> 12-1A    5.096131   41103.1   243.3   13.41659  -0.12155  -0.25637   0.02541
  0-1A  -> 13-1A    5.096244   41104.0   243.3   13.14754  -0.25799   0.12185  -0.00859
  0-1A  -> 14-1A    5.143757   41487.2   241.0   -0.13837   0.01017   0.00381  -0.00157
  0-1A  -> 15-1A    5.146101   41506.1   240.9   -5.18546   0.01721   0.05775  -0.00573
  0-1A  -> 16-1A    5.149105   41530.3   240.8  -26.37928   0.12952   0.04011  -0.01066
  0-1A  -> 17-1A    5.149681   41535.0   240.8  -24.74360   0.05114  -0.12074   0.01409
  0-1A  -> 18-1A    5.158383   41605.2   240.4   -0.01666   0.00560   0.00523  -0.00234
  0-1A  -> 19-1A    5.203755   41971.1   238.3   11.39578   0.04784  -0.04083   0.01528
  0-1A  -> 20-1A    5.204409   41976.4   238.2   11.31019  -0.04193  -0.04639   0.01702
  0-1A  -> 21-1A    5.217281   42080.2   237.6    4.62131   0.00740   0.05230   0.51788
  0-1A  -> 22-1A    5.281485   42598.1   234.8   -7.09762  -0.00196  -0.00891  -0.09378
  0-1A  -> 23-1A    5.394508   43509.6   229.8    0.14835   0.00349  -0.00531   0.00430
  0-1A  -> 24-1A    5.401937   43569.6   229.5    2.14821   0.02538  -0.01177   0.00894
  0-1A  -> 25-1A    5.402557   43574.6   229.5    2.27821  -0.01416  -0.02588   0.00114
  0-1A  -> 26-1A    5.474567   44155.4   226.5   15.23943  -0.00296  -0.03071  -0.31710
  0-1A  -> 27-1A    5.503711   44390.4   225.3    0.00032   0.00108   0.00057   0.00055
  0-1A  -> 28-1A    5.544390   44718.5   223.6    0.00040   0.00044   0.00014   0.00002
  0-1A  -> 29-1A    5.545232   44725.3   223.6    0.02539  -0.00276   0.00345  -0.00532
  0-1A  -> 30-1A    5.612417   45267.2   220.9   15.38400  -0.07020  -0.05012  -0.01441

Total run time:    28455.031 sec

           *** ORCA-CIS/TD-DFT FINISHED WITHOUT ERROR ***
-----------------------
CIS/TD-DFT TOTAL ENERGY
-----------------------

    E(SCF)  =  -2112.851163907 Eh
    DE(CIS) =      0.085361449 Eh (Root  1)
    ----------------------------- ---------
    E(tot)  =  -2112.765802458 Eh


Maximum memory used throughout the entire CIS-calculation: 2417.7 MB
=> NOW LEAVING ORCA_CIS


-------------------------------------------------------------------------------
                          DFT DISPERSION CORRECTION                            
                                                                               
                              DFTD3 V3.1  Rev 1                                
                              USING zero damping                               
-------------------------------------------------------------------------------
The omegaB97X-D3 functional is recognized. Fit by Chai et al.
Active option DFTDOPT                   ...         3   

molecular C6(AA) [au] = 86601.312928 


            DFT-D V3
 parameters
 s6 scaling factor         :     1.0000 
 rs6 scaling factor        :     1.2810 
 s8 scaling factor         :     1.0000 
 rs8 scaling factor        :     1.0940 
 Damping factor alpha6     :    14.0000 
 Damping factor alpha8     :    16.0000 
 ad hoc parameters k1-k3   :    16.0000     1.3333    -4.0000 

 Edisp/kcal,au: -28.489527919945  -0.045400947808 
 E6   /kcal   : -13.971273073 
 E8   /kcal   : -14.518254847 
 % E8         :  50.959969881 

-------------------------   ----------------
Dispersion correction           -0.045400948
-------------------------   ----------------


-------------------------   --------------------
FINAL SINGLE POINT ENERGY     -2112.811203405482
-------------------------   --------------------



           ************************************************************
           *        Program running with 8 parallel MPI-processes     *
           *              working on a common directory               *
           ************************************************************

------------------------------------------------------------------------------
                              ORCA PROPERTY CALCULATIONS
------------------------------------------------------------------------------

GBWName                                 ... tddft.gbw
Number of atoms                         ...     77
Number of basis functions               ...   1688
Max core memory                         ...   3000 MB

Electric properties:
Dipole moment                           ... YES
Quadrupole moment                       ...  NO
Static polarizability (Dipole/Dipole)   ...  NO
Static polarizability (Dipole/Quad.)    ...  NO
Static polarizability (Quad./Quad.)     ...  NO
Static polarizability (Velocity)        ...  NO
Static hyperpolarizability              ...  NO

Atomic electric properties:
Dipole moment                           ...  NO
Quadrupole moment                       ...  NO
Static polarizability                   ...  NO

Choice of electric origin               ... Center of mass
Position of electric origin             ...    -0.159849     5.088964     6.548248

General magnetic properties:
Magnetizability                         ...  NO

EPR properties:
g-Tensor (aka g-matrix)                 ...  NO
Zero-Field splitting spin-orbit         ...  NO
Zero-field splitting spin-spin          ...  NO
Hyperfine couplings                     ...  NO (   0 nuclei)
Quadrupole couplings                    ...  NO (   0 nuclei)
Contact density                         ...  NO (   0 nuclei)

NMR properties:
Chemical shifts                         ...  NO (   0 nuclei)
Spin-rotation constants                 ...  NO (   0 nuclei)
Spin-spin couplings                     ...  NO (   0 nuclei,    0 pairs)

Choice of magnetic origin               ... GIAO
Position of magnetic origin             ...     0.000000     0.000000     0.000000

Properties with geometric perturbations:
SCF Hessian                             ...  NO
IR spectrum                             ...  NO
VCD spectrum                            ...  NO
X-ray spectroscopy properties:
SCF XES/XAS/RIXS spectra                ...  NO

SCF SOC stabilization energy            ...  NO
Diagonal Born-Oppenheimer correction    ...  NO

-------------
DIPOLE MOMENT
-------------

Method             : SCF
Type of density    : Electron Density
Multiplicity       :   1
Irrep              :   0
Energy             : -2112.8511639066368843 Eh
Basis              : AO
                                X                 Y                 Z
Electronic contribution:     -0.006067437      -0.000364321       0.013997253
Nuclear contribution   :      0.006551862       0.000121054      -0.014501534
                        -----------------------------------------
Total Dipole Moment    :      0.000484425      -0.000243267      -0.000504281
                        -----------------------------------------
Magnitude (a.u.)       :      0.000740368
Magnitude (Debye)      :      0.001881867



--------------------
Rotational spectrum 
--------------------
 
Rotational constants in cm-1:             0.001944             0.001943             0.001012 
Rotational constants in MHz :            58.267391            58.258492            30.324103 

Dipole components along the rotational axes: 
x,y,z [a.u.] :     0.000499    -0.000177    -0.000518 
x,y,z [Debye]:     0.001268    -0.000451    -0.001316 

 

Dipole moment calculation done in   0.2 sec 

Maximum memory used throughout the entire PROP-calculation: 230.7 MB

--------------------------------
SUGGESTED CITATIONS FOR THIS RUN
--------------------------------

Below you find a list of papers that are relevant to this ORCA run
We neither can nor want to force you to cite these papers, but we appreciate if you do
You receive ORCA, which is the product of decades of hard work by many enthusiastic individuals, for free
The only thing we kindly ask in return is that you cite our papers,
We deeply appreciate it, if you show your appreciation for ORCA by not just citing the generic ORCA reference.

Please note that relegating all ORCA citations to the supporting information does *not* help us.
SI sections are not indexed - citations you put there will not count into any citation statistics
But we need these citations in order to attract the funding resources that allow us to do what we are doing

Therefore, if you are a happy ORCA user, please consider citing a few of the papers listed below in the main body of your paper

In addition to the list printed below, the program has created the file tddft.bibtex that contains the list in bibtex format
You can import this file easily into all common literature databanks and citation aid programs

It goes without saying that in many instances, there are alternative algorithms to achieve similar
results as the ones you have gotten from ORCA. It is, of course, also the case that in some instances
ORCA just re-implements algorithms worked out by others. We are fully aware of that and we are also
fully appreciative of our colleagues work. Hence this citation list should not be read as indicating
that the listed papers, which are focused on our own work, are the only ones worth citing. It simply
meant to make it easier for users to cite ORCA specific papers. It is not a substitute for doing your
own literature research and citing the relevant literature in a scientifically appropriate manner.

List of essential papers. We consider these as the minimum necessary citations

  1. Neese, F.
     Software update: the ORCA program system, version 6.0
     WIRES Comput. Molec. Sci. 2025 15(1), e70019
     doi.org/10.1002/wcms.70019

List of papers to cite with high priority. The work reported in these papers was absolutely
necessary for this run to complete.
Our perspective: the developers of density functionals and basis sets usually get cited in chemistry papers
Good! But without the algorithms to do something with them, the functionals or basis sets would not do anything.
Hence, in our opinion, the algorithm design and method developments papers are equally worthy of getting cited

  1. Neese, F.; Olbrich, G.
     Efficient use of the resolution of the identity approximation in time-dependent density functional calculations with hybrid density functionals
     Chem. Phys. Lett. 2002 362 , 170-178
     doi.org/10.1016/s0009-2614(02)01053-9
  2. Neese, F.
     An improvement of the resolution of the identity approximation for the formation of the Coulomb matrix
     J. Comp. Chem. 2003 24(14), 1740-1747
     doi.org/10.1002/jcc.10318
  3. Neese, F.; Wennmohs, F.; Hansen, A.; Becker, U.
     Efficient, approximate and parallel Hartree-Fock and hybrid DFT calculations. A 'chain-of-spheres' algorithm for the Hartree-Fock exchange
     Chem. Phys. 2009 356(1-3), 98-109
     doi.org/10.1016/j.chemphys.2008.10.036
  4. Grimme, S.; Antony, J.; Ehrlich, S.; Krieg, H.
     A consistent and accurate ab initio parametrization of density functional dispersion correction (DFT-D) for the 94 elements H-Pu
     J. Chem. Phys. 2010 132 , 154104
     doi.org/10.1063/1.3382344
  5. Garcia-Rates, M.; Neese, F.
     Effect of the Solute Cavity on the Solvation Energy and its Derivatives within the Framework of the Gaussian Charge Scheme
     J. Comput. Chem. 2020 41 , 922-939
     doi.org/10.1002/jcc.26139
  6. Helmich-Paris, B.; de Souza, B.; Neese, F.; Izsák, R.
     An improved chain of spheres for exchange algorithm
     J. Chem. Phys. 2021 155(10), 104109
     doi.org/10.1063/5.0058766
  7. Neese, F.
     The SHARK Integral Generation and Digestion System
     J. Comp. Chem. 2022 44(3), 381
     doi.org/10.1002/jcc.26942

List of suggested additional citations. These are papers that are important in the 'surrounding' of 
of this run, or papers that preceded the highly important papers. If you like your results we are grateful for a citation.

  1. Izsak, R.; Neese, F.
     An overlap fitted chain of spheres exchange method
     J. Chem. Phys. 2011 135 , 144105
     doi.org/10.1063/1.3646921
  2. Izsak, R.; Hansen, A.; Neese, F.
     The resolution of identity and chain of spheres approximations for the LPNO-CCSD singles Fock term
     Molec. Phys. 2012 110 , 2413-2417
     doi.org/10.1080/00268976.2012.687466
  3. Neese, F.
     The ORCA program system
     WIRES Comput. Molec. Sci. 2012 2(1), 73-78
     doi.org/10.1002/wcms.81
  4. Izsak, R.; Neese, F.; Klopper, W.
     Robust fitting techniques in the chain of spheres approximation to the Fock exchange: The role of the complementary space
     J. Chem. Phys. 2013 139 , 
     doi.org/10.1063/1.4819264
  5. Neese, F.
     Software update: the ORCA program system, version 4.0
     WIRES Comput. Molec. Sci. 2018 8(1), 1-6
     doi.org/10.1002/wcms.1327
  6. Neese, F.; Wennmohs, F.; Becker, U.; Riplinger, C.
     The ORCA quantum chemistry program package
     J. Chem. Phys. 2020 152(22), 224108
     doi.org/10.1063/5.0004608
  7. Neese, F.
     Software update: The ORCA program system—Version 5.0
     WIRES Comput. Molec. Sci. 2022 12(1), e1606
     doi.org/10.1002/wcms.1606

List of optional additional citations

  1. Neese, F.
     Approximate second-order SCF convergence for spin unrestricted wavefunctions
     Chem. Phys. Lett. 2000 325(1-3), 93-98
     doi.org/10.1016/s0009-2614(00)00662-x

Timings for individual modules:

Sum of individual times          ...    33572.490 sec (= 559.542 min)
Startup calculation              ...       70.116 sec (=   1.169 min)   0.2 %
SCF iterations                   ...     5033.783 sec (=  83.896 min)  15.0 %
Property integrals               ...       10.577 sec (=   0.176 min)   0.0 %
Property calculations            ...        1.237 sec (=   0.021 min)   0.0 %
CIS module                       ...    28456.778 sec (= 474.280 min)  84.8 %
                             ****ORCA TERMINATED NORMALLY****
TOTAL RUN TIME: 0 days 9 hours 19 minutes 32 seconds 986 msec
