
                                 *****************
                                 * O   R   C   A *
                                 *****************

                                            #,                                       
                                            ###                                      
                                            ####                                     
                                            #####                                    
                                            ######                                   
                                           ########,                                 
                                     ,,################,,,,,                         
                               ,,#################################,,                 
                          ,,##########################################,,             
                       ,#########################################, ''#####,          
                    ,#############################################,,   '####,        
                  ,##################################################,,,,####,       
                ,###########''''           ''''###############################       
              ,#####''   ,,,,##########,,,,          '''####'''          '####       
            ,##' ,,,,###########################,,,                        '##       
           ' ,,###''''                  '''############,,,                           
         ,,##''                                '''############,,,,        ,,,,,,###''
      ,#''                                            '''#######################'''  
     '                                                          ''''####''''         
             ,#######,   #######,   ,#######,      ##                                
            ,#'     '#,  ##    ##  ,#'     '#,    #''#        ,####,    ,#,          
            ##       ##  ##   ,#'  ##            #'  '#       #'       ,# #          
            ##       ##  #######   ##           ,######,      #####,      #          
            '#,     ,#'  ##    ##  '#,     ,#' ,#      #,     #,   #      #          
             '#######'   ##     ##  '#######'  #'      '#     '####' #    #          



                #########################################################
                #                        -***-                          #
                #          Department of theory and spectroscopy        #
                #                                                       #
                #                      Frank Neese                      #
                #                                                       #
                #     Directorship, Architecture, Infrastructure        #
                #                    SHARK, DRIVERS                     #
                #        Core code/Algorithms in most modules           #
                #                                                       #
                #        Max Planck Institute fuer Kohlenforschung      #
                #                Kaiser Wilhelm Platz 1                 #
                #                 D-45470 Muelheim/Ruhr                 #
                #                      Germany                          #
                #                                                       #
                #                  All rights reserved                  #
                #                        -***-                          #
                #########################################################


                         Program Version 6.1.1  -  RELEASE   -
                                (GIT: $487d211c$)
                          ($2025-11-21 10:33:24 +0100$)


 With contributions from (in alphabetic order):
[Max-Planck-Institut fuer Kohlenforschung]                               
  Daniel Aravena         : Magnetic Suceptibility                        
  Michael Atanasov       : Ab Initio Ligand Field Theory (pilot matlab implementation)
  Alexander A. Auer      : GIAO ZORA, VPT2 properties, NMR spectrum      
  Ute Becker             : All parallelization in ORCA, NUMFREQ, NUMCALC 
  Giovanni Bistoni       : ED, misc. LED, open-shell LED, HFLD           
  Dmytro Bykov           : pre 5.0 version of the SCF Hessian            
  Marcos Casanova-Páez   : Triplet and SCS-CIS(D). UHF-(DLPNO)-IP/EA/STEOM-CCSD. UHF-CVS-IP/STEOM-CCSD   
  Vijay G. Chilkuri      : MRCI spin determinant printing, contributions to CSF-ICE 
  Pauline Colinet        : FMM embedding                                 
  Dipayan Datta          : RHF DLPNO-CCSD density                        
  Achintya Kumar Dutta   : EOM-CC, STEOM-CC                              
  Nicolas Foglia         : Exact transition moments, OPA infrastructure, MCD improvements    
  Dmitry Ganyushin       : Spin-Orbit,Spin-Spin,Magnetic field MRCI      
  Miquel Garcia-Rates    : C-PCM and meta-GGA Hessian, CCSD/C-PCM, Gaussian charge scheme 
  Tiago L. C. Gouveia    : GS-ROHF, GS-ROCIS                             
  Yang Guo               : DLPNO-NEVPT2, F12-NEVPT2, CIM, IAO-localization        
  Andreas Hansen         : Spin unrestricted coupled pair/coupled cluster methods 
  Ingolf Harden          : AUTO-CI MPn and infrastructure                
  Benjamin Helmich-Paris : MC-RPA, TRAH-(SCF,CASSCF), AVAS, COSX integrals, SCF dyn. polar., MC-PDFT, srDFT 
  Lee Huntington         : MR-EOM, pCC                                   
  Robert Izsak           : Overlap fitted RIJCOSX, COSX-SCS-MP3, EOM     
  Riya Kayal             : Wick's Theorem for AUTO-CI, AUTO-CI UHF-CCSDT 
  Emily Kempfer          : AUTO-CI RHF CISDT and CCSDT, approximate NEVPT4
  Christian Kollmar      : KDIIS, OOCD, Brueckner-CCSD(T), CCSD density, CASPT2, CASPT2-K, improved NEVPT2 
  Axel Koslowski         : Symmetry handling                             
  Simone Kossmann        : meta-GGA functionals, TD-DFT gradient, OOMP2, (MP2 Hessian; deprecated post 5.0) 
  Lucas Lang             : DCDCAS, Hyperfine gauge corrections, ICE-SOC+SSC
  Marvin Lechner         : AUTO-CI (C++ implementation), FIC-MRCC        
  Spencer Leger          : CASSCF response                               
  Dagmar Lenk            : GEPOL surface, SMD, ORCA-2-JSON               
  Dimitrios Liakos       : Extrapolation schemes; Compound Job, Property file
  Dimitrios Manganas     : Further ROCIS development; embedding schemes. LFT, Crystal Embedding 
  Dimitrios Pantazis     : SARC Basis sets                               
  Anastasios Papadopoulos: AUTO-CI, single reference methods and gradients 
  Taras Petrenko         : pre 6.0 DFT Hessian and TD-DFT gradient,  ECA, NRVS 
  Petra Pikulova         : Analytic Raman intensities                    
  Peter Pinski           : DLPNO-MP2, DLPNO-MP2 Gradient                 
  Shashank Vittal Rao    : ES-AILFT, MagRelax                            
  Christoph Reimann      : Effective Core Potentials                     
  Marius Retegan         : Local ZFS, SOC                                
  Christoph Riplinger    : Optimizer, TS searches, QM/MM, DLPNO-CCSD(T), (RO)-DLPNO pert. Triples 
  Michael Roemelt        : Original ROCIS implementation, recursive CI coupling coefficients
  Masaaki Saitow         : Open-shell DLPNO-CCSD energy and density      
  Barbara Sandhoefer     : DKH picture change effects                    
  Yorick L. A. Schmerwitz: GMF and freeze-and-release deltaSCF, NEB S-IDPP initial path                    
  Kantharuban Sivalingam : CASSCF convergence/infrastructure, NEVPT2, NEVPT3, NEVPT4(SD), FIC-MRCI and CEPA variants
  Bernardo de Souza      : ESD, SOC TD-DFT                               
  Georgi L. Stoychev     : AutoAux, RI-MP2 NMR, DLPNO-MP2 response, X2C  
  Van Anh Tran           : RI-MP2 g-tensors                              
  Willem Van den Heuvel  : Paramagnetic NMR                              
  Zikuan Wang            : NOTCH, Electric field optimization            
  Frank Wennmohs         : Technical directorship and infrastructure     
  Hang Xu                : AUTO-CI-Response properties                   
                                                                         
[FACCTs GmbH]                                                            
  Markus Bursch, Nicolas Foglia, Miquel Garcia-Rates, Ingolf Harden, Hagen Neugebauer, Anastasios Papadopoulos, 
  Christoph Riplinger, Bernardo de Souza, Georgi L. Stoychev                                                    
                                                                 
  APM, various basis sets, CI-OPT, improved COSX, DLPNO-Multilevel,           
  DOCKER, DRACO, updates on ESD, Fragmentator, GOAT, IRC, LR-CPCM, L-BFGS, MBIS, meta-GGA TD-DFT gradient, ML-optimized integration grids, 
  MM, NACMEs, nearIR, NEB, NEB-TS, NL-DFT gradient (VV10), 2- and 3-layer-ONIOM, interface openCOSMO-RS, QMMM,   
  Crystal-QMMM, RESP, rigid body optimization, SF, symmetry and pop. for TD-DFT, various functionals, SOLVATOR                                   
                                                                         
[Other institutions]                                                     
  V. Asgeirsson          : NEB                                           
  Christoph Bannwarth    : sTDA-DFT, sTD-DFT, PBEh-3c, B97-3c, D3        
  Giovanni Bistoni       : ETS/NOCV, ADLD/ADEX, COVALED                  
  Martin Brehm           : Molecular dynamics                            
  Ronald Cardenas        : ETS/NOCV                                      
  Martina Colucci        : COVALED                                       
  Sebastian Ehlert       : rSCAN, r2SCAN, r2SCAN-3c, D4, dhf basis sets  
  Marvin Friede          : D4 for Fr, Ra, Ac-Lr                          
  Lars Goerigk           : TD-DFT with DH, B97 family of functionals     
  Stefan Grimme          : VdW corrections, initial TS optimization, DFT functionals, gCP, sTDA/sTD-DF 
  Waldemar Hujo          : DFT-NL                                        
  H. Jonsson             : NEB                                           
  Holger Kruse           : gCP                                           
  Marcel Mueller         : wB97X-3c, vDZP basis set                      
  Hagen Neugebauer       : wr2SCAN, Native XTB                           
  Gianluca Regni         : ADLD/ADEX                                     
  Tobias Risthaus        : pre 6.0 range-separated hybrid DFT and stability analysis
  Lukas Wittmann         : regularized MP2, r2SCAN double-hybrids, wr2SCAN        
                                                                         
We gratefully acknowledge several colleagues who have allowed us to      
interface, adapt or use parts of their codes:                            
  Ed Valeev, F. Pavosevic, A. Kumar             : LibInt (2-el integral package), F12 methods 
  Garnet Chan, S. Sharma, J. Yang, R. Olivares  : DMRG                   
  Ulf Ekstrom                                   : XCFun DFT Library      
  Mihaly Kallay                                 : mrcc  (arbitrary order and MRCC methods)
  Frank Weinhold                                : gennbo (NPA and NBO analysis)           
  Simon Mueller                                 : openCOSMO-RS                            
  Christopher J. Cramer and Donald G. Truhlar   : smd solvation model                     
  S Lehtola, MJT Oliveira, MAL Marques          : LibXC Library                           
  Liviu Ungur et al                             : ANISO software                          


 Your calculation uses the libint2 library for the computation of 2-el integrals
 For citations please refer to: http://libint.valeyev.net

 Your ORCA version has been built with support for libXC version: 7.0.0
 For citations please refer to: https://libxc.gitlab.io

 This ORCA versions uses:
   CBLAS   interface :  Fast vector & matrix operations
   LAPACKE interface :  Fast linear algebra routines
   SCALAPACK package :  Parallel linear algebra routines
   Shared memory     :  Shared parallel matrices
   BLAS/LAPACK       :  OpenBLAS 0.3.29  USE64BITINT DYNAMIC_ARCH NO_AFFINITY Haswell SINGLE_THREADED
        Core in use  :  Haswell
   Copyright (c) 2011-2014, The OpenBLAS Project


  ***********************************
  * Starting time: Sun Jun 14 20:19:30 2026
  * Host name:     steezy
  * Process ID:    2925119
  * Working dir.:  /home/jannes/mgtpp/04_tddft_tda_comparison/runs/tdaon_tpss
  ***********************************

NOTE: MaxCore=3000 MB was set to SCF,MP2,MDCI,CIPSI,MRCI,RASCI and CIS
      => If you want to overwrite this, your respective input block should be placed after the MaxCore statement


***************************************
The coordinates will be read from file: /home/jannes/mgtpp/01_opt/mgtpp_opt_b3lyp_tzvp.xyz
***************************************


================================================================================

----- Orbital basis set information -----
Your calculation utilizes the basis: def2-TZVP
   F. Weigend and R. Ahlrichs, Phys. Chem. Chem. Phys. 7, 3297 (2005).

----- AuxJ basis set information -----
Your calculation utilizes the auxiliary basis: def2/J
   H-Rn: F. Weigend, Phys. Chem. Chem. Phys. 8, 1057 (2006).
   Fr-Lr: K. Eichkorn, F. Weigend, O. Treutler, R. Ahlrichs; Theor. Chem. Acc. 97, 119 (1997).

================================================================================
                                        WARNINGS
                       Please study these warnings very carefully!
================================================================================



WARNING: Found flag for RIJCOSX approximation but no HF exchange needed!
  ===> : RIJCOSX  will be disabled and Split-RI-J is turned on

WARNING: CIS/ROCIS methods need fully converged wavefunctions
  ===> : Setting SCFConvForced true
         You can overwrite this default with %scf ConvForced false 


================================================================================
                                       INPUT FILE
================================================================================
NAME = tddft.inp
|  1> %pal nprocs 8 end
|  2> %maxcore 3000
|  3> ! TPSS def2-TZVP def2/J RIJCOSX DefGrid3 TightSCF CPCM(Toluene)
|  4> %tddft
|  5>   nroots 30
|  6>   triplets false
|  7> end
|  8> * xyzfile 0 1 /home/jannes/mgtpp/01_opt/mgtpp_opt_b3lyp_tzvp.xyz
|  9> 
| 10>                          ****END OF INPUT****
================================================================================

                       ****************************
                       * Single Point Calculation *
                       ****************************

---------------------------------
CARTESIAN COORDINATES (ANGSTROEM)
---------------------------------
  N     -2.132782    2.520982    3.513584
  H      1.679617   -2.258823    3.910366
  C     -4.375479    3.011680    3.504687
  C     -0.398226   -1.579010    3.872638
  N      0.090830    0.653535    3.656021
  C      0.954286   -1.465385    3.843438
  H     -0.977688   -2.482435    3.962791
  C      2.868723    1.838465    3.504305
  N     -0.260569    4.732470    3.276338
  C     -1.123876    6.851501    3.089028
  C      2.556883    0.474350    3.636098
  C      2.680107    4.027385    3.292968
  N      1.962924    2.864942    3.418265
  C      4.089820    3.721502    3.302785
  C     -0.939102   -0.246509    3.759221
  C      1.259741   -0.062511    3.703416
  C     -2.850174    1.358051    3.633086
  C     -3.038341    3.548279    3.434420
  C     -4.259729    1.665028    3.631888
  C     -2.309465    0.065876    3.749063
  C     -2.726504    4.911917    3.298069
  C      4.205746    2.374704    3.428271
  C     -1.429470    5.448150    3.224446
  C      0.228548    6.964522    3.054127
  C      2.139518    5.319764    3.180041
  C      0.769411    5.632748    3.175667
  H     -5.283234    3.589919    3.462669
  H     -5.055915    0.944668    3.717118
  H      5.113506    1.796209    3.466048
  H      4.885916    4.442736    3.224054
  H      0.808093    7.867022    2.955342
  H     -1.849084    7.645562    3.028370
  Mg    -0.084919    2.692996    3.466091
  C      3.703495   -0.488201    3.711904
  C      4.101097   -1.215525    2.587737
  C      5.165592   -2.108030    2.657336
  C      5.849374   -2.288349    3.854678
  C      5.462233   -1.570166    4.980745
  C      4.398318   -0.677200    4.908689
  H      3.572273   -1.076734    1.652653
  H      5.461204   -2.660972    1.774105
  H      6.677910   -2.983489    3.909795
  H      5.987070   -1.705473    5.918549
  H      4.098897   -0.121111    5.788694
  C     -3.274743   -1.074068    3.873336
  C     -3.919889   -1.589806    2.746971
  C     -4.815224   -2.648008    2.861564
  C     -5.081050   -3.207004    4.106767
  C     -4.445489   -2.701389    5.235531
  C     -3.549452   -1.644091    5.118594
  H     -3.714517   -1.158773    1.774687
  H     -5.303562   -3.036316    1.976146
  H     -5.778536   -4.030491    4.196889
  H     -4.647956   -3.128218    6.210244
  H     -3.058018   -1.252160    6.000733
  C     -3.872844    5.874939    3.223553
  C     -4.310229    6.369574    1.992756
  C     -5.373793    7.263047    1.921894
  C     -6.016961    7.677520    3.083040
  C     -5.590067    7.192252    4.314284
  C     -4.527122    6.297837    4.382858
  H     -3.813083    6.048242    1.085609
  H     -5.700324    7.633616    0.957908
  H     -6.844813    8.373553    3.028823
  H     -6.083198    7.510781    5.224553
  H     -4.196875    5.923693    5.344245
  C      3.105171    6.459067    3.051802
  C      3.692305    6.761120    1.820939
  C      4.588737    7.817613    1.699925
  C      4.913564    8.589219    2.810246
  C      4.335714    8.297774    4.041028
  C      3.438490    7.241601    4.159639
  H      3.440981    6.163649    0.953078
  H      5.031793    8.038132    0.736437
  H      5.611836    9.411705    2.717096
  H      4.584023    8.891578    4.912210
  H      2.992103    7.017052    5.120716

----------------------------
CARTESIAN COORDINATES (A.U.)
----------------------------
  NO LB      ZA    FRAG     MASS         X           Y           Z
   0 N     7.0000    0    14.007   -4.030373    4.763966    6.639711
   1 H     1.0000    0     1.008    3.174016   -4.268557    7.389520
   2 C     6.0000    0    12.011   -8.268457    5.691251    6.622899
   3 C     6.0000    0    12.011   -0.752537   -2.983896    7.318226
   4 N     7.0000    0    14.007    0.171644    1.235003    6.908878
   5 C     6.0000    0    12.011    1.803339   -2.769176    7.263045
   6 H     1.0000    0     1.008   -1.847562   -4.691123    7.488589
   7 C     6.0000    0    12.011    5.421100    3.474195    6.622177
   8 N     7.0000    0    14.007   -0.492404    8.943073    6.191381
   9 C     6.0000    0    12.011   -2.123818   12.947460    5.837416
  10 C     6.0000    0    12.011    4.831809    0.896392    6.871230
  11 C     6.0000    0    12.011    5.064669    7.610655    6.222807
  12 N     7.0000    0    14.007    3.709389    5.413957    6.459585
  13 C     6.0000    0    12.011    7.728640    7.032619    6.241359
  14 C     6.0000    0    12.011   -1.774645   -0.465835    7.103898
  15 C     6.0000    0    12.011    2.380565   -0.118129    6.998441
  16 C     6.0000    0    12.011   -5.386048    2.566345    6.865537
  17 C     6.0000    0    12.011   -5.741633    6.705275    6.490113
  18 C     6.0000    0    12.011   -8.049721    3.146447    6.863274
  19 C     6.0000    0    12.011   -4.364257    0.124488    7.084702
  20 C     6.0000    0    12.011   -5.152345    9.282177    6.232447
  21 C     6.0000    0    12.011    7.947708    4.487541    6.478494
  22 C     6.0000    0    12.011   -2.701306   10.295511    6.093319
  23 C     6.0000    0    12.011    0.431893   13.161039    5.771463
  24 C     6.0000    0    12.011    4.043102   10.052896    6.009407
  25 C     6.0000    0    12.011    1.453976   10.644352    6.001141
  26 H     1.0000    0     1.008   -9.983866    6.783964    6.543496
  27 H     1.0000    0     1.008   -9.554295    1.785164    7.024335
  28 H     1.0000    0     1.008    9.663125    3.394342    6.549882
  29 H     1.0000    0     1.008    9.233044    8.395555    6.092579
  30 H     1.0000    0     1.008    1.527075   14.866517    5.584787
  31 H     1.0000    0     1.008   -3.494263   14.448018    5.722789
  32 Mg   12.0000    0    24.305   -0.160474    5.089025    6.549963
  33 C     6.0000    0    12.011    6.998591   -0.922565    7.014483
  34 C     6.0000    0    12.011    7.749950   -2.297008    4.890114
  35 C     6.0000    0    12.011    9.761555   -3.983599    5.021637
  36 C     6.0000    0    12.011   11.053714   -4.324353    7.284286
  37 C     6.0000    0    12.011   10.322124   -2.967184    9.412244
  38 C     6.0000    0    12.011    8.311617   -1.279722    9.276078
  39 H     1.0000    0     1.008    6.750618   -2.034732    3.123061
  40 H     1.0000    0     1.008   10.320181   -5.028509    3.352573
  41 H     1.0000    0     1.008   12.619421   -5.637977    7.388441
  42 H     1.0000    0     1.008   11.313922   -3.222877   11.184437
  43 H     1.0000    0     1.008    7.745793   -0.228867   10.939046
  44 C     6.0000    0    12.011   -6.188368   -2.029695    7.319544
  45 C     6.0000    0    12.011   -7.407517   -3.004298    5.191024
  46 C     6.0000    0    12.011   -9.099455   -5.004009    5.407573
  47 C     6.0000    0    12.011   -9.601794   -6.060359    7.760665
  48 C     6.0000    0    12.011   -8.400756   -5.104886    9.893719
  49 C     6.0000    0    12.011   -6.707493   -3.106883    9.672741
  50 H     1.0000    0     1.008   -7.019420   -2.189764    3.353672
  51 H     1.0000    0     1.008  -10.022280   -5.737807    3.734374
  52 H     1.0000    0     1.008  -10.919851   -7.616524    7.930970
  53 H     1.0000    0     1.008   -8.783365   -5.911476   11.735661
  54 H     1.0000    0     1.008   -5.778817   -2.366239   11.339742
  55 C     6.0000    0    12.011   -7.318615   11.102027    6.091633
  56 C     6.0000    0    12.011   -8.145153   12.036751    3.765764
  57 C     6.0000    0    12.011  -10.154997   13.725171    3.631853
  58 C     6.0000    0    12.011  -11.370408   14.508411    5.826101
  59 C     6.0000    0    12.011  -10.563696   13.591387    8.152815
  60 C     6.0000    0    12.011   -8.555020   11.901188    8.282401
  61 H     1.0000    0     1.008   -7.205683   11.429521    2.051503
  62 H     1.0000    0     1.008  -10.772052   14.425444    1.810183
  63 H     1.0000    0     1.008  -12.934822   15.823721    5.723646
  64 H     1.0000    0     1.008  -11.495578   14.193319    9.872973
  65 H     1.0000    0     1.008   -7.930944   11.194158   10.099160
  66 C     6.0000    0    12.011    5.867923   12.205869    5.767071
  67 C     6.0000    0    12.011    6.977445   12.776665    3.441075
  68 C     6.0000    0    12.011    8.671457   14.773148    3.212392
  69 C     6.0000    0    12.011    9.285290   16.231272    5.310596
  70 C     6.0000    0    12.011    8.193312   15.680520    7.636437
  71 C     6.0000    0    12.011    6.497804   13.684643    7.860578
  72 H     1.0000    0     1.008    6.502511   11.647608    1.801056
  73 H     1.0000    0     1.008    9.508710   15.189868    1.391664
  74 H     1.0000    0     1.008   10.604834   17.785546    5.134567
  75 H     1.0000    0     1.008    8.662547   16.802648    9.282732
  76 H     1.0000    0     1.008    5.654254   13.260307    9.676751

--------------------------------
INTERNAL COORDINATES (ANGSTROEM)
--------------------------------
 N      0   0   0     0.000000000000     0.00000000     0.00000000
 H      1   0   0     6.126855329357     0.00000000     0.00000000
 C      1   2   0     2.295769133195   140.79213807     0.00000000
 C      2   1   3     2.186549708108    33.38660231     0.36505468
 N      4   2   1     2.295725821932    95.82788655     0.09095297
 C      2   1   3     1.077092693640     3.85150056     2.09162491
 H      4   2   1     1.077070819340   104.41978534   179.96288643
 C      5   4   2     3.023865266525   125.55676336     0.11166825
 N      1   2   6     2.907257362329   101.42052387   181.91422582
 C      9   1   2     2.295795178635   117.81429197   180.02242555
 C      8   5   4     1.405496899374    53.92458718     0.03779823
 C      8   5   4     2.207172589612   108.35589016   179.76307688
 N     12   8   5     1.371613516291    36.43262200     0.17329619
 C     12   8   5     1.442550076138    72.87533357   180.07415276
 C      5   4   2     1.371674426107    36.37427985   180.37251744
 C      5   4   2     1.371612574923    70.76800154     0.23219254
 C      1   2   6     1.371619575259    70.02341670     1.85612268
 C      1   2   6     1.371730087584   177.15630369     5.97587101
 C      3   1   2     1.357589890726    72.80216719   359.95304185
 C     17   1   2     1.405536565970   125.83487943     0.09366032
 C     18   1  17     1.405469067731   125.85546027   180.26559898
 C     14  12   8     1.357589360726   107.12361011     0.19983052
 C      9   1   2     1.371575077204    81.44175047   179.94495588
 C     10   9   1     1.357587276934    72.80232389   180.16933284
 C     12   8   5     1.405429467262   162.27344014     0.83813114
 C      9   1   2     1.371675707321   171.41952863     0.03824775
 H      3   1   2     1.077100496928   159.74999488   180.25953249
 H     19   3   1     1.077077338377   127.43130158   179.82791890
 H     22  14  12     1.077084983978   127.44744025   179.69739367
 H     14  12   8     1.077101086105   125.43663657   180.20366353
 H     24  10   9     1.077096534207   127.45443232   179.85753388
 H     10   9   1     1.077097541933   159.75828880     0.53310854
 Mg    13  12   8     2.055606050552   126.43550651   180.06019481
 C     11   8   5     1.498989282988   117.27452497   180.13304197
 C     34  11   8     1.396724581542   120.75894288   260.01689972
 C     35  34  11     1.390884488100   120.77967458   179.95157356
 C     36  35  34     1.390575596770   120.17416869     0.06383067
 C     37  36  35     1.390572269206   119.56359354   359.96393605
 C     38  37  36     1.390861247794   120.17158367   359.97314775
 H     35  34  11     1.083189366330   119.28215266     0.12320002
 H     36  35  34     1.083156650446   119.71220349   180.18132819
 H     37  36  35     1.082926322306   120.21696134   179.96439740
 H     38  37  36     1.083161349761   120.11258722   179.85120178
 H     39  38  37     1.083188138256   119.93128689   179.88961748
 C     20  17   1     1.498892464170   117.27635023   179.83555470
 C     45  20  17     1.396744746557   120.75805895    79.50356453
 C     46  45  20     1.390880167394   120.78473073   179.96907332
 C     47  46  45     1.390564385753   120.17705909     0.07442139
 C     48  47  46     1.390572934770   119.56006095   359.97047586
 C     49  48  47     1.390839370010   120.17276971   359.96185086
 H     46  45  20     1.083191573814   119.29758564     0.15759396
 H     47  46  45     1.083154294075   119.71071430   180.18273845
 H     48  47  46     1.082930826873   120.22050345   179.95838139
 H     49  48  47     1.083163400019   120.11519157   179.83114167
 H     50  49  48     1.083183905041   119.92580323   179.88660474
 C     21  18   1     1.499020289368   117.28798408   179.72398695
 C     56  21  18     1.396721410460   120.71653922   260.55104232
 C     57  56  21     1.390856932927   120.78737548   179.99292393
 C     58  57  56     1.390579796248   120.17255169     0.05877075
 C     59  58  57     1.390570153966   119.55994938   359.96611660
 C     60  59  58     1.390875025766   120.17707541   359.97196552
 H     57  56  21     1.083201529200   119.28811259     0.14261226
 H     58  57  56     1.083149767515   119.71220131   180.16232012
 H     59  58  57     1.082931272380   120.22123367   179.96845591
 H     60  59  58     1.083156416554   120.11314103   179.86695053
 H     61  60  59     1.083195532775   119.92563663   179.89758366
 C     25  12   8     1.498981196444   117.25803690   179.52387829
 C     67  25  12     1.396777768498   120.69986376    80.52329734
 C     68  67  25     1.390831652439   120.78822075   180.01410426
 C     69  68  67     1.390576172584   120.17081329     0.05908974
 C     70  69  68     1.390566770699   119.56087131   359.96273928
 C     71  70  69     1.390892103912   120.17793429   359.97535578
 H     68  67  25     1.083198152583   119.28960554     0.16639622
 H     69  68  67     1.083159804820   119.71470417   180.16298856
 H     70  69  68     1.082933302780   120.22323348   179.96819721
 H     71  70  69     1.083152161424   120.11387427   179.86380867
 H     72  71  70     1.083214366481   119.92750176   179.89120147

---------------------------
INTERNAL COORDINATES (A.U.)
---------------------------
 N      0   0   0     0.000000000000     0.00000000     0.00000000
 H      1   0   0    11.578078634640     0.00000000     0.00000000
 C      1   2   0     4.338374928449   140.79213807     0.00000000
 C      2   1   3     4.131980126529    33.38660231     0.36505468
 N      4   2   1     4.338293082022    95.82788655     0.09095297
 C      2   1   3     2.035410211826     3.85150056     2.09162491
 H      4   2   1     2.035368875391   104.41978534   179.96288643
 C      5   4   2     5.714277219608   125.55676336     0.11166825
 N      1   2   6     5.493920215627   101.42052387   181.91422582
 C      9   1   2     4.338424147198   117.81429197   180.02242555
 C      8   5   4     2.656004221892    53.92458718     0.03779823
 C      8   5   4     4.170951724664   108.35589016   179.76307688
 N     12   8   5     2.591973907374    36.43262200     0.17329619
 C     12   8   5     2.726024578368    72.87533357   180.07415276
 C      5   4   2     2.592089010246    36.37427985   180.37251744
 C      5   4   2     2.591972128447    70.76800154     0.23219254
 C      1   2   6     2.591985357166    70.02341670     1.85612268
 C      1   2   6     2.592194195193   177.15630369     5.97587101
 C      3   1   2     2.565473095651    72.80216719   359.95304185
 C     17   1   2     2.656079180895   125.83487943     0.09366032
 C     18   1  17     2.655951627710   125.85546027   180.26559898
 C     14  12   8     2.565472094097   107.12361011     0.19983052
 C      9   1   2     2.591901268027    81.44175047   179.94495588
 C     10   9   1     2.565468156301    72.80232389   180.16933284
 C     12   8   5     2.655876793668   162.27344014     0.83813114
 C      9   1   2     2.592091431390   171.41952863     0.03824775
 H      3   1   2     2.035424957904   159.74999488   180.25953249
 H     19   3   1     2.035381194584   127.43130158   179.82791890
 H     22  14  12     2.035395642677   127.44744025   179.69739367
 H     14  12   8     2.035426071288   125.43663657   180.20366353
 H     24  10   9     2.035417469446   127.45443232   179.85753388
 H     10   9   1     2.035419373773   159.75828880     0.53310854
 Mg    13  12   8     3.884532474774   126.43550651   180.06019481
 C     11   8   5     2.832679222530   117.27452497   180.13304197
 C     34  11   8     2.639426943631   120.75894288   260.01689972
 C     35  34  11     2.628390766428   120.77967458   179.95157356
 C     36  35  34     2.627807046409   120.17416869     0.06383067
 C     37  36  35     2.627800758224   119.56359354   359.96393605
 C     38  37  36     2.628346848615   120.17158367   359.97314775
 H     35  34  11     2.046931253539   119.28215266     0.12320002
 H     36  35  34     2.046869429478   119.71220349   180.18132819
 H     37  36  35     2.046434172373   120.21696134   179.96439740
 H     38  37  36     2.046878309898   120.11258722   179.85120178
 H     39  38  37     2.046928932815   119.93128689   179.88961748
 C     20  17   1     2.832496261479   117.27635023   179.83555470
 C     45  20  17     2.639465049985   120.75805895    79.50356453
 C     46  45  20     2.628382601477   120.78473073   179.96907332
 C     47  46  45     2.627785860657   120.17705909     0.07442139
 C     48  47  46     2.627802015959   119.56006095   359.97047586
 C     49  48  47     2.628305505594   120.17276971   359.96185086
 H     46  45  20     2.046935425080   119.29758564     0.15759396
 H     47  46  45     2.046864976583   119.71071430   180.18273845
 H     48  47  46     2.046442684772   120.22050345   179.95838139
 H     49  48  47     2.046882184323   120.11519157   179.83114167
 H     50  49  48     2.046920933199   119.92580323   179.88660474
 C     21  18   1     2.832737816097   117.28798408   179.72398695
 C     56  21  18     2.639420951153   120.71653922   260.55104232
 C     57  56  21     2.628338694698   120.78737548   179.99292393
 C     58  57  56     2.627814982273   120.17255169     0.05877075
 C     59  58  57     2.627796761001   119.55994938   359.96611660
 C     60  59  58     2.628372885207   120.17707541   359.97196552
 H     57  56  21     2.046954238033   119.28811259     0.14261226
 H     58  57  56     2.046856422624   119.71220131   180.16232012
 H     59  58  57     2.046443526657   120.22123367   179.96845591
 H     60  59  58     2.046868987487   120.11314103   179.86695053
 H     61  60  59     2.046942906433   119.92563663   179.89758366
 C     25  12   8     2.832663941177   117.25803690   179.52387829
 C     67  25  12     2.639527452411   120.69986376    80.52329734
 C     68  67  25     2.628290921499   120.78822075   180.01410426
 C     69  68  67     2.627808134540   120.17081329     0.05908974
 C     70  69  68     2.627790367553   119.56087131   359.96273928
 C     71  70  69     2.628405158227   120.17793429   359.97535578
 H     68  67  25     2.046947857152   119.28960554     0.16639622
 H     69  68  67     2.046875390382   119.71470417   180.16298856
 H     70  69  68     2.046447363557   120.22323348   179.96819721
 H     71  70  69     2.046860946455   120.11387427   179.86380867
 H     72  71  70     2.046978496977   119.92750176   179.89120147

---------------------
BASIS SET INFORMATION
---------------------
There are 4 groups of distinct atoms

 Group   1 Type N   : 11s6p2d1f contracted to 5s3p2d1f pattern {62111/411/11/1}
 Group   2 Type H   : 5s1p contracted to 3s1p pattern {311/1}
 Group   3 Type C   : 11s6p2d1f contracted to 5s3p2d1f pattern {62111/411/11/1}
 Group   4 Type Mg  : 14s8p3d contracted to 5s4p3d pattern {73211/5111/111}

Atom   0N    basis set group =>   1
Atom   1H    basis set group =>   2
Atom   2C    basis set group =>   3
Atom   3C    basis set group =>   3
Atom   4N    basis set group =>   1
Atom   5C    basis set group =>   3
Atom   6H    basis set group =>   2
Atom   7C    basis set group =>   3
Atom   8N    basis set group =>   1
Atom   9C    basis set group =>   3
Atom  10C    basis set group =>   3
Atom  11C    basis set group =>   3
Atom  12N    basis set group =>   1
Atom  13C    basis set group =>   3
Atom  14C    basis set group =>   3
Atom  15C    basis set group =>   3
Atom  16C    basis set group =>   3
Atom  17C    basis set group =>   3
Atom  18C    basis set group =>   3
Atom  19C    basis set group =>   3
Atom  20C    basis set group =>   3
Atom  21C    basis set group =>   3
Atom  22C    basis set group =>   3
Atom  23C    basis set group =>   3
Atom  24C    basis set group =>   3
Atom  25C    basis set group =>   3
Atom  26H    basis set group =>   2
Atom  27H    basis set group =>   2
Atom  28H    basis set group =>   2
Atom  29H    basis set group =>   2
Atom  30H    basis set group =>   2
Atom  31H    basis set group =>   2
Atom  32Mg   basis set group =>   4
Atom  33C    basis set group =>   3
Atom  34C    basis set group =>   3
Atom  35C    basis set group =>   3
Atom  36C    basis set group =>   3
Atom  37C    basis set group =>   3
Atom  38C    basis set group =>   3
Atom  39H    basis set group =>   2
Atom  40H    basis set group =>   2
Atom  41H    basis set group =>   2
Atom  42H    basis set group =>   2
Atom  43H    basis set group =>   2
Atom  44C    basis set group =>   3
Atom  45C    basis set group =>   3
Atom  46C    basis set group =>   3
Atom  47C    basis set group =>   3
Atom  48C    basis set group =>   3
Atom  49C    basis set group =>   3
Atom  50H    basis set group =>   2
Atom  51H    basis set group =>   2
Atom  52H    basis set group =>   2
Atom  53H    basis set group =>   2
Atom  54H    basis set group =>   2
Atom  55C    basis set group =>   3
Atom  56C    basis set group =>   3
Atom  57C    basis set group =>   3
Atom  58C    basis set group =>   3
Atom  59C    basis set group =>   3
Atom  60C    basis set group =>   3
Atom  61H    basis set group =>   2
Atom  62H    basis set group =>   2
Atom  63H    basis set group =>   2
Atom  64H    basis set group =>   2
Atom  65H    basis set group =>   2
Atom  66C    basis set group =>   3
Atom  67C    basis set group =>   3
Atom  68C    basis set group =>   3
Atom  69C    basis set group =>   3
Atom  70C    basis set group =>   3
Atom  71C    basis set group =>   3
Atom  72H    basis set group =>   2
Atom  73H    basis set group =>   2
Atom  74H    basis set group =>   2
Atom  75H    basis set group =>   2
Atom  76H    basis set group =>   2
---------------------------------
AUXILIARY/J BASIS SET INFORMATION
---------------------------------
There are 4 groups of distinct atoms

 Group   1 Type N   : 12s5p4d2f1g contracted to 6s4p3d1f1g pattern {711111/2111/211/2/1}
 Group   2 Type H   : 5s2p1d contracted to 3s1p1d pattern {311/2/1}
 Group   3 Type C   : 12s5p4d2f1g contracted to 6s4p3d1f1g pattern {711111/2111/211/2/1}
 Group   4 Type Mg  : 14s5p5d2f1g contracted to 8s4p4d1f1g pattern {71111111/2111/2111/2/1}

Atom   0N    basis set group =>   1
Atom   1H    basis set group =>   2
Atom   2C    basis set group =>   3
Atom   3C    basis set group =>   3
Atom   4N    basis set group =>   1
Atom   5C    basis set group =>   3
Atom   6H    basis set group =>   2
Atom   7C    basis set group =>   3
Atom   8N    basis set group =>   1
Atom   9C    basis set group =>   3
Atom  10C    basis set group =>   3
Atom  11C    basis set group =>   3
Atom  12N    basis set group =>   1
Atom  13C    basis set group =>   3
Atom  14C    basis set group =>   3
Atom  15C    basis set group =>   3
Atom  16C    basis set group =>   3
Atom  17C    basis set group =>   3
Atom  18C    basis set group =>   3
Atom  19C    basis set group =>   3
Atom  20C    basis set group =>   3
Atom  21C    basis set group =>   3
Atom  22C    basis set group =>   3
Atom  23C    basis set group =>   3
Atom  24C    basis set group =>   3
Atom  25C    basis set group =>   3
Atom  26H    basis set group =>   2
Atom  27H    basis set group =>   2
Atom  28H    basis set group =>   2
Atom  29H    basis set group =>   2
Atom  30H    basis set group =>   2
Atom  31H    basis set group =>   2
Atom  32Mg   basis set group =>   4
Atom  33C    basis set group =>   3
Atom  34C    basis set group =>   3
Atom  35C    basis set group =>   3
Atom  36C    basis set group =>   3
Atom  37C    basis set group =>   3
Atom  38C    basis set group =>   3
Atom  39H    basis set group =>   2
Atom  40H    basis set group =>   2
Atom  41H    basis set group =>   2
Atom  42H    basis set group =>   2
Atom  43H    basis set group =>   2
Atom  44C    basis set group =>   3
Atom  45C    basis set group =>   3
Atom  46C    basis set group =>   3
Atom  47C    basis set group =>   3
Atom  48C    basis set group =>   3
Atom  49C    basis set group =>   3
Atom  50H    basis set group =>   2
Atom  51H    basis set group =>   2
Atom  52H    basis set group =>   2
Atom  53H    basis set group =>   2
Atom  54H    basis set group =>   2
Atom  55C    basis set group =>   3
Atom  56C    basis set group =>   3
Atom  57C    basis set group =>   3
Atom  58C    basis set group =>   3
Atom  59C    basis set group =>   3
Atom  60C    basis set group =>   3
Atom  61H    basis set group =>   2
Atom  62H    basis set group =>   2
Atom  63H    basis set group =>   2
Atom  64H    basis set group =>   2
Atom  65H    basis set group =>   2
Atom  66C    basis set group =>   3
Atom  67C    basis set group =>   3
Atom  68C    basis set group =>   3
Atom  69C    basis set group =>   3
Atom  70C    basis set group =>   3
Atom  71C    basis set group =>   3
Atom  72H    basis set group =>   2
Atom  73H    basis set group =>   2
Atom  74H    basis set group =>   2
Atom  75H    basis set group =>   2
Atom  76H    basis set group =>   2


           ************************************************************
           *        Program running with 8 parallel MPI-processes     *
           *              working on a common directory               *
           ************************************************************
------------------------------------------------------------------------------
                             ORCA STARTUP CALCULATIONS
                           -- RI-GTO INTEGRALS CHOSEN --
------------------------------------------------------------------------------
------------------------------------------------------------------------------
                   ___                                                        
                  /   \      - P O W E R E D   B Y -                         
                 /     \                                                     
                 |  |  |   _    _      __       _____    __    __             
                 |  |  |  | |  | |    /  \     |  _  \  |  |  /  |          
                  \  \/   | |  | |   /    \    | | | |  |  | /  /          
                 / \  \   | |__| |  /  /\  \   | |_| |  |  |/  /          
                |  |  |   |  __  | /  /__\  \  |    /   |      \           
                |  |  |   | |  | | |   __   |  |    \   |  |\   \          
                \     /   | |  | | |  |  |  |  | |\  \  |  | \   \       
                 \___/    |_|  |_| |__|  |__|  |_| \__\ |__|  \__/        
                                                                              
                      - O R C A' S   B I G   F R I E N D -                    
                                      &                                       
                       - I N T E G R A L  F E E D E R -                       
                                                                              
 v1 FN, 2020, v2 2021, v3 2022-2024                                           
------------------------------------------------------------------------------


----------------------
SHARK INTEGRAL PACKAGE
----------------------

Number of atoms                             ...     77
Number of basis functions                   ...   1688
Number of shells                            ...    652
Maximum angular momentum                    ...      3
Integral batch strategy                     ... SHARK/LIBINT Hybrid
RI-J (if used) integral strategy            ... SPLIT-RIJ (Revised 2003 algorithm where possible)
Printlevel                                  ...      1
Contraction scheme used                     ... SEGMENTED contraction
Prescreening option                         ... SCHWARTZ
   Thresh                                   ... 2.500e-11
   Tcut                                     ... 2.500e-12
   Tpresel                                  ... 2.500e-12 
Coulomb Range Separation                    ... NOT USED
Exchange Range Separation                   ... NOT USED
Multipole approximations                    ... NOT USED
Finite Nucleus Model                        ... NOT USED
CABS basis                                  ... NOT available
Auxiliary Coulomb fitting basis             ... AVAILABLE
   # of basis functions in Aux-J            ...   2716
   # of shells in Aux-J                     ...    878
   Maximum angular momentum in Aux-J        ...      4
Auxiliary J/K fitting basis                 ... NOT available
Auxiliary Correlation fitting basis         ... NOT available
Auxiliary 'external' fitting basis          ... NOT available

Checking pre-screening integrals            ... done (  0.0 sec) Dimension = 652
   => SHARK Basis and OBASIS are compatible. Storing Pre-screening
Shell pair information
Shell pair cut-off parameter TPreSel        ...   2.5e-12
Total number of shell pairs                 ...    212878
Shell pairs after pre-screening             ...    103183
Total number of primitive shell pairs       ...    666456
Primitive shell pairs kept                  ...    198892
          la=0 lb=0:  24577 shell pairs
          la=1 lb=0:  30403 shell pairs
          la=1 lb=1:   9285 shell pairs
          la=2 lb=0:  14681 shell pairs
          la=2 lb=1:   9224 shell pairs
          la=2 lb=2:   2210 shell pairs
          la=3 lb=0:   6441 shell pairs
          la=3 lb=1:   4108 shell pairs
          la=3 lb=2:   1824 shell pairs
          la=3 lb=3:    430 shell pairs

Checking whether 4 symmetric matrices of dimension 1688 fit in memory
:Max Core in MB      =   3000.00
 MB in use           =    125.94
 MB left             =   2874.06
 MB needed           =     43.50
 Data fit in memory  = YES
Calculating RI/J V-Matrix + Cholesky decomp.... done (  0.9 sec)
Calculating Nuclear repulsion               ... done (  0.0 sec) ENN=   5749.715742335587 Eh

Diagonalization of the overlap matrix:
Smallest eigenvalue                        ... 2.991e-06
Time for diagonalization                   ...    1.177 sec
Threshold for overlap eigenvalues          ... 1.000e-07
Number of eigenvalues below threshold      ... 0
Time for construction of square roots      ...    0.437 sec
Total time needed                          ...    1.787 sec

-------------------
DFT GRID GENERATION
-------------------

General Integration Accuracy     IntAcc      ... 4.959
Radial Grid Type                 RadialGrid  ... OptM3 with GC (2021)
Angular Grid (max. ang.)         AngularGrid ... 6 (Lebedev-590)
Angular grid pruning method      GridPruning ... 4 (adaptive)
Weight generation scheme         WeightScheme... mBecke (2022)
Basis function cutoff            BFCut       ... 1.0000e-11
Integration weight cutoff        WCut        ... 1.0000e-14
Partially contracted basis set               ... off
Rotationally invariant grid construction     ... off
Angular grids for H and He will be reduced by one unit

Total number of grid points                  ...   926618
Total number of batches                      ...    14522
Average number of points per batch           ...       63
Average number of grid points per atom       ...    12034
Grids setup in  18.1 sec
Initializing property integral containers    ... done (  0.0 sec)

SHARK setup successfully completed in  23.3 seconds

Maximum memory used throughout the entire STARTUP-calculation: 301.1 MB


           ************************************************************
           *        Program running with 8 parallel MPI-processes     *
           *              working on a common directory               *
           ************************************************************
-------------------------------------------------------------------------------
                                 ORCA GUESS
                   Start orbitals & Density for SCF / CASSCF
-------------------------------------------------------------------------------

------------
SCF SETTINGS
------------
Hamiltonian:
 Density Functional     Method          .... DFT(GTOs)
 Exchange Functional    Exchange        .... TPSS
 Correlation Functional Correlation     .... TPSS
 LDA part of GGA corr.  LDAOpt          .... PW91-LDA
 Gradients option       PostSCFGGA      .... off
   NL short-range parameter             ....  5.000000
 RI-approximation to the Coulomb term is turned on
   Number of AuxJ basis functions       .... 2716


General Settings:
 Integral files         IntName         .... tddft
 Hartree-Fock type      HFTyp           .... RHF
 Total Charge           Charge          ....    0
 Multiplicity           Mult            ....    1
 Number of Electrons    NEL             ....  332
 Basis Dimension        Dim             .... 1688
 Nuclear Repulsion      ENuc            ....   5749.7157423356 Eh

Convergence Acceleration:
 AO-DIIS                CNVDIIS         .... on
   Start iteration      DIISMaxIt       ....    12
   Startup error        DIISStart       ....  0.200000
   # of expansion vecs  DIISMaxEq       ....     5
   Bias factor          DIISBfac        ....   1.050
   Max. coefficient     DIISMaxC        ....  10.000
 MO-DIIS                CNVKDIIS        .... off
 Trust-Rad. Augm. Hess. CNVTRAH         .... auto
   Auto Start mean grad. ratio tolernc. ....  1.125000
   Auto Start start iteration           ....    50
   Auto Start num. interpolation iter.  ....    10
   Max. Number of Micro iterations      ....    24
   Max. Number of Macro iterations      .... Maxiter - #DIIS iter
   Number of Davidson start vectors     ....     2
   Converg. threshold    (grad. norm)   ....   1.000e-05
   Grad. Scal. Fac. for Micro threshold ....   0.100
   Minimum threshold for Micro iter.    ....   1.000e-02
   NR start threshold (gradient norm)   ....   1.000e-04
   Initial trust radius                 ....   0.400
   Minimum AH scaling param. (alpha)    ....   1.000
   Maximum AH scaling param. (alpha)    .... 1000.000
   Quad. conv. algorithm                .... NR
   White noise on init. David. guess    .... on
   Maximum white noise                  ....   0.010
   Pseudo random numbers                .... off
   Inactive MOs                         .... canonical
   Orbital update algorithm             .... Taylor
   Preconditioner                       .... Diag
   Full preconditioner red. dimension   ....   250
 SOSCF                 CNVSOSCF           .... on
   Start iteration     SOSCFMaxIt         ....   150
   Startup grad/error  SOSCFStart         ....  0.003300
   Hessian update      SOSCFHessUp        .... L-BFGS
   Autom. constraints  SOSCFAutoConstrain .... off
 Level Shifting         CNVShift        .... on
   Level shift para.    LevelShift      ....    0.2500
   Turn off err/grad.   ShiftErr        ....    0.0010
 Zerner damping         CNVZerner       .... off
 Static damping         CNVDamp         .... on
   Fraction old density DampFac         ....    0.7000
   Max. Damping (<1)    DampMax         ....    0.9800
   Min. Damping (>=0)   DampMin         ....    0.0000
   Turn off err/grad.   DampErr         ....    0.1000

SCF Procedure:
 Maximum # iterations   MaxIter         ....   125
 SCF integral mode      SCFMode         .... Direct
   Integral package                     .... SHARK and LIBINT hybrid scheme
 Reset frequency        DirectResetFreq ....    20
 Integral Threshold     Thresh          ....  2.500e-11 Eh
 Primitive CutOff       TCut            ....  2.500e-12 Eh

Convergence Tolerance:
 Convergence Check Mode ConvCheckMode   .... Total+1el-Energy
 Convergence forced     ConvForced      .... 1
 Energy Change          TolE            ....  1.000e-08 Eh
 1-El. energy change                    ....  1.000e-05 Eh
 Orbital Gradient       TolG            ....  1.000e-05
 Orbital Rotation angle TolX            ....  1.000e-05
 DIIS Error             TolErr          ....  5.000e-07

------------------------------
INITIAL GUESS: MODEL POTENTIAL
------------------------------
Loading Hartree-Fock densities                     ... done
Calculating cut-offs                               ... done
Initializing the effective Hamiltonian             ... done
Setting up the integral package (SHARK)            ... done
Starting the Coulomb interaction                   ... done (   5.1 sec)
Making the grid                                    ... done (   1.3 sec)
Mapping shells                                     ... done
Starting the XC term evaluation                    ... done (   1.6 sec)
  promolecular density results
     # of electrons  =    331.986215612
     EX              =   -275.603230785
     EC              =    -11.222706759
     EX+EC           =   -286.825937544
Transforming the Hamiltonian                       ... done (   0.4 sec)
Diagonalizing the Hamiltonian                      ... done (   0.7 sec)
Back transforming the eigenvectors                 ... done (   0.2 sec)
Now organizing SCF variables                       ... done
                      ------------------
                      INITIAL GUESS DONE (   9.5 sec)
                      ------------------
             **** ENERGY FILE WAS UPDATED (tddft.en.tmp) ****
Finished Guess after  11.6 sec
Maximum memory used throughout the entire GUESS-calculation: 204.1 MB


           ************************************************************
           *        Program running with 8 parallel MPI-processes     *
           *              working on a common directory               *
           ************************************************************

-------------------------------------------------------------------------------------------
                                      ORCA LEAN-SCF
                              memory conserving SCF solver
-------------------------------------------------------------------------------------------

--------------------
CPCM SOLVATION MODEL
--------------------
CPCM parameters:
  Epsilon                                         ...       2.3870
  Refrac                                          ...       1.4961
  Rsolv                                           ...       1.3000
  Surface type                                    ... GAUSSIAN VDW
  Discretization scheme                           ... Constant charge density
    Threshold for H atoms                         ...       5.0000 (charges/Ang^2)
    Threshold for non-H atoms                     ...       5.0000 (charges/Ang^2)
  Epsilon function type                           ...         CPCM
Solvent:                                          ... TOLUENE
Radii:
  Scheme                                          ... Element-dependent radii
  Radius for N  used is    3.5149 Bohr (=   1.8600 Ang.)
  Radius for H  used is    2.4944 Bohr (=   1.3200 Ang.)
  Radius for C  used is    3.8550 Bohr (=   2.0400 Ang.)
  Radius for Mg used is    3.9231 Bohr (=   2.0760 Ang.)
Calculating surface                               ...        done! (  0.1s)
Cavity surface points                             ...         6820
Cavity Volume                                     ...    4949.3392
Cavity Surface-area                               ...    2291.9203
Calculating surface distance matrix               ...        done! (  1.4s)
Performing Cholesky decomposition & store         ...        done! (  3.1s)
Overall time for CPCM initialization              ...                 4.6s

----------------------------------------D-I-I-S--------------------------------------------
Iteration    Energy (Eh)           Delta-E    RMSDP     MaxDP     DIISErr   Damp  Time(sec)
-------------------------------------------------------------------------------------------
               ***  Starting incremental Fock matrix formation  ***
    1    -2112.9608447287409945     0.00e+00  2.21e-03  9.16e-02  2.07e-01  0.700  75.4
Warning: op=0 Small HOMO/LUMO gap (   0.066) - skipping pre-diagonalization
         Will do a full diagonalization
    2    -2113.3718033248815118    -4.11e-01  2.17e-03  5.59e-02  8.75e-02  0.700  69.2
                               ***Turning on AO-DIIS***
    3    -2113.5364528172149221    -1.65e-01  1.07e-03  2.62e-02  2.60e-02  0.700  49.8
    4    -2113.6323722953375182    -9.59e-02  2.20e-03  6.40e-02  1.40e-02  0.000  95.5
    5    -2113.8416807603780398    -2.09e-01  5.62e-04  1.89e-02  4.43e-03  0.000  98.9
                              *** Initializing SOSCF ***
---------------------------------------S-O-S-C-F--------------------------------------
Iteration    Energy (Eh)           Delta-E    RMSDP     MaxDP     MaxGrad    Time(sec)
--------------------------------------------------------------------------------------
    6    -2113.8430351756496748    -1.35e-03  2.29e-04  8.17e-03  8.88e-04    85.0
               *** Restarting incremental Fock matrix formation ***
    7    -2113.8431102924078004    -7.51e-05  1.24e-04  2.92e-03  5.99e-04   102.1
    8    -2113.8430875671656395     2.27e-05  3.94e-05  1.52e-03  1.18e-03    82.1
    9    -2113.8431319665151022    -4.44e-05  2.38e-05  7.51e-04  7.72e-05    61.4
   10    -2113.8431310455835046     9.21e-07  1.73e-05  4.98e-04  9.53e-05    62.9
   11    -2113.8431328293991101    -1.78e-06  1.81e-05  7.56e-04  1.98e-05    62.0
   12    -2113.8431326999925659     1.29e-07  9.58e-06  4.61e-04  3.50e-05    65.9
   13    -2113.8431328676360863    -1.68e-07  1.94e-05  8.53e-04  3.56e-06    64.4
   14    -2113.8431328192855290     4.84e-08  8.91e-06  2.52e-04  5.80e-06    48.4
   15    -2113.8431329311451918    -1.12e-07  2.08e-05  1.48e-03  1.78e-06    56.1
                  *** Gradient check signals convergence ***

               *****************************************************
               *                     SUCCESS                       *
               *           SCF CONVERGED AFTER  15 CYCLES          *
               *****************************************************

             **** ENERGY FILE WAS UPDATED (tddft.en.tmp) ****

----------------
TOTAL SCF ENERGY
----------------

Total Energy       :      -2113.84313287195801 Eh          -57520.59594 eV

Components:
Nuclear Repulsion  :       5749.71574233558749 Eh          156457.71951 eV
Electronic Energy  :      -7863.54778979787534 Eh         -213978.01379 eV
One Electron Energy:     -14321.36715722285408 Eh         -389704.21253 eV
Two Electron Energy:       6457.81936742497874 Eh          175726.19873 eV
CPCM Dielectric    :         -0.01108540967005 Eh              -0.30165 eV

Virial components:
Potential Energy   :      -4218.89131760219061 Eh         -114801.86917 eV
Kinetic Energy     :       2105.04818473023261 Eh           57281.27323 eV
Virial Ratio       :          2.00417802699507

DFT components:
N(Alpha)           :      165.999986066147 electrons
N(Beta)            :      165.999986066147 electrons
N(Total)           :      331.999972132294 electrons
E(X)               :     -283.416757320742 Eh       
E(C)               :      -11.246294239262 Eh       
E(XC)              :     -294.663051560004 Eh       

CPCM Solvation Model Properties:
Surface-charge          :         -0.04856707187776
Corrected charge        :         -0.00000000000000
Outlying charge corr.   :          0.00005375610357 Eh               0.00146 eV
Free-energy (cav+disp)  :  This term is not implemented in the current solvation scheme

---------------
SCF CONVERGENCE
---------------

  Last Energy change         ...    1.1186e-07  Tolerance :   1.0000e-08
  Last MAX-Density change    ...    1.4848e-03  Tolerance :   1.0000e-07
  Last RMS-Density change    ...    2.0845e-05  Tolerance :   5.0000e-09
  Last DIIS Error            ...    8.8803e-04  Tolerance :   5.0000e-07
  Last Orbital Gradient      ...    1.7831e-06  Tolerance :   1.0000e-05
  Last Orbital Rotation      ...    1.0101e-05  Tolerance :   1.0000e-05


----------------
ORBITAL ENERGIES
----------------

  NO   OCC          E(Eh)            E(eV) 
   0   2.0000     -46.381286     -1262.0990 
   1   2.0000     -14.089248      -383.3879 
   2   2.0000     -14.089245      -383.3878 
   3   2.0000     -14.089240      -383.3877 
   4   2.0000     -14.089231      -383.3875 
   5   2.0000     -10.018682      -272.6222 
   6   2.0000     -10.018673      -272.6219 
   7   2.0000     -10.018669      -272.6218 
   8   2.0000     -10.018665      -272.6217 
   9   2.0000     -10.018658      -272.6215 
  10   2.0000     -10.018653      -272.6214 
  11   2.0000     -10.018649      -272.6213 
  12   2.0000     -10.018644      -272.6212 
  13   2.0000     -10.005902      -272.2744 
  14   2.0000     -10.005888      -272.2740 
  15   2.0000     -10.005874      -272.2737 
  16   2.0000     -10.005861      -272.2733 
  17   2.0000     -10.000096      -272.1164 
  18   2.0000     -10.000092      -272.1163 
  19   2.0000     -10.000090      -272.1163 
  20   2.0000     -10.000082      -272.1161 
  21   2.0000      -9.989115      -271.8176 
  22   2.0000      -9.989112      -271.8175 
  23   2.0000      -9.989109      -271.8175 
  24   2.0000      -9.989106      -271.8174 
  25   2.0000      -9.989062      -271.8162 
  26   2.0000      -9.989060      -271.8161 
  27   2.0000      -9.989056      -271.8160 
  28   2.0000      -9.989055      -271.8160 
  29   2.0000      -9.988734      -271.8073 
  30   2.0000      -9.988731      -271.8072 
  31   2.0000      -9.988727      -271.8071 
  32   2.0000      -9.988726      -271.8071 
  33   2.0000      -9.988654      -271.8051 
  34   2.0000      -9.988651      -271.8050 
  35   2.0000      -9.988647      -271.8049 
  36   2.0000      -9.988646      -271.8049 
  37   2.0000      -9.988241      -271.7939 
  38   2.0000      -9.988239      -271.7938 
  39   2.0000      -9.988236      -271.7937 
  40   2.0000      -9.988235      -271.7937 
  41   2.0000      -9.982193      -271.6293 
  42   2.0000      -9.982180      -271.6289 
  43   2.0000      -9.982178      -271.6289 
  44   2.0000      -9.982174      -271.6288 
  45   2.0000      -9.981651      -271.6145 
  46   2.0000      -9.981638      -271.6142 
  47   2.0000      -9.981636      -271.6141 
  48   2.0000      -9.981631      -271.6140 
  49   2.0000      -2.914750       -79.3144 
  50   2.0000      -1.680040       -45.7162 
  51   2.0000      -1.672957       -45.5235 
  52   2.0000      -1.672956       -45.5234 
  53   2.0000      -0.895249       -24.3610 
  54   2.0000      -0.886875       -24.1331 
  55   2.0000      -0.886869       -24.1329 
  56   2.0000      -0.877356       -23.8741 
  57   2.0000      -0.806989       -21.9593 
  58   2.0000      -0.803769       -21.8717 
  59   2.0000      -0.803766       -21.8716 
  60   2.0000      -0.802261       -21.8306 
  61   2.0000      -0.762546       -20.7499 
  62   2.0000      -0.745954       -20.2984 
  63   2.0000      -0.745949       -20.2983 
  64   2.0000      -0.729083       -19.8393 
  65   2.0000      -0.707923       -19.2636 
  66   2.0000      -0.707912       -19.2633 
  67   2.0000      -0.707911       -19.2632 
  68   2.0000      -0.701871       -19.0989 
  69   2.0000      -0.692724       -18.8500 
  70   2.0000      -0.692616       -18.8470 
  71   2.0000      -0.692614       -18.8470 
  72   2.0000      -0.692543       -18.8451 
  73   2.0000      -0.685156       -18.6440 
  74   2.0000      -0.678076       -18.4514 
  75   2.0000      -0.678071       -18.4512 
  76   2.0000      -0.660457       -17.9720 
  77   2.0000      -0.653719       -17.7886 
  78   2.0000      -0.605585       -16.4788 
  79   2.0000      -0.605583       -16.4788 
  80   2.0000      -0.568491       -15.4694 
  81   2.0000      -0.558961       -15.2101 
  82   2.0000      -0.558673       -15.2023 
  83   2.0000      -0.558671       -15.2022 
  84   2.0000      -0.558509       -15.1978 
  85   2.0000      -0.551462       -15.0061 
  86   2.0000      -0.551446       -15.0056 
  87   2.0000      -0.545629       -14.8473 
  88   2.0000      -0.544283       -14.8107 
  89   2.0000      -0.530767       -14.4429 
  90   2.0000      -0.513716       -13.9789 
  91   2.0000      -0.513709       -13.9787 
  92   2.0000      -0.504087       -13.7169 
  93   2.0000      -0.498720       -13.5709 
  94   2.0000      -0.489154       -13.3105 
  95   2.0000      -0.481313       -13.0972 
  96   2.0000      -0.481310       -13.0971 
  97   2.0000      -0.476358       -12.9624 
  98   2.0000      -0.468826       -12.7574 
  99   2.0000      -0.468821       -12.7573 
 100   2.0000      -0.463055       -12.6004 
 101   2.0000      -0.456274       -12.4158 
 102   2.0000      -0.443951       -12.0805 
 103   2.0000      -0.443939       -12.0802 
 104   2.0000      -0.420446       -11.4409 
 105   2.0000      -0.414871       -11.2892 
 106   2.0000      -0.412660       -11.2290 
 107   2.0000      -0.412653       -11.2289 
 108   2.0000      -0.410896       -11.1810 
 109   2.0000      -0.408731       -11.1221 
 110   2.0000      -0.408723       -11.1219 
 111   2.0000      -0.407464       -11.0877 
 112   2.0000      -0.398847       -10.8532 
 113   2.0000      -0.382868       -10.4184 
 114   2.0000      -0.382421       -10.4062 
 115   2.0000      -0.380647       -10.3579 
 116   2.0000      -0.380646       -10.3579 
 117   2.0000      -0.380261       -10.3474 
 118   2.0000      -0.378210       -10.2916 
 119   2.0000      -0.378206       -10.2915 
 120   2.0000      -0.378005       -10.2860 
 121   2.0000      -0.377221       -10.2647 
 122   2.0000      -0.370280       -10.0758 
 123   2.0000      -0.370272       -10.0756 
 124   2.0000      -0.368404       -10.0248 
 125   2.0000      -0.358659        -9.7596 
 126   2.0000      -0.358657        -9.7596 
 127   2.0000      -0.354796        -9.6545 
 128   2.0000      -0.350333        -9.5330 
 129   2.0000      -0.343303        -9.3417 
 130   2.0000      -0.341753        -9.2996 
 131   2.0000      -0.337486        -9.1835 
 132   2.0000      -0.337479        -9.1833 
 133   2.0000      -0.332024        -9.0348 
 134   2.0000      -0.327464        -8.9107 
 135   2.0000      -0.327461        -8.9107 
 136   2.0000      -0.322665        -8.7802 
 137   2.0000      -0.316983        -8.6255 
 138   2.0000      -0.311481        -8.4758 
 139   2.0000      -0.310697        -8.4545 
 140   2.0000      -0.308039        -8.3822 
 141   2.0000      -0.308033        -8.3820 
 142   2.0000      -0.307202        -8.3594 
 143   2.0000      -0.306123        -8.3300 
 144   2.0000      -0.306115        -8.3298 
 145   2.0000      -0.297797        -8.1035 
 146   2.0000      -0.283114        -7.7039 
 147   2.0000      -0.273959        -7.4548 
 148   2.0000      -0.273947        -7.4545 
 149   2.0000      -0.253682        -6.9030 
 150   2.0000      -0.253640        -6.9019 
 151   2.0000      -0.246508        -6.7078 
 152   2.0000      -0.234553        -6.3825 
 153   2.0000      -0.234444        -6.3795 
 154   2.0000      -0.233373        -6.3504 
 155   2.0000      -0.233357        -6.3500 
 156   2.0000      -0.232731        -6.3329 
 157   2.0000      -0.231526        -6.3001 
 158   2.0000      -0.229484        -6.2446 
 159   2.0000      -0.229454        -6.2438 
 160   2.0000      -0.228772        -6.2252 
 161   2.0000      -0.221102        -6.0165 
 162   2.0000      -0.221096        -6.0163 
 163   2.0000      -0.217608        -5.9214 
 164   2.0000      -0.185172        -5.0388 
 165   2.0000      -0.175552        -4.7770 
 166   0.0000      -0.104810        -2.8520 
 167   0.0000      -0.104806        -2.8519 
 168   0.0000      -0.054830        -1.4920 
 169   0.0000      -0.040256        -1.0954 
 170   0.0000      -0.039105        -1.0641 
 171   0.0000      -0.039098        -1.0639 
 172   0.0000      -0.038252        -1.0409 
 173   0.0000      -0.037311        -1.0153 
 174   0.0000      -0.037225        -1.0129 
 175   0.0000      -0.036275        -0.9871 
 176   0.0000      -0.036265        -0.9868 
*Only the first 10 virtual orbitals were printed.

                    ********************************
                    * MULLIKEN POPULATION ANALYSIS *
                    ********************************

-----------------------
MULLIKEN ATOMIC CHARGES
-----------------------
   0 N :   -0.429879
   1 H :    0.134616
   2 C :   -0.211831
   3 C :   -0.212355
   4 N :   -0.429988
   5 C :   -0.211838
   6 H :    0.134641
   7 C :    0.293503
   8 N :   -0.430186
   9 C :   -0.211813
  10 C :   -0.060226
  11 C :    0.296192
  12 N :   -0.429976
  13 C :   -0.211845
  14 C :    0.294101
  15 C :    0.294102
  16 C :    0.294773
  17 C :    0.293765
  18 C :   -0.212104
  19 C :   -0.060533
  20 C :   -0.061335
  21 C :   -0.211867
  22 C :    0.295027
  23 C :   -0.211840
  24 C :   -0.063156
  25 C :    0.295273
  26 H :    0.134564
  27 H :    0.134675
  28 H :    0.134542
  29 H :    0.134541
  30 H :    0.134501
  31 H :    0.134576
  32 Mg:    0.696509
  33 C :   -0.015748
  34 C :   -0.152042
  35 C :   -0.139446
  36 C :   -0.086518
  37 C :   -0.139408
  38 C :   -0.152156
  39 H :    0.110257
  40 H :    0.114764
  41 H :    0.118064
  42 H :    0.114757
  43 H :    0.110275
  44 C :   -0.013587
  45 C :   -0.153893
  46 C :   -0.138594
  47 C :   -0.087042
  48 C :   -0.138318
  49 C :   -0.154141
  50 H :    0.110263
  51 H :    0.114817
  52 H :    0.118069
  53 H :    0.114829
  54 H :    0.110256
  55 C :   -0.017871
  56 C :   -0.150542
  57 C :   -0.140237
  58 C :   -0.085874
  59 C :   -0.140472
  60 C :   -0.150211
  61 H :    0.110274
  62 H :    0.114707
  63 H :    0.118054
  64 H :    0.114737
  65 H :    0.110220
  66 C :   -0.018414
  67 C :   -0.150190
  68 C :   -0.140365
  69 C :   -0.085968
  70 C :   -0.140330
  71 C :   -0.150138
  72 H :    0.110272
  73 H :    0.114733
  74 H :    0.118058
  75 H :    0.114728
  76 H :    0.110241
Sum of atomic charges:   -0.0000000

--------------------------------
MULLIKEN REDUCED ORBITAL CHARGES
--------------------------------
  0 N s       :     3.700234  s :     3.700234
      pz      :     1.349632  p :     3.667423
      px      :     1.276101
      py      :     1.041689
      dz2     :     0.004530  d :     0.058514
      dxz     :     0.005821
      dyz     :     0.014258
      dx2y2   :     0.016702
      dxy     :     0.017203
      f0      :     0.000639  f :     0.003709
      f+1     :     0.000299
      f-1     :     0.000424
      f+2     :     0.000109
      f-2     :     0.000622
      f+3     :     0.000686
      f-3     :     0.000931

  1 H s       :     0.844975  s :     0.844975
      pz      :     0.004782  p :     0.020410
      px      :     0.007664
      py      :     0.007963

  2 C s       :     3.307682  s :     3.307682
      pz      :     0.987998  p :     2.805910
      px      :     0.901601
      py      :     0.916311
      dz2     :     0.005725  d :     0.090163
      dxz     :     0.009899
      dyz     :     0.018784
      dx2y2   :     0.020033
      dxy     :     0.035721
      f0      :     0.001319  f :     0.008076
      f+1     :     0.000838
      f-1     :     0.000586
      f+2     :     0.001024
      f-2     :     0.000447
      f+3     :     0.002394
      f-3     :     0.001467

  3 C s       :     3.308080  s :     3.308080
      pz      :     0.987998  p :     2.806048
      px      :     0.917156
      py      :     0.900894
      dz2     :     0.005295  d :     0.090151
      dxz     :     0.019376
      dyz     :     0.009771
      dx2y2   :     0.019967
      dxy     :     0.035742
      f0      :     0.001367  f :     0.008076
      f+1     :     0.000499
      f-1     :     0.000847
      f+2     :     0.001069
      f-2     :     0.000436
      f+3     :     0.001446
      f-3     :     0.002412

  4 N s       :     3.700370  s :     3.700370
      pz      :     1.351222  p :     3.667387
      px      :     1.039321
      py      :     1.276844
      dz2     :     0.004386  d :     0.058523
      dxz     :     0.014449
      dyz     :     0.005730
      dx2y2   :     0.016679
      dxy     :     0.017280
      f0      :     0.000642  f :     0.003709
      f+1     :     0.000415
      f-1     :     0.000305
      f+2     :     0.000105
      f-2     :     0.000617
      f+3     :     0.000939
      f-3     :     0.000686

  5 C s       :     3.307791  s :     3.307791
      pz      :     0.984288  p :     2.805816
      px      :     0.917112
      py      :     0.904416
      dz2     :     0.005582  d :     0.090156
      dxz     :     0.017296
      dyz     :     0.011542
      dx2y2   :     0.019293
      dxy     :     0.036444
      f0      :     0.001352  f :     0.008075
      f+1     :     0.000562
      f-1     :     0.000805
      f+2     :     0.001341
      f-2     :     0.000156
      f+3     :     0.001582
      f-3     :     0.002276

  6 H s       :     0.844944  s :     0.844944
      pz      :     0.004806  p :     0.020415
      px      :     0.006342
      py      :     0.009267

  7 C s       :     3.152132  s :     3.152132
      pz      :     0.937016  p :     2.373433
      px      :     0.726329
      py      :     0.710088
      dz2     :     0.005777  d :     0.166341
      dxz     :     0.029557
      dyz     :     0.035799
      dx2y2   :     0.053414
      dxy     :     0.041794
      f0      :     0.001985  f :     0.014591
      f+1     :     0.000900
      f-1     :     0.001093
      f+2     :     0.000736
      f-2     :     0.002313
      f+3     :     0.003719
      f-3     :     0.003845

  8 N s       :     3.700519  s :     3.700519
      pz      :     1.351366  p :     3.667438
      px      :     1.039308
      py      :     1.276764
      dz2     :     0.004382  d :     0.058520
      dxz     :     0.014453
      dyz     :     0.005729
      dx2y2   :     0.016677
      dxy     :     0.017279
      f0      :     0.000642  f :     0.003709
      f+1     :     0.000414
      f-1     :     0.000305
      f+2     :     0.000105
      f-2     :     0.000617
      f+3     :     0.000939
      f-3     :     0.000686

  9 C s       :     3.308103  s :     3.308103
      pz      :     0.988397  p :     2.805438
      px      :     0.916589
      py      :     0.900452
      dz2     :     0.005503  d :     0.090196
      dxz     :     0.017301
      dyz     :     0.011606
      dx2y2   :     0.019358
      dxy     :     0.036427
      f0      :     0.001353  f :     0.008076
      f+1     :     0.000565
      f-1     :     0.000804
      f+2     :     0.001340
      f-2     :     0.000155
      f+3     :     0.001582
      f-3     :     0.002277

 10 C s       :     3.401008  s :     3.401008
      pz      :     0.970932  p :     2.523062
      px      :     0.764315
      py      :     0.787815
      dz2     :     0.003266  d :     0.126387
      dxz     :     0.022762
      dyz     :     0.024089
      dx2y2   :     0.032807
      dxy     :     0.043463
      f0      :     0.001468  f :     0.009767
      f+1     :     0.000741
      f-1     :     0.000762
      f+2     :     0.000878
      f-2     :     0.001156
      f+3     :     0.002771
      f-3     :     0.001991

 11 C s       :     3.153253  s :     3.153253
      pz      :     0.936516  p :     2.369575
      px      :     0.716197
      py      :     0.716861
      dz2     :     0.005864  d :     0.166386
      dxz     :     0.028380
      dyz     :     0.036910
      dx2y2   :     0.050168
      dxy     :     0.045065
      f0      :     0.001986  f :     0.014594
      f+1     :     0.000829
      f-1     :     0.001161
      f+2     :     0.001180
      f-2     :     0.001878
      f+3     :     0.002599
      f-3     :     0.004961

 12 N s       :     3.700345  s :     3.700345
      pz      :     1.349112  p :     3.667407
      px      :     1.276087
      py      :     1.042209
      dz2     :     0.004565  d :     0.058514
      dxz     :     0.005827
      dyz     :     0.014219
      dx2y2   :     0.016707
      dxy     :     0.017196
      f0      :     0.000636  f :     0.003709
      f+1     :     0.000299
      f-1     :     0.000426
      f+2     :     0.000110
      f-2     :     0.000622
      f+3     :     0.000686
      f-3     :     0.000929

 13 C s       :     3.308190  s :     3.308190
      pz      :     0.985974  p :     2.805385
      px      :     0.901296
      py      :     0.918115
      dz2     :     0.005525  d :     0.090194
      dxz     :     0.011958
      dyz     :     0.016963
      dx2y2   :     0.019413
      dxy     :     0.036336
      f0      :     0.001333  f :     0.008076
      f+1     :     0.000751
      f-1     :     0.000653
      f+2     :     0.001309
      f-2     :     0.000173
      f+3     :     0.002255
      f-3     :     0.001602

 14 C s       :     3.152282  s :     3.152282
      pz      :     0.935199  p :     2.372676
      px      :     0.709332
      py      :     0.728144
      dz2     :     0.005408  d :     0.166350
      dxz     :     0.036578
      dyz     :     0.029210
      dx2y2   :     0.053331
      dxy     :     0.041823
      f0      :     0.002015  f :     0.014592
      f+1     :     0.001051
      f-1     :     0.000901
      f+2     :     0.000756
      f-2     :     0.002285
      f+3     :     0.003865
      f-3     :     0.003719

 15 C s       :     3.154103  s :     3.154103
      pz      :     0.936644  p :     2.370808
      px      :     0.716162
      py      :     0.718002
      dz2     :     0.005584  d :     0.166393
      dxz     :     0.037956
      dyz     :     0.027916
      dx2y2   :     0.049931
      dxy     :     0.045007
      f0      :     0.002012  f :     0.014594
      f+1     :     0.001086
      f-1     :     0.000863
      f+2     :     0.001147
      f-2     :     0.001887
      f+3     :     0.004993
      f-3     :     0.002605

 16 C s       :     3.153676  s :     3.153676
      pz      :     0.934309  p :     2.370547
      px      :     0.716604
      py      :     0.719634
      dz2     :     0.005853  d :     0.166409
      dxz     :     0.028600
      dyz     :     0.037049
      dx2y2   :     0.050094
      dxy     :     0.044813
      f0      :     0.001988  f :     0.014594
      f+1     :     0.000826
      f-1     :     0.001154
      f+2     :     0.001185
      f-2     :     0.001876
      f+3     :     0.002605
      f-3     :     0.004959

 17 C s       :     3.152225  s :     3.152225
      pz      :     0.933933  p :     2.373087
      px      :     0.726202
      py      :     0.712952
      dz2     :     0.005668  d :     0.166333
      dxz     :     0.029752
      dyz     :     0.035943
      dx2y2   :     0.053348
      dxy     :     0.041621
      f0      :     0.001987  f :     0.014590
      f+1     :     0.000894
      f-1     :     0.001091
      f+2     :     0.000735
      f-2     :     0.002317
      f+3     :     0.003720
      f-3     :     0.003845

 18 C s       :     3.308086  s :     3.308086
      pz      :     0.986938  p :     2.805775
      px      :     0.902040
      py      :     0.916797
      dz2     :     0.005552  d :     0.090167
      dxz     :     0.011976
      dyz     :     0.016934
      dx2y2   :     0.019403
      dxy     :     0.036303
      f0      :     0.001334  f :     0.008076
      f+1     :     0.000748
      f-1     :     0.000653
      f+2     :     0.001309
      f-2     :     0.000177
      f+3     :     0.002254
      f-3     :     0.001601

 19 C s       :     3.401684  s :     3.401684
      pz      :     0.976090  p :     2.522718
      px      :     0.783380
      py      :     0.763248
      dz2     :     0.003321  d :     0.126364
      dxz     :     0.024722
      dyz     :     0.021966
      dx2y2   :     0.033050
      dxy     :     0.043306
      f0      :     0.001487  f :     0.009767
      f+1     :     0.000714
      f-1     :     0.000771
      f+2     :     0.000889
      f-2     :     0.001148
      f+3     :     0.001990
      f-3     :     0.002767

 20 C s       :     3.401063  s :     3.401063
      pz      :     0.977903  p :     2.524078
      px      :     0.763719
      py      :     0.782455
      dz2     :     0.003529  d :     0.126425
      dxz     :     0.022735
      dyz     :     0.023675
      dx2y2   :     0.033121
      dxy     :     0.043365
      f0      :     0.001473  f :     0.009768
      f+1     :     0.000746
      f-1     :     0.000764
      f+2     :     0.000872
      f-2     :     0.001163
      f+3     :     0.002760
      f-3     :     0.001991

 21 C s       :     3.307927  s :     3.307927
[...]
  0-1A  -> 26-1A    3.559172   28706.7   348.4   0.020915485   0.23986   0.01029  -0.48756   0.04514
  0-1A  -> 27-1A    3.559203   28706.9   348.3   0.020864547   0.23928   0.48901   0.00767  -0.00926
  0-1A  -> 28-1A    3.688477   29749.6   336.1   0.000156300   0.00173   0.03711  -0.01872   0.00151
  0-1A  -> 29-1A    3.689828   29760.5   336.0   0.588008861   6.50458  -1.05769  -2.30866   0.23653
  0-1A  -> 30-1A    3.689966   29761.6   336.0   0.587917179   6.50333   2.32036  -1.05609   0.06259

----------------------------------------------------------------------------------------------------
                     ABSORPTION SPECTRUM VIA TRANSITION VELOCITY DIPOLE MOMENTS    
----------------------------------------------------------------------------------------------------
     Transition      Energy     Energy  Wavelength fosc(P2)      P2        PX        PY        PZ   
                      (eV)      (cm-1)    (nm)                 (au**2)    (au)      (au)      (au)  
----------------------------------------------------------------------------------------------------
  0-1A  ->  1-1A    2.228769   17976.2   556.3   0.016377471   0.00201   0.04351   0.01076  -0.00182
  0-1A  ->  2-1A    2.228820   17976.6   556.3   0.016332888   0.00201  -0.01078   0.04330  -0.00401
  0-1A  ->  3-1A    3.186140   25698.0   389.1   0.137062416   0.02407   0.10699   0.11165  -0.01262
  0-1A  ->  4-1A    3.186288   25699.1   389.1   0.135355220   0.02377  -0.11161   0.10606  -0.00826
  0-1A  ->  5-1A    3.256133   26262.5   380.8   0.147200972   0.02642   0.06268  -0.14938   0.01330
  0-1A  ->  6-1A    3.256252   26263.4   380.8   0.147210796   0.02642   0.14992   0.06225  -0.00850
  0-1A  ->  7-1A    3.273300   26400.9   378.8   0.000308635   0.00006  -0.00728   0.00165   0.00005
  0-1A  ->  8-1A    3.302465   26636.2   375.4   0.000037264   0.00001   0.00222   0.00135  -0.00018
  0-1A  ->  9-1A    3.344523   26975.4   370.7   0.000026497   0.00000   0.00114  -0.00189   0.00016
  0-1A  -> 10-1A    3.396087   27391.3   365.1   0.000207611   0.00004   0.00136   0.00605  -0.00061
  0-1A  -> 11-1A    3.400761   27429.0   364.6   0.000492603   0.00009  -0.00758  -0.00586   0.00072
  0-1A  -> 12-1A    3.404579   27459.8   364.2   0.018321574   0.00344  -0.05518   0.01898  -0.00574
  0-1A  -> 13-1A    3.405308   27465.7   364.1   0.028682380   0.00538   0.01993   0.07038  -0.00581
  0-1A  -> 14-1A    3.406285   27473.5   364.0   0.011394427   0.00214   0.04562  -0.00107  -0.00756
  0-1A  -> 15-1A    3.407660   27484.6   363.8   0.004183467   0.00079   0.01832  -0.02117   0.00143
  0-1A  -> 16-1A    3.416332   27554.6   362.9   0.000085794   0.00002  -0.00123  -0.00381   0.00037
  0-1A  -> 17-1A    3.456029   27874.8   358.7   0.004566393   0.00087  -0.02352  -0.01767   0.00208
  0-1A  -> 18-1A    3.456159   27875.8   358.7   0.005003186   0.00095  -0.01893   0.02430  -0.00207
  0-1A  -> 19-1A    3.464799   27945.5   357.8   0.000024024   0.00000  -0.00163  -0.00138   0.00012
  0-1A  -> 20-1A    3.504812   28268.2   353.8   0.000116989   0.00002   0.00130   0.00030   0.00456
  0-1A  -> 21-1A    3.518364   28377.5   352.4   0.000004033   0.00000   0.00032  -0.00082   0.00002
  0-1A  -> 22-1A    3.539993   28552.0   350.2   0.000000187   0.00000   0.00018  -0.00006   0.00001
  0-1A  -> 23-1A    3.547001   28608.5   349.5   0.001501914   0.00029  -0.01285   0.01128  -0.00113
  0-1A  -> 24-1A    3.547091   28609.2   349.5   0.001510811   0.00030  -0.01139  -0.01281   0.00126
  0-1A  -> 25-1A    3.557991   28697.1   348.5   0.000003736   0.00000   0.00070  -0.00049  -0.00005
  0-1A  -> 26-1A    3.559172   28706.7   348.4   0.005717148   0.00112  -0.00065   0.03333  -0.00321
  0-1A  -> 27-1A    3.559203   28706.9   348.3   0.005719758   0.00112  -0.03349  -0.00058   0.00057
  0-1A  -> 28-1A    3.688477   29749.6   336.1   0.000015363   0.00000  -0.00163   0.00067  -0.00006
  0-1A  -> 29-1A    3.689828   29760.5   336.0   0.056206452   0.01143   0.04432   0.09678  -0.01012
  0-1A  -> 30-1A    3.689966   29761.6   336.0   0.056206820   0.01143  -0.09730   0.04426  -0.00259

------------------------------------------------------------------------------------------
                     CD SPECTRUM VIA TRANSITION ELECTRIC DIPOLE MOMENTS    
------------------------------------------------------------------------------------------
     Transition      Energy     Energy  Wavelength    R        MX        MY        MZ   
                      (eV)      (cm-1)    (nm)   (1e40*cgs)   (au)      (au)      (au)  
------------------------------------------------------------------------------------------
  0-1A  ->  1-1A    2.228769   17976.2   556.3   -1.25842  -0.00564  -0.00141  -0.00038
  0-1A  ->  2-1A    2.228820   17976.6   556.3   -1.21890   0.00129  -0.00544   0.00064
  0-1A  ->  3-1A    3.186140   25698.0   389.1  -10.08657  -0.00402  -0.00404  -0.00162
  0-1A  ->  4-1A    3.186288   25699.1   389.1  -10.18813   0.00394  -0.00368   0.00452
  0-1A  ->  5-1A    3.256133   26262.5   380.8  -21.53444  -0.00652   0.01364  -0.01811
  0-1A  ->  6-1A    3.256252   26263.4   380.8  -22.34764  -0.01624  -0.00881  -0.02314
  0-1A  ->  7-1A    3.273300   26400.9   378.8  -15.75672  -0.01308  -0.08011  -0.84180
  0-1A  ->  8-1A    3.302465   26636.2   375.4   -0.00783  -0.00033   0.00003   0.00106
  0-1A  ->  9-1A    3.344523   26975.4   370.7   -0.00284  -0.00019   0.00000  -0.00105
  0-1A  -> 10-1A    3.396087   27391.3   365.1    0.24446   0.00121   0.00525  -0.00105
  0-1A  -> 11-1A    3.400761   27429.0   364.6    0.58764  -0.00638  -0.00500   0.00175
  0-1A  -> 12-1A    3.404579   27459.8   364.2   23.98397  -0.04542   0.00350  -0.12209
  0-1A  -> 13-1A    3.405308   27465.7   364.1   31.90716   0.01581   0.05736   0.02565
  0-1A  -> 14-1A    3.406285   27473.5   364.0   17.98098   0.03086  -0.01664  -0.17220
  0-1A  -> 15-1A    3.407660   27484.6   363.8    4.06112   0.01287  -0.01533  -0.00853
  0-1A  -> 16-1A    3.416332   27554.6   362.9    0.08887  -0.00101  -0.00279  -0.00070
  0-1A  -> 17-1A    3.456029   27874.8   358.7    3.76867  -0.02448  -0.01844   0.00407
  0-1A  -> 18-1A    3.456159   27875.8   358.7    4.08608  -0.01920   0.02509   0.00103
  0-1A  -> 19-1A    3.464799   27945.5   357.8    0.00654  -0.00124  -0.00089   0.00073
  0-1A  -> 20-1A    3.504812   28268.2   353.8   -5.64402   0.00237   0.01101   0.11509
  0-1A  -> 21-1A    3.518364   28377.5   352.4    0.00358   0.00040  -0.00113   0.00169
  0-1A  -> 22-1A    3.539993   28552.0   350.2    0.00036   0.00013   0.00031   0.00012
  0-1A  -> 23-1A    3.547001   28608.5   349.5   -1.71588   0.00699  -0.00594   0.00138
  0-1A  -> 24-1A    3.547091   28609.2   349.5   -1.63891   0.00588   0.00653  -0.00040
  0-1A  -> 25-1A    3.557991   28697.1   348.5   -0.00071   0.00005   0.00049  -0.00021
  0-1A  -> 26-1A    3.559172   28706.7   348.4   -1.03632   0.00006  -0.00441   0.00101
  0-1A  -> 27-1A    3.559203   28706.9   348.3   -0.99241   0.00431   0.00018   0.00046
  0-1A  -> 28-1A    3.688477   29749.6   336.1    0.02717  -0.00186  -0.00061  -0.00006
  0-1A  -> 29-1A    3.689828   29760.5   336.0   -5.01055  -0.00213  -0.00362   0.00010
  0-1A  -> 30-1A    3.689966   29761.6   336.0   -4.78881   0.00368  -0.00154  -0.00012

------------------------------------------------------------------------------------------
                     CD SPECTRUM VIA TRANSITION VELOCITY DIPOLE MOMENTS    
------------------------------------------------------------------------------------------
     Transition      Energy     Energy  Wavelength    R        MX        MY        MZ   
                      (eV)      (cm-1)    (nm)   (1e40*cgs)   (au)      (au)      (au)  
------------------------------------------------------------------------------------------
  0-1A  ->  1-1A    2.228769   17976.2   556.3   -1.49733  -0.00564  -0.00141  -0.00038
  0-1A  ->  2-1A    2.228820   17976.6   556.3   -1.45143   0.00129  -0.00544   0.00064
  0-1A  ->  3-1A    3.186140   25698.0   389.1   -3.46679  -0.00402  -0.00404  -0.00162
  0-1A  ->  4-1A    3.186288   25699.1   389.1   -3.49287   0.00394  -0.00368   0.00452
  0-1A  ->  5-1A    3.256133   26262.5   380.8  -10.58617  -0.00652   0.01364  -0.01811
  0-1A  ->  6-1A    3.256252   26263.4   380.8  -10.97738  -0.01624  -0.00881  -0.02314
  0-1A  ->  7-1A    3.273300   26400.9   378.8   -0.30318  -0.01308  -0.08011  -0.84180
  0-1A  ->  8-1A    3.302465   26636.2   375.4   -0.00342  -0.00033   0.00003   0.00106
  0-1A  ->  9-1A    3.344523   26975.4   370.7   -0.00150  -0.00019   0.00000  -0.00105
  0-1A  -> 10-1A    3.396087   27391.3   365.1    0.12871   0.00121   0.00525  -0.00105
  0-1A  -> 11-1A    3.400761   27429.0   364.6    0.29773  -0.00638  -0.00500   0.00175
  0-1A  -> 12-1A    3.404579   27459.8   364.2   12.33335  -0.04542   0.00350  -0.12209
  0-1A  -> 13-1A    3.405308   27465.7   364.1   15.83363   0.01581   0.05736   0.02565
  0-1A  -> 14-1A    3.406285   27473.5   364.0   10.27211   0.03086  -0.01664  -0.17220
  0-1A  -> 15-1A    3.407660   27484.6   363.8    2.06321   0.01287  -0.01533  -0.00853
  0-1A  -> 16-1A    3.416332   27554.6   362.9    0.04359  -0.00101  -0.00279  -0.00070
  0-1A  -> 17-1A    3.456029   27874.8   358.7    3.37889  -0.02448  -0.01844   0.00407
  0-1A  -> 18-1A    3.456159   27875.8   358.7    3.60429  -0.01920   0.02509   0.00103
  0-1A  -> 19-1A    3.464799   27945.5   357.8    0.01238  -0.00124  -0.00089   0.00073
  0-1A  -> 20-1A    3.504812   28268.2   353.8    1.94527   0.00237   0.01101   0.11509
  0-1A  -> 21-1A    3.518364   28377.5   352.4    0.00396   0.00040  -0.00113   0.00169
  0-1A  -> 22-1A    3.539993   28552.0   350.2    0.00002   0.00013   0.00031   0.00012
  0-1A  -> 23-1A    3.547001   28608.5   349.5   -0.57266   0.00699  -0.00594   0.00138
  0-1A  -> 24-1A    3.547091   28609.2   349.5   -0.54649   0.00588   0.00653  -0.00040
  0-1A  -> 25-1A    3.557991   28697.1   348.5   -0.00070   0.00005   0.00049  -0.00021
  0-1A  -> 26-1A    3.559172   28706.7   348.4   -0.54209   0.00006  -0.00441   0.00101
  0-1A  -> 27-1A    3.559203   28706.9   348.3   -0.51977   0.00431   0.00018   0.00046
  0-1A  -> 28-1A    3.688477   29749.6   336.1    0.00915  -0.00186  -0.00061  -0.00006
  0-1A  -> 29-1A    3.689828   29760.5   336.0   -1.54889  -0.00213  -0.00362   0.00010
  0-1A  -> 30-1A    3.689966   29761.6   336.0   -1.48072   0.00368  -0.00154  -0.00012

Total run time:     4962.121 sec

           *** ORCA-CIS/TD-DFT FINISHED WITHOUT ERROR ***
-----------------------
CIS/TD-DFT TOTAL ENERGY
-----------------------

    E(SCF)  =  -2113.843132872 Eh
    DE(CIS) =      0.081905749 Eh (Root  1)
    ----------------------------- ---------
    E(tot)  =  -2113.761227123 Eh


Maximum memory used throughout the entire CIS-calculation: 2998.7 MB
=> NOW LEAVING ORCA_CIS

-------------------------   --------------------
FINAL SINGLE POINT ENERGY     -2113.761227123018
-------------------------   --------------------



           ************************************************************
           *        Program running with 8 parallel MPI-processes     *
           *              working on a common directory               *
           ************************************************************

------------------------------------------------------------------------------
                              ORCA PROPERTY CALCULATIONS
------------------------------------------------------------------------------

GBWName                                 ... tddft.gbw
Number of atoms                         ...     77
Number of basis functions               ...   1688
Max core memory                         ...   3000 MB

Electric properties:
Dipole moment                           ... YES
Quadrupole moment                       ...  NO
Static polarizability (Dipole/Dipole)   ...  NO
Static polarizability (Dipole/Quad.)    ...  NO
Static polarizability (Quad./Quad.)     ...  NO
Static polarizability (Velocity)        ...  NO
Static hyperpolarizability              ...  NO

Atomic electric properties:
Dipole moment                           ...  NO
Quadrupole moment                       ...  NO
Static polarizability                   ...  NO

Choice of electric origin               ... Center of mass
Position of electric origin             ...    -0.159849     5.088964     6.548248

General magnetic properties:
Magnetizability                         ...  NO

EPR properties:
g-Tensor (aka g-matrix)                 ...  NO
Zero-Field splitting spin-orbit         ...  NO
Zero-field splitting spin-spin          ...  NO
Hyperfine couplings                     ...  NO (   0 nuclei)
Quadrupole couplings                    ...  NO (   0 nuclei)
Contact density                         ...  NO (   0 nuclei)

NMR properties:
Chemical shifts                         ...  NO (   0 nuclei)
Spin-rotation constants                 ...  NO (   0 nuclei)
Spin-spin couplings                     ...  NO (   0 nuclei,    0 pairs)

Choice of magnetic origin               ... GIAO
Position of magnetic origin             ...     0.000000     0.000000     0.000000

Properties with geometric perturbations:
SCF Hessian                             ...  NO
IR spectrum                             ...  NO
VCD spectrum                            ...  NO
X-ray spectroscopy properties:
SCF XES/XAS/RIXS spectra                ...  NO

SCF SOC stabilization energy            ...  NO
Diagonal Born-Oppenheimer correction    ...  NO

-------------
DIPOLE MOMENT
-------------

Method             : SCF
Type of density    : Electron Density
Multiplicity       :   1
Irrep              :   0
Energy             : -2113.8431328719580051 Eh
Basis              : AO
                                X                 Y                 Z
Electronic contribution:     -0.006141911      -0.000493299       0.014020159
Nuclear contribution   :      0.006551862       0.000121054      -0.014501534
                        -----------------------------------------
Total Dipole Moment    :      0.000409950      -0.000372246      -0.000481375
                        -----------------------------------------
Magnitude (a.u.)       :      0.000733722
Magnitude (Debye)      :      0.001864973



--------------------
Rotational spectrum 
--------------------
 
Rotational constants in cm-1:             0.001944             0.001943             0.001012 
Rotational constants in MHz :            58.267391            58.258492            30.324103 

Dipole components along the rotational axes: 
x,y,z [a.u.] :     0.000429    -0.000310    -0.000508 
x,y,z [Debye]:     0.001089    -0.000789    -0.001292 

 

Dipole moment calculation done in   0.3 sec 

Maximum memory used throughout the entire PROP-calculation: 230.7 MB

--------------------------------
SUGGESTED CITATIONS FOR THIS RUN
--------------------------------

Below you find a list of papers that are relevant to this ORCA run
We neither can nor want to force you to cite these papers, but we appreciate if you do
You receive ORCA, which is the product of decades of hard work by many enthusiastic individuals, for free
The only thing we kindly ask in return is that you cite our papers,
We deeply appreciate it, if you show your appreciation for ORCA by not just citing the generic ORCA reference.

Please note that relegating all ORCA citations to the supporting information does *not* help us.
SI sections are not indexed - citations you put there will not count into any citation statistics
But we need these citations in order to attract the funding resources that allow us to do what we are doing

Therefore, if you are a happy ORCA user, please consider citing a few of the papers listed below in the main body of your paper

In addition to the list printed below, the program has created the file tddft.bibtex that contains the list in bibtex format
You can import this file easily into all common literature databanks and citation aid programs

It goes without saying that in many instances, there are alternative algorithms to achieve similar
results as the ones you have gotten from ORCA. It is, of course, also the case that in some instances
ORCA just re-implements algorithms worked out by others. We are fully aware of that and we are also
fully appreciative of our colleagues work. Hence this citation list should not be read as indicating
that the listed papers, which are focused on our own work, are the only ones worth citing. It simply
meant to make it easier for users to cite ORCA specific papers. It is not a substitute for doing your
own literature research and citing the relevant literature in a scientifically appropriate manner.

List of essential papers. We consider these as the minimum necessary citations

  1. Neese, F.
     Software update: the ORCA program system, version 6.0
     WIRES Comput. Molec. Sci. 2025 15(1), e70019
     doi.org/10.1002/wcms.70019

List of papers to cite with high priority. The work reported in these papers was absolutely
necessary for this run to complete.
Our perspective: the developers of density functionals and basis sets usually get cited in chemistry papers
Good! But without the algorithms to do something with them, the functionals or basis sets would not do anything.
Hence, in our opinion, the algorithm design and method developments papers are equally worthy of getting cited

  1. Neese, F.; Olbrich, G.
     Efficient use of the resolution of the identity approximation in time-dependent density functional calculations with hybrid density functionals
     Chem. Phys. Lett. 2002 362 , 170-178
     doi.org/10.1016/s0009-2614(02)01053-9
  2. Neese, F.
     An improvement of the resolution of the identity approximation for the formation of the Coulomb matrix
     J. Comp. Chem. 2003 24(14), 1740-1747
     doi.org/10.1002/jcc.10318
  3. Garcia-Rates, M.; Neese, F.
     Effect of the Solute Cavity on the Solvation Energy and its Derivatives within the Framework of the Gaussian Charge Scheme
     J. Comput. Chem. 2020 41 , 922-939
     doi.org/10.1002/jcc.26139
  4. Neese, F.
     The SHARK Integral Generation and Digestion System
     J. Comp. Chem. 2022 44(3), 381
     doi.org/10.1002/jcc.26942

List of suggested additional citations. These are papers that are important in the 'surrounding' of 
of this run, or papers that preceded the highly important papers. If you like your results we are grateful for a citation.

  1. Neese, F.
     The ORCA program system
     WIRES Comput. Molec. Sci. 2012 2(1), 73-78
     doi.org/10.1002/wcms.81
  2. Neese, F.
     Software update: the ORCA program system, version 4.0
     WIRES Comput. Molec. Sci. 2018 8(1), 1-6
     doi.org/10.1002/wcms.1327
  3. Neese, F.; Wennmohs, F.; Becker, U.; Riplinger, C.
     The ORCA quantum chemistry program package
     J. Chem. Phys. 2020 152(22), 224108
     doi.org/10.1063/5.0004608
  4. Neese, F.
     Software update: The ORCA program system—Version 5.0
     WIRES Comput. Molec. Sci. 2022 12(1), e1606
     doi.org/10.1002/wcms.1606

List of optional additional citations

  1. Neese, F.
     Approximate second-order SCF convergence for spin unrestricted wavefunctions
     Chem. Phys. Lett. 2000 325(1-3), 93-98
     doi.org/10.1016/s0009-2614(00)00662-x

Timings for individual modules:

Sum of individual times          ...     6136.073 sec (= 102.268 min)
Startup calculation              ...       23.730 sec (=   0.395 min)   0.4 %
SCF iterations                   ...     1143.439 sec (=  19.057 min)  18.6 %
Property integrals               ...        4.061 sec (=   0.068 min)   0.1 %
Property calculations            ...        1.673 sec (=   0.028 min)   0.0 %
CIS module                       ...     4963.170 sec (=  82.720 min)  80.9 %
                             ****ORCA TERMINATED NORMALLY****
TOTAL RUN TIME: 0 days 1 hours 42 minutes 16 seconds 645 msec
