
                                 *****************
                                 * O   R   C   A *
                                 *****************

                                            #,                                       
                                            ###                                      
                                            ####                                     
                                            #####                                    
                                            ######                                   
                                           ########,                                 
                                     ,,################,,,,,                         
                               ,,#################################,,                 
                          ,,##########################################,,             
                       ,#########################################, ''#####,          
                    ,#############################################,,   '####,        
                  ,##################################################,,,,####,       
                ,###########''''           ''''###############################       
              ,#####''   ,,,,##########,,,,          '''####'''          '####       
            ,##' ,,,,###########################,,,                        '##       
           ' ,,###''''                  '''############,,,                           
         ,,##''                                '''############,,,,        ,,,,,,###''
      ,#''                                            '''#######################'''  
     '                                                          ''''####''''         
             ,#######,   #######,   ,#######,      ##                                
            ,#'     '#,  ##    ##  ,#'     '#,    #''#        ,####,    ,#,          
            ##       ##  ##   ,#'  ##            #'  '#       #'       ,# #          
            ##       ##  #######   ##           ,######,      #####,      #          
            '#,     ,#'  ##    ##  '#,     ,#' ,#      #,     #,   #      #          
             '#######'   ##     ##  '#######'  #'      '#     '####' #    #          



                #########################################################
                #                        -***-                          #
                #          Department of theory and spectroscopy        #
                #                                                       #
                #                      Frank Neese                      #
                #                                                       #
                #     Directorship, Architecture, Infrastructure        #
                #                    SHARK, DRIVERS                     #
                #        Core code/Algorithms in most modules           #
                #                                                       #
                #        Max Planck Institute fuer Kohlenforschung      #
                #                Kaiser Wilhelm Platz 1                 #
                #                 D-45470 Muelheim/Ruhr                 #
                #                      Germany                          #
                #                                                       #
                #                  All rights reserved                  #
                #                        -***-                          #
                #########################################################


                         Program Version 6.1.1  -  RELEASE   -
                                (GIT: $487d211c$)
                          ($2025-11-21 10:33:24 +0100$)


 With contributions from (in alphabetic order):
[Max-Planck-Institut fuer Kohlenforschung]                               
  Daniel Aravena         : Magnetic Suceptibility                        
  Michael Atanasov       : Ab Initio Ligand Field Theory (pilot matlab implementation)
  Alexander A. Auer      : GIAO ZORA, VPT2 properties, NMR spectrum      
  Ute Becker             : All parallelization in ORCA, NUMFREQ, NUMCALC 
  Giovanni Bistoni       : ED, misc. LED, open-shell LED, HFLD           
  Dmytro Bykov           : pre 5.0 version of the SCF Hessian            
  Marcos Casanova-Páez   : Triplet and SCS-CIS(D). UHF-(DLPNO)-IP/EA/STEOM-CCSD. UHF-CVS-IP/STEOM-CCSD   
  Vijay G. Chilkuri      : MRCI spin determinant printing, contributions to CSF-ICE 
  Pauline Colinet        : FMM embedding                                 
  Dipayan Datta          : RHF DLPNO-CCSD density                        
  Achintya Kumar Dutta   : EOM-CC, STEOM-CC                              
  Nicolas Foglia         : Exact transition moments, OPA infrastructure, MCD improvements    
  Dmitry Ganyushin       : Spin-Orbit,Spin-Spin,Magnetic field MRCI      
  Miquel Garcia-Rates    : C-PCM and meta-GGA Hessian, CCSD/C-PCM, Gaussian charge scheme 
  Tiago L. C. Gouveia    : GS-ROHF, GS-ROCIS                             
  Yang Guo               : DLPNO-NEVPT2, F12-NEVPT2, CIM, IAO-localization        
  Andreas Hansen         : Spin unrestricted coupled pair/coupled cluster methods 
  Ingolf Harden          : AUTO-CI MPn and infrastructure                
  Benjamin Helmich-Paris : MC-RPA, TRAH-(SCF,CASSCF), AVAS, COSX integrals, SCF dyn. polar., MC-PDFT, srDFT 
  Lee Huntington         : MR-EOM, pCC                                   
  Robert Izsak           : Overlap fitted RIJCOSX, COSX-SCS-MP3, EOM     
  Riya Kayal             : Wick's Theorem for AUTO-CI, AUTO-CI UHF-CCSDT 
  Emily Kempfer          : AUTO-CI RHF CISDT and CCSDT, approximate NEVPT4
  Christian Kollmar      : KDIIS, OOCD, Brueckner-CCSD(T), CCSD density, CASPT2, CASPT2-K, improved NEVPT2 
  Axel Koslowski         : Symmetry handling                             
  Simone Kossmann        : meta-GGA functionals, TD-DFT gradient, OOMP2, (MP2 Hessian; deprecated post 5.0) 
  Lucas Lang             : DCDCAS, Hyperfine gauge corrections, ICE-SOC+SSC
  Marvin Lechner         : AUTO-CI (C++ implementation), FIC-MRCC        
  Spencer Leger          : CASSCF response                               
  Dagmar Lenk            : GEPOL surface, SMD, ORCA-2-JSON               
  Dimitrios Liakos       : Extrapolation schemes; Compound Job, Property file
  Dimitrios Manganas     : Further ROCIS development; embedding schemes. LFT, Crystal Embedding 
  Dimitrios Pantazis     : SARC Basis sets                               
  Anastasios Papadopoulos: AUTO-CI, single reference methods and gradients 
  Taras Petrenko         : pre 6.0 DFT Hessian and TD-DFT gradient,  ECA, NRVS 
  Petra Pikulova         : Analytic Raman intensities                    
  Peter Pinski           : DLPNO-MP2, DLPNO-MP2 Gradient                 
  Shashank Vittal Rao    : ES-AILFT, MagRelax                            
  Christoph Reimann      : Effective Core Potentials                     
  Marius Retegan         : Local ZFS, SOC                                
  Christoph Riplinger    : Optimizer, TS searches, QM/MM, DLPNO-CCSD(T), (RO)-DLPNO pert. Triples 
  Michael Roemelt        : Original ROCIS implementation, recursive CI coupling coefficients
  Masaaki Saitow         : Open-shell DLPNO-CCSD energy and density      
  Barbara Sandhoefer     : DKH picture change effects                    
  Yorick L. A. Schmerwitz: GMF and freeze-and-release deltaSCF, NEB S-IDPP initial path                    
  Kantharuban Sivalingam : CASSCF convergence/infrastructure, NEVPT2, NEVPT3, NEVPT4(SD), FIC-MRCI and CEPA variants
  Bernardo de Souza      : ESD, SOC TD-DFT                               
  Georgi L. Stoychev     : AutoAux, RI-MP2 NMR, DLPNO-MP2 response, X2C  
  Van Anh Tran           : RI-MP2 g-tensors                              
  Willem Van den Heuvel  : Paramagnetic NMR                              
  Zikuan Wang            : NOTCH, Electric field optimization            
  Frank Wennmohs         : Technical directorship and infrastructure     
  Hang Xu                : AUTO-CI-Response properties                   
                                                                         
[FACCTs GmbH]                                                            
  Markus Bursch, Nicolas Foglia, Miquel Garcia-Rates, Ingolf Harden, Hagen Neugebauer, Anastasios Papadopoulos, 
  Christoph Riplinger, Bernardo de Souza, Georgi L. Stoychev                                                    
                                                                 
  APM, various basis sets, CI-OPT, improved COSX, DLPNO-Multilevel,           
  DOCKER, DRACO, updates on ESD, Fragmentator, GOAT, IRC, LR-CPCM, L-BFGS, MBIS, meta-GGA TD-DFT gradient, ML-optimized integration grids, 
  MM, NACMEs, nearIR, NEB, NEB-TS, NL-DFT gradient (VV10), 2- and 3-layer-ONIOM, interface openCOSMO-RS, QMMM,   
  Crystal-QMMM, RESP, rigid body optimization, SF, symmetry and pop. for TD-DFT, various functionals, SOLVATOR                                   
                                                                         
[Other institutions]                                                     
  V. Asgeirsson          : NEB                                           
  Christoph Bannwarth    : sTDA-DFT, sTD-DFT, PBEh-3c, B97-3c, D3        
  Giovanni Bistoni       : ETS/NOCV, ADLD/ADEX, COVALED                  
  Martin Brehm           : Molecular dynamics                            
  Ronald Cardenas        : ETS/NOCV                                      
  Martina Colucci        : COVALED                                       
  Sebastian Ehlert       : rSCAN, r2SCAN, r2SCAN-3c, D4, dhf basis sets  
  Marvin Friede          : D4 for Fr, Ra, Ac-Lr                          
  Lars Goerigk           : TD-DFT with DH, B97 family of functionals     
  Stefan Grimme          : VdW corrections, initial TS optimization, DFT functionals, gCP, sTDA/sTD-DF 
  Waldemar Hujo          : DFT-NL                                        
  H. Jonsson             : NEB                                           
  Holger Kruse           : gCP                                           
  Marcel Mueller         : wB97X-3c, vDZP basis set                      
  Hagen Neugebauer       : wr2SCAN, Native XTB                           
  Gianluca Regni         : ADLD/ADEX                                     
  Tobias Risthaus        : pre 6.0 range-separated hybrid DFT and stability analysis
  Lukas Wittmann         : regularized MP2, r2SCAN double-hybrids, wr2SCAN        
                                                                         
We gratefully acknowledge several colleagues who have allowed us to      
interface, adapt or use parts of their codes:                            
  Ed Valeev, F. Pavosevic, A. Kumar             : LibInt (2-el integral package), F12 methods 
  Garnet Chan, S. Sharma, J. Yang, R. Olivares  : DMRG                   
  Ulf Ekstrom                                   : XCFun DFT Library      
  Mihaly Kallay                                 : mrcc  (arbitrary order and MRCC methods)
  Frank Weinhold                                : gennbo (NPA and NBO analysis)           
  Simon Mueller                                 : openCOSMO-RS                            
  Christopher J. Cramer and Donald G. Truhlar   : smd solvation model                     
  S Lehtola, MJT Oliveira, MAL Marques          : LibXC Library                           
  Liviu Ungur et al                             : ANISO software                          


 Your calculation uses the libint2 library for the computation of 2-el integrals
 For citations please refer to: http://libint.valeyev.net

 Your ORCA version has been built with support for libXC version: 7.0.0
 For citations please refer to: https://libxc.gitlab.io

 This ORCA versions uses:
   CBLAS   interface :  Fast vector & matrix operations
   LAPACKE interface :  Fast linear algebra routines
   SCALAPACK package :  Parallel linear algebra routines
   Shared memory     :  Shared parallel matrices
   BLAS/LAPACK       :  OpenBLAS 0.3.29  USE64BITINT DYNAMIC_ARCH NO_AFFINITY Haswell SINGLE_THREADED
        Core in use  :  Haswell
   Copyright (c) 2011-2014, The OpenBLAS Project


  ***********************************
  * Starting time: Thu Jun 18 20:49:37 2026
  * Host name:     steezy
  * Process ID:    4058782
  * Working dir.:  /home/jannes/metaltpp/nitpp/02_tddft_tda_comparison/runs/tdaoff_bp86
  ***********************************

NOTE: MaxCore=3000 MB was set to SCF,MP2,MDCI,CIPSI,MRCI,RASCI and CIS
      => If you want to overwrite this, your respective input block should be placed after the MaxCore statement


***************************************
The coordinates will be read from file: /home/jannes/metaltpp/nitpp/01_opt/nitpp_opt_b3lyp_tzvp.xyz
***************************************


================================================================================

----- Orbital basis set information -----
Your calculation utilizes the basis: def2-TZVP
   F. Weigend and R. Ahlrichs, Phys. Chem. Chem. Phys. 7, 3297 (2005).

----- AuxJ basis set information -----
Your calculation utilizes the auxiliary basis: def2/J
   H-Rn: F. Weigend, Phys. Chem. Chem. Phys. 8, 1057 (2006).
   Fr-Lr: K. Eichkorn, F. Weigend, O. Treutler, R. Ahlrichs; Theor. Chem. Acc. 97, 119 (1997).

================================================================================
                                        WARNINGS
                       Please study these warnings very carefully!
================================================================================



WARNING: Found flag for RIJCOSX approximation but no HF exchange needed!
  ===> : RIJCOSX  will be disabled and Split-RI-J is turned on

WARNING: CIS/ROCIS methods need fully converged wavefunctions
  ===> : Setting SCFConvForced true
         You can overwrite this default with %scf ConvForced false 


================================================================================
                                       INPUT FILE
================================================================================
NAME = tddft.inp
|  1> %pal nprocs 8 end
|  2> %maxcore 3000
|  3> ! BP86 def2-TZVP def2/J RIJCOSX DefGrid3 TightSCF CPCM(Toluene)
|  4> %tddft
|  5>   nroots 30
|  6>   triplets false
|  7>   tda false
|  8> end
|  9> * xyzfile 0 1 /home/jannes/metaltpp/nitpp/01_opt/nitpp_opt_b3lyp_tzvp.xyz
| 10> 
| 11>                          ****END OF INPUT****
================================================================================

                       ****************************
                       * Single Point Calculation *
                       ****************************

---------------------------------
CARTESIAN COORDINATES (ANGSTROEM)
---------------------------------
  N     -2.033380    2.525664    3.519664
  H      1.686682   -2.144824    4.059556
  C     -4.280853    2.993931    3.766152
  C     -0.360844   -1.512596    3.618564
  N      0.086819    0.752407    3.646252
  C      0.955283   -1.371831    3.895622
  H     -0.924554   -2.424161    3.518230
  C      2.790429    1.898765    3.753177
  N     -0.256609    4.633140    3.280862
  C     -1.124474    6.767732    3.145003
  C      2.515097    0.563846    4.020529
  C      2.595196    3.981672    3.108447
  N      1.863822    2.861301    3.423752
  C      4.000691    3.716250    3.247168
  C     -0.906551   -0.188363    3.499145
  C      1.235093    0.037765    3.892254
  C     -2.771027    1.368021    3.446422
  C     -2.951776    3.535875    3.691852
  C     -4.172038    1.658978    3.579646
  C     -2.262901    0.077270    3.360352
  C     -2.672389    4.896557    3.690839
  C      4.119748    2.439875    3.677935
  C     -1.398943    5.384572    3.422037
  C      0.181889    6.849504    2.805013
  C      2.080619    5.234553    2.796373
  C      0.728480    5.525740    2.925114
  H     -5.175347    3.571462    3.924441
  H     -4.958431    0.923724    3.562914
  H      5.020850    1.899007    3.910910
  H      4.783899    4.432208    3.064773
  H      0.738578    7.723314    2.512963
  H     -1.853252    7.559573    3.179091
  Ni    -0.084553    2.693124    3.467765
  C      3.637637   -0.358335    4.375634
  C      4.515453   -0.838049    3.400447
  C      5.551851   -1.701041    3.739387
  C      5.727802   -2.097196    5.060877
  C      4.859729   -1.626700    6.039832
  C      3.822009   -0.765690    5.698863
  H      4.379479   -0.535160    2.369482
  H      6.220173   -2.065920    2.969070
  H      6.535147   -2.768694    5.325475
  H      4.989489   -1.928550    7.071899
  H      3.147911   -0.401093    6.464260
  C     -3.219097   -1.060724    3.195776
  C     -3.774925   -1.336143    1.944255
  C     -4.668917   -2.388641    1.778904
  C     -5.024319   -3.180592    2.865070
  C     -4.480038   -2.913588    4.116750
  C     -3.584179   -1.862614    4.279968
  H     -3.500016   -0.721577    1.095800
  H     -5.086426   -2.589558    0.799907
  H     -5.721351   -3.999503    2.737569
  H     -4.754659   -3.522074    4.969686
  H     -3.166023   -1.655401    5.257388
  C     -3.785095    5.873238    3.900709
  C     -4.710474    6.144049    2.889664
  C     -5.737047    7.059821    3.092564
  C     -5.855551    7.718743    4.311586
  C     -4.939830    7.457879    5.324828
  C     -3.911925    6.543768    5.119470
  H     -4.619010    5.636359    1.937324
  H     -6.442728    7.260305    2.295698
  H     -6.655395    8.431370    4.470125
  H     -5.024812    7.964904    6.278142
  H     -3.200748    6.342684    5.911260
  C      3.027914    6.317709    2.389853
  C      3.552570    6.344247    1.095590
  C      4.438292    7.343878    0.707557
  C      4.816783    8.331488    1.610143
  C      4.303897    8.313067    2.902733
  C      3.416318    7.314509    3.288450
  H      3.260167    5.576770    0.389452
  H      4.831396    7.350425   -0.301672
  H      5.507439    9.109363    1.309081
  H      4.596592    9.075150    3.614585
  H      3.022811    7.301348    4.297447

----------------------------
CARTESIAN COORDINATES (A.U.)
----------------------------
  NO LB      ZA    FRAG     MASS         X           Y           Z
   0 N     7.0000    0    14.007   -3.842532    4.772813    6.651201
   1 H     1.0000    0     1.008    3.187367   -4.053130    7.671449
   2 C     6.0000    0    12.011   -8.089639    5.657709    7.116996
   3 C     6.0000    0    12.011   -0.681896   -2.858392    6.838095
   4 N     7.0000    0    14.007    0.164063    1.421843    6.890418
   5 C     6.0000    0    12.011    1.805223   -2.592385    7.361658
   6 H     1.0000    0     1.008   -1.747154   -4.581000    6.648492
   7 C     6.0000    0    12.011    5.273146    3.588147    7.092476
   8 N     7.0000    0    14.007   -0.484921    8.755365    6.199930
   9 C     6.0000    0    12.011   -2.124949   12.789160    5.943194
  10 C     6.0000    0    12.011    4.752845    1.065515    7.597698
  11 C     6.0000    0    12.011    4.904209    7.524269    5.874113
  12 N     7.0000    0    14.007    3.522113    5.407074    6.469953
  13 C     6.0000    0    12.011    7.560210    7.022695    6.136257
  14 C     6.0000    0    12.011   -1.713133   -0.355954    6.612426
  15 C     6.0000    0    12.011    2.333987    0.071365    7.355294
  16 C     6.0000    0    12.011   -5.236483    2.585186    6.512794
  17 C     6.0000    0    12.011   -5.578048    6.681834    6.976589
  18 C     6.0000    0    12.011   -7.884009    3.135014    6.764550
  19 C     6.0000    0    12.011   -4.276263    0.146020    6.350144
  20 C     6.0000    0    12.011   -5.050083    9.253152    6.974675
  21 C     6.0000    0    12.011    7.785195    4.610696    6.950290
  22 C     6.0000    0    12.011   -2.643618   10.175366    6.466712
  23 C     6.0000    0    12.011    0.343720   12.943687    5.300707
  24 C     6.0000    0    12.011    3.931801    9.891872    5.284379
  25 C     6.0000    0    12.011    1.376627   10.442135    5.527664
  26 H     1.0000    0     1.008   -9.779989    6.749085    7.416119
  27 H     1.0000    0     1.008   -9.370077    1.745585    6.732932
  28 H     1.0000    0     1.008    9.488032    3.588603    7.390549
  29 H     1.0000    0     1.008    9.040260    8.375660    5.791581
  30 H     1.0000    0     1.008    1.395710   14.594948    4.748811
  31 H     1.0000    0     1.008   -3.502139   14.285522    6.007611
  32 Ni   28.0000    0    58.700   -0.159781    5.089267    6.553126
  33 C     6.0000    0    12.011    6.874137   -0.677156    8.268751
  34 C     6.0000    0    12.011    8.532970   -1.583683    6.425913
  35 C     6.0000    0    12.011   10.491478   -3.214502    7.066417
  36 C     6.0000    0    12.011   10.823978   -3.963126    9.563671
  37 C     6.0000    0    12.011    9.183557   -3.074017   11.413627
  38 C     6.0000    0    12.011    7.222551   -1.446944   10.769290
  39 H     1.0000    0     1.008    8.276016   -1.011305    4.477672
  40 H     1.0000    0     1.008   11.754423   -3.904022    5.610729
  41 H     1.0000    0     1.008   12.349639   -5.232073   10.063689
  42 H     1.0000    0     1.008    9.428767   -3.644431   13.363952
  43 H     1.0000    0     1.008    5.948689   -0.757957   12.215682
  44 C     6.0000    0    12.011   -6.083213   -2.004477    6.039142
  45 C     6.0000    0    12.011   -7.133575   -2.524945    3.674110
  46 C     6.0000    0    12.011   -8.822975   -4.513878    3.361641
  47 C     6.0000    0    12.011   -9.494587   -6.010447    5.414198
  48 C     6.0000    0    12.011   -8.466046   -5.505884    7.779530
  49 C     6.0000    0    12.011   -6.773117   -3.519830    8.087967
  50 H     1.0000    0     1.008   -6.614072   -1.363584    2.070762
  51 H     1.0000    0     1.008   -9.611953   -4.893555    1.511605
  52 H     1.0000    0     1.008  -10.811787   -7.557965    5.173256
  53 H     1.0000    0     1.008   -8.985003   -6.655756    9.391346
  54 H     1.0000    0     1.008   -5.982916   -3.128255    9.935023
  55 C     6.0000    0    12.011   -7.152794   11.098812    7.371271
  56 C     6.0000    0    12.011   -8.901506   11.610570    5.460674
  57 C     6.0000    0    12.011  -10.841448   13.341128    5.844098
  58 C     6.0000    0    12.011  -11.065388   14.586310    8.147717
  59 C     6.0000    0    12.011   -9.334925   14.093349   10.062468
  60 C     6.0000    0    12.011   -7.392467   12.365929    9.674396
  61 H     1.0000    0     1.008   -8.728664   10.651175    3.661012
  62 H     1.0000    0     1.008  -12.174991   13.719987    4.338240
  63 H     1.0000    0     1.008  -12.576875   15.932979    8.447313
  64 H     1.0000    0     1.008   -9.495519   15.051486   11.863968
  65 H     1.0000    0     1.008   -6.048537   11.985936   11.170663
  66 C     6.0000    0    12.011    5.721928   11.938740    4.516167
  67 C     6.0000    0    12.011    6.713385   11.988890    2.070366
  68 C     6.0000    0    12.011    8.387156   13.877918    1.337089
  69 C     6.0000    0    12.011    9.102400   15.744232    3.042730
  70 C     6.0000    0    12.011    8.133186   15.709419    5.485371
  71 C     6.0000    0    12.011    6.455905   13.822419    6.214270
  72 H     1.0000    0     1.008    6.160823   10.538569    0.735958
  73 H     1.0000    0     1.008    9.130015   13.890290   -0.570077
  74 H     1.0000    0     1.008   10.407551   17.214201    2.473805
  75 H     1.0000    0     1.008    8.686300   17.149548    6.830575
  76 H     1.0000    0     1.008    5.712286   13.797549    8.120998

--------------------------------
INTERNAL COORDINATES (ANGSTROEM)
--------------------------------
 N      0   0   0     0.000000000000     0.00000000     0.00000000
 H      1   0   0     5.995315508272     0.00000000     0.00000000
 C      1   2   0     2.308931053632   138.79490074     0.00000000
 C      2   1   3     2.187818188686    34.51509210    28.46924667
 N      4   2   1     2.308984119046    95.71664910     5.98864078
 C      2   1   3     1.076725224652     6.02819997    52.25655203
 H      4   2   1     1.076469392692   105.31736084   185.45002408
 C      5   4   2     2.938550259804   124.15914566     9.70481593
 N      1   2   6     2.766838542197   101.69406723   220.83270345
 C      9   1   2     2.308274917556   117.90564310   183.06361943
 C      8   5   4     1.388990351357    56.61266624   345.83057752
 C      8   5   4     2.189130085284   106.16542615   162.07924345
 N     12   8   5     1.374611031908    37.28790363     6.92173381
 C     12   8   5     1.437048640156    73.05872554   186.73902979
 C      5   4   2     1.376034679274    35.71766369   182.17661476
 C      5   4   2     1.374686742588    69.76546214     0.50482964
 C      1   2   6     1.374635800842    71.44065023    31.85219035
 C      1   2   6     1.376090255474   167.09468947   110.00158307
 C      3   1   2     1.352303524528    72.94721570   338.48386433
 C     15   5   4     1.389068096567   125.79197284   175.25282973
 C     18   1  17     1.389070099609   125.78801284   186.46122822
 C     14  12   8     1.352356762283   106.92822134   358.48861660
 C      9   1   2     1.374592940041    82.75329166   189.59583980
 C     10   9   1     1.352355187234    72.99353251   192.52396603
 C     12   8   5     1.389924806705   163.09861065    19.30569027
 C      9   1   2     1.376114871863   167.43960178    57.81503606
 H      3   1   2     1.076437679752   158.96571893   157.28957730
 H     19   3   1     1.076704678754   128.13275166   178.88841852
 H     22  14  12     1.076476315094   128.08611064   181.29236595
 H     14  12   8     1.076698543151   124.90904816   180.27164158
 H     24  10   9     1.076447951058   128.08708021   179.44762224
 H     10   9   1     1.076703725167   158.86233423    10.09357501
 Ni    13  12   8     1.956114472265   127.24235614   177.68225425
 C     11   8   5     1.495531305817   119.31017380   179.63325557
 C     34  11   8     1.397024631342   121.17310164   284.14277619
 C     35  34  11     1.390596223836   120.74789176   180.35613056
 C     36  35  34     1.390766856568   120.17606850   359.92820901
 C     37  36  35     1.390421039675   119.57923292     0.10802008
 C     38  37  36     1.390848751208   120.17782263     0.00000000
 H     35  34  11     1.083106389568   119.30984913     0.03868797
 H     36  35  34     1.083133441564   119.70800478   179.75204590
 H     37  36  35     1.082925437203   120.20606687   180.04209715
 H     38  37  36     1.083103658351   120.11879178   180.08077482
 H     39  38  37     1.083130922690   119.96640067   180.01249711
 C     20  15   5     1.495468770539   119.32822483   179.40348951
 C     45  20  15     1.396819993284   120.20372965   255.08308869
 C     46  45  20     1.390796214797   120.76509329   180.22391711
 C     47  46  45     1.390414536414   120.16305511     0.18979337
 C     48  47  46     1.390767593618   119.58240669     0.00000000
 C     49  48  47     1.390593935200   120.18876464   359.88265423
 H     46  45  20     1.083116914282   119.27384816     0.43888253
 H     47  46  45     1.083104909446   119.71070159   180.25760523
 H     48  47  46     1.082924786729   120.21639631   179.91827796
 H     49  48  47     1.083130703668   120.10870655   179.70289983
 H     50  49  48     1.083116288322   119.94861527   179.72962536
 C     21  18   1     1.495348347558   119.34261113   180.38498785
 C     56  21  18     1.397095241345   121.19198743   285.28729172
 C     57  56  21     1.390560604769   120.73343996   180.37007467
 C     58  57  56     1.390768524184   120.18627328   359.92130629
 C     59  58  57     1.390415757456   119.58642194     0.11985065
 C     60  59  58     1.390812861998   120.16266210     0.00000000
 H     57  56  21     1.083082093641   119.30926447     0.00000000
 H     58  57  56     1.083131474444   119.70466233   179.73268150
 H     59  58  57     1.082922981887   120.20075292   180.04931472
 H     60  59  58     1.083098134837   120.12636600   180.09629411
 H     61  60  59     1.083115937023   119.95732438   180.03344245
 C     25  12   8     1.495276696795   118.65022734   174.73502472
 C     67  25  12     1.396812072688   120.24048279    78.17496294
 C     68  67  25     1.390803495918   120.75550273   180.23851252
 C     69  68  67     1.390428723910   120.18297614     0.19574417
 C     70  69  68     1.390747857322   119.57289456     0.00000000
 C     71  70  69     1.390572401932   120.17902480   359.87683128
 H     68  67  25     1.083121130040   119.28934076     0.43782496
 H     69  68  67     1.083104771231   119.69946611   180.26296706
 H     70  69  68     1.082927967106   120.22179297   179.91687317
 H     71  70  69     1.083131490943   120.12271330   179.69080096
 H     72  71  70     1.083094820246   119.93571331   179.72106476

---------------------------
INTERNAL COORDINATES (A.U.)
---------------------------
 N      0   0   0     0.000000000000     0.00000000     0.00000000
 H      1   0   0    11.329504397085     0.00000000     0.00000000
 C      1   2   0     4.363247353470   138.79490074     0.00000000
 C      2   1   3     4.134377207428    34.51509210    28.46924667
 N      4   2   1     4.363347632570    95.71664910     5.98864078
 C      2   1   3     2.034715796077     6.02819997    52.25655203
 H      4   2   1     2.034232343736   105.31736084   185.45002408
 C      5   4   2     5.553055221792   124.15914566     9.70481593
 N      1   2   6     5.228567101529   101.69406723   220.83270345
 C      9   1   2     4.362007435980   117.90564310   183.06361943
 C      8   5   4     2.624811366724    56.61266624   345.83057752
 C      8   5   4     4.136856332714   106.16542615   162.07924345
 N     12   8   5     2.597638390974    37.28790363     6.92173381
 C     12   8   5     2.715628371019    73.05872554   186.73902979
 C      5   4   2     2.600328694607    35.71766369   182.17661476
 C      5   4   2     2.597781463424    69.76546214     0.50482964
 C      1   2   6     2.597685197476    71.44065023    31.85219035
 C      1   2   6     2.600433718404   167.09468947   110.00158307
 C      3   1   2     2.555483311295    72.94721570   338.48386433
 C     15   5   4     2.624958283879   125.79197284   175.25282973
 C     18   1  17     2.624962069080   125.78801284   186.46122822
 C     14  12   8     2.555583916071   106.92822134   358.48861660
 C      9   1   2     2.597604202299    82.75329166   189.59583980
 C     10   9   1     2.555580939660    72.99353251   192.52396603
 C     12   8   5     2.626577231415   163.09861065    19.30569027
 C      9   1   2     2.600480236636   167.43960178    57.81503606
 H      3   1   2     2.034172414964   158.96571893   157.28957730
 H     19   3   1     2.034676969956   128.13275166   178.88841852
 H     22  14  12     2.034245425180   128.08611064   181.29236595
 H     14  12   8     2.034665375347   124.90904816   180.27164158
 H     24  10   9     2.034191824920   128.08708021   179.44762224
 H     10   9   1     2.034675167939   158.86233423    10.09357501
 Ni    13  12   8     3.696520639181   127.24235614   177.68225425
 C     11   8   5     2.826144592700   119.31017380   179.63325557
 C     34  11   8     2.639993955579   121.17310164   284.14277619
 C     35  34  11     2.627846025916   120.74789176   180.35613056
 C     36  35  34     2.628168475048   120.17606850   359.92820901
 C     37  36  35     2.627514975828   119.57923292     0.10802008
 C     38  37  36     2.628323233489   120.17782263     0.00000000
 H     35  34  11     2.046774450184   119.30984913     0.03868797
 H     36  35  34     2.046825571048   119.70800478   179.75204590
 H     37  36  35     2.046432499770   120.20606687   180.04209715
 H     38  37  36     2.046769288932   120.11879178   180.08077482
 H     39  38  37     2.046820811066   119.96640067   180.01249711
 C     20  15   5     2.826026418150   119.32822483   179.40348951
 C     45  20  15     2.639607245693   120.20372965   255.08308869
 C     46  45  20     2.628223954061   120.76509329   180.22391711
 C     47  46  45     2.627502686445   120.16305511     0.18979337
 C     48  47  46     2.628169867870   119.58240669     0.00000000
 C     49  48  47     2.627841701019   120.18876464   359.88265423
 H     46  45  20     2.046794339011   119.27384816     0.43888253
 H     47  46  45     2.046771653159   119.71070159   180.25760523
 H     48  47  46     2.046431270554   120.21639631   179.91827796
 H     49  48  47     2.046820397174   120.10870655   179.70289983
 H     50  49  48     2.046793156117   119.94861527   179.72962536
 C     21  18   1     2.825798851696   119.34261113   180.38498785
 C     56  21  18     2.640127389147   121.19198743   285.28729172
 C     57  56  21     2.627778715634   120.73343996   180.37007467
 C     58  57  56     2.628171626385   120.18627328   359.92130629
 C     59  58  57     2.627504993881   119.58642194     0.11985065
 C     60  59  58     2.628255412712   120.16266210     0.00000000
 H     57  56  21     2.046728537535   119.30926447     0.00000000
 H     58  57  56     2.046821853730   119.70466233   179.73268150
 H     59  58  57     2.046427859896   120.20075292   180.04931472
 H     60  59  58     2.046758851002   120.12636600   180.09629411
 H     61  60  59     2.046792492258   119.95732438   180.03344245
 C     25  12   8     2.825663451376   118.65022734   174.73502472
 C     67  25  12     2.639592277935   120.24048279    78.17496294
 C     68  67  25     2.628237713384   120.75550273   180.23851252
 C     69  68  67     2.627529496928   120.18297614     0.19574417
 C     70  69  68     2.628132571676   119.57289456     0.00000000
 C     71  70  69     2.627801009040   120.17902480   359.87683128
 H     68  67  25     2.046802305638   119.28934076     0.43782496
 H     69  68  67     2.046771391970   119.69946611   180.26296706
 H     70  69  68     2.046437280595   120.22179297   179.91687317
 H     71  70  69     2.046821884909   120.12271330   179.69080096
 H     72  71  70     2.046752587333   119.93571331   179.72106476

---------------------
BASIS SET INFORMATION
---------------------
There are 4 groups of distinct atoms

 Group   1 Type N   : 11s6p2d1f contracted to 5s3p2d1f pattern {62111/411/11/1}
 Group   2 Type H   : 5s1p contracted to 3s1p pattern {311/1}
 Group   3 Type C   : 11s6p2d1f contracted to 5s3p2d1f pattern {62111/411/11/1}
 Group   4 Type Ni  : 17s11p7d1f contracted to 6s4p4d1f pattern {842111/6311/4111/1}

Atom   0N    basis set group =>   1
Atom   1H    basis set group =>   2
Atom   2C    basis set group =>   3
Atom   3C    basis set group =>   3
Atom   4N    basis set group =>   1
Atom   5C    basis set group =>   3
Atom   6H    basis set group =>   2
Atom   7C    basis set group =>   3
Atom   8N    basis set group =>   1
Atom   9C    basis set group =>   3
Atom  10C    basis set group =>   3
Atom  11C    basis set group =>   3
Atom  12N    basis set group =>   1
Atom  13C    basis set group =>   3
Atom  14C    basis set group =>   3
Atom  15C    basis set group =>   3
Atom  16C    basis set group =>   3
Atom  17C    basis set group =>   3
Atom  18C    basis set group =>   3
Atom  19C    basis set group =>   3
Atom  20C    basis set group =>   3
Atom  21C    basis set group =>   3
Atom  22C    basis set group =>   3
Atom  23C    basis set group =>   3
Atom  24C    basis set group =>   3
Atom  25C    basis set group =>   3
Atom  26H    basis set group =>   2
Atom  27H    basis set group =>   2
Atom  28H    basis set group =>   2
Atom  29H    basis set group =>   2
Atom  30H    basis set group =>   2
Atom  31H    basis set group =>   2
Atom  32Ni   basis set group =>   4
Atom  33C    basis set group =>   3
Atom  34C    basis set group =>   3
Atom  35C    basis set group =>   3
Atom  36C    basis set group =>   3
Atom  37C    basis set group =>   3
Atom  38C    basis set group =>   3
Atom  39H    basis set group =>   2
Atom  40H    basis set group =>   2
Atom  41H    basis set group =>   2
Atom  42H    basis set group =>   2
Atom  43H    basis set group =>   2
Atom  44C    basis set group =>   3
Atom  45C    basis set group =>   3
Atom  46C    basis set group =>   3
Atom  47C    basis set group =>   3
Atom  48C    basis set group =>   3
Atom  49C    basis set group =>   3
Atom  50H    basis set group =>   2
Atom  51H    basis set group =>   2
Atom  52H    basis set group =>   2
Atom  53H    basis set group =>   2
Atom  54H    basis set group =>   2
Atom  55C    basis set group =>   3
Atom  56C    basis set group =>   3
Atom  57C    basis set group =>   3
Atom  58C    basis set group =>   3
Atom  59C    basis set group =>   3
Atom  60C    basis set group =>   3
Atom  61H    basis set group =>   2
Atom  62H    basis set group =>   2
Atom  63H    basis set group =>   2
Atom  64H    basis set group =>   2
Atom  65H    basis set group =>   2
Atom  66C    basis set group =>   3
Atom  67C    basis set group =>   3
Atom  68C    basis set group =>   3
Atom  69C    basis set group =>   3
Atom  70C    basis set group =>   3
Atom  71C    basis set group =>   3
Atom  72H    basis set group =>   2
Atom  73H    basis set group =>   2
Atom  74H    basis set group =>   2
Atom  75H    basis set group =>   2
Atom  76H    basis set group =>   2
---------------------------------
AUXILIARY/J BASIS SET INFORMATION
---------------------------------
There are 4 groups of distinct atoms

 Group   1 Type N   : 12s5p4d2f1g contracted to 6s4p3d1f1g pattern {711111/2111/211/2/1}
 Group   2 Type H   : 5s2p1d contracted to 3s1p1d pattern {311/2/1}
 Group   3 Type C   : 12s5p4d2f1g contracted to 6s4p3d1f1g pattern {711111/2111/211/2/1}
 Group   4 Type Ni  : 19s5p5d3f3g contracted to 8s5p5d2f3g pattern {121111111/11111/11111/21/111}

Atom   0N    basis set group =>   1
Atom   1H    basis set group =>   2
Atom   2C    basis set group =>   3
Atom   3C    basis set group =>   3
Atom   4N    basis set group =>   1
Atom   5C    basis set group =>   3
Atom   6H    basis set group =>   2
Atom   7C    basis set group =>   3
Atom   8N    basis set group =>   1
Atom   9C    basis set group =>   3
Atom  10C    basis set group =>   3
Atom  11C    basis set group =>   3
Atom  12N    basis set group =>   1
Atom  13C    basis set group =>   3
Atom  14C    basis set group =>   3
Atom  15C    basis set group =>   3
Atom  16C    basis set group =>   3
Atom  17C    basis set group =>   3
Atom  18C    basis set group =>   3
Atom  19C    basis set group =>   3
Atom  20C    basis set group =>   3
Atom  21C    basis set group =>   3
Atom  22C    basis set group =>   3
Atom  23C    basis set group =>   3
Atom  24C    basis set group =>   3
Atom  25C    basis set group =>   3
Atom  26H    basis set group =>   2
Atom  27H    basis set group =>   2
Atom  28H    basis set group =>   2
Atom  29H    basis set group =>   2
Atom  30H    basis set group =>   2
Atom  31H    basis set group =>   2
Atom  32Ni   basis set group =>   4
Atom  33C    basis set group =>   3
Atom  34C    basis set group =>   3
Atom  35C    basis set group =>   3
Atom  36C    basis set group =>   3
Atom  37C    basis set group =>   3
Atom  38C    basis set group =>   3
Atom  39H    basis set group =>   2
Atom  40H    basis set group =>   2
Atom  41H    basis set group =>   2
Atom  42H    basis set group =>   2
Atom  43H    basis set group =>   2
Atom  44C    basis set group =>   3
Atom  45C    basis set group =>   3
Atom  46C    basis set group =>   3
Atom  47C    basis set group =>   3
Atom  48C    basis set group =>   3
Atom  49C    basis set group =>   3
Atom  50H    basis set group =>   2
Atom  51H    basis set group =>   2
Atom  52H    basis set group =>   2
Atom  53H    basis set group =>   2
Atom  54H    basis set group =>   2
Atom  55C    basis set group =>   3
Atom  56C    basis set group =>   3
Atom  57C    basis set group =>   3
Atom  58C    basis set group =>   3
Atom  59C    basis set group =>   3
Atom  60C    basis set group =>   3
Atom  61H    basis set group =>   2
Atom  62H    basis set group =>   2
Atom  63H    basis set group =>   2
Atom  64H    basis set group =>   2
Atom  65H    basis set group =>   2
Atom  66C    basis set group =>   3
Atom  67C    basis set group =>   3
Atom  68C    basis set group =>   3
Atom  69C    basis set group =>   3
Atom  70C    basis set group =>   3
Atom  71C    basis set group =>   3
Atom  72H    basis set group =>   2
Atom  73H    basis set group =>   2
Atom  74H    basis set group =>   2
Atom  75H    basis set group =>   2
Atom  76H    basis set group =>   2


           ************************************************************
           *        Program running with 8 parallel MPI-processes     *
           *              working on a common directory               *
           ************************************************************
------------------------------------------------------------------------------
                             ORCA STARTUP CALCULATIONS
                           -- RI-GTO INTEGRALS CHOSEN --
------------------------------------------------------------------------------
------------------------------------------------------------------------------
                   ___                                                        
                  /   \      - P O W E R E D   B Y -                         
                 /     \                                                     
                 |  |  |   _    _      __       _____    __    __             
                 |  |  |  | |  | |    /  \     |  _  \  |  |  /  |          
                  \  \/   | |  | |   /    \    | | | |  |  | /  /          
                 / \  \   | |__| |  /  /\  \   | |_| |  |  |/  /          
                |  |  |   |  __  | /  /__\  \  |    /   |      \           
                |  |  |   | |  | | |   __   |  |    \   |  |\   \          
                \     /   | |  | | |  |  |  |  | |\  \  |  | \   \       
                 \___/    |_|  |_| |__|  |__|  |_| \__\ |__|  \__/        
                                                                              
                      - O R C A' S   B I G   F R I E N D -                    
                                      &                                       
                       - I N T E G R A L  F E E D E R -                       
                                                                              
 v1 FN, 2020, v2 2021, v3 2022-2024                                           
------------------------------------------------------------------------------


----------------------
SHARK INTEGRAL PACKAGE
----------------------

Number of atoms                             ...     77
Number of basis functions                   ...   1701
Number of shells                            ...    655
Maximum angular momentum                    ...      3
Integral batch strategy                     ... SHARK/LIBINT Hybrid
RI-J (if used) integral strategy            ... SPLIT-RIJ (Revised 2003 algorithm where possible)
Printlevel                                  ...      1
Contraction scheme used                     ... SEGMENTED contraction
Prescreening option                         ... SCHWARTZ
   Thresh                                   ... 2.500e-11
   Tcut                                     ... 2.500e-12
   Tpresel                                  ... 2.500e-12 
Coulomb Range Separation                    ... NOT USED
Exchange Range Separation                   ... NOT USED
Multipole approximations                    ... NOT USED
Finite Nucleus Model                        ... NOT USED
CABS basis                                  ... NOT available
Auxiliary Coulomb fitting basis             ... AVAILABLE
   # of basis functions in Aux-J            ...   2749
   # of shells in Aux-J                     ...    883
   Maximum angular momentum in Aux-J        ...      4
Auxiliary J/K fitting basis                 ... NOT available
Auxiliary Correlation fitting basis         ... NOT available
Auxiliary 'external' fitting basis          ... NOT available

Checking pre-screening integrals            ... done (  0.0 sec) Dimension = 655
   => SHARK Basis and OBASIS are compatible. Storing Pre-screening
Shell pair information
Shell pair cut-off parameter TPreSel        ...   2.5e-12
Total number of shell pairs                 ...    214840
Shell pairs after pre-screening             ...    105048
Total number of primitive shell pairs       ...    679229
Primitive shell pairs kept                  ...    203967
          la=0 lb=0:  25003 shell pairs
          la=1 lb=0:  30718 shell pairs
          la=1 lb=1:   9306 shell pairs
          la=2 lb=0:  15053 shell pairs
          la=2 lb=1:   9379 shell pairs
          la=2 lb=2:   2279 shell pairs
          la=3 lb=0:   6683 shell pairs
          la=3 lb=1:   4245 shell pairs
          la=3 lb=2:   1936 shell pairs
          la=3 lb=3:    446 shell pairs

Checking whether 4 symmetric matrices of dimension 1701 fit in memory
:Max Core in MB      =   3000.00
 MB in use           =    128.45
 MB left             =   2871.55
 MB needed           =     44.18
 Data fit in memory  = YES
Calculating RI/J V-Matrix + Cholesky decomp.... done (  1.1 sec)
Calculating Nuclear repulsion               ... done (  0.0 sec) ENN=   6447.097857519315 Eh

Diagonalization of the overlap matrix:
Smallest eigenvalue                        ... 3.792e-06
Time for diagonalization                   ...    1.331 sec
Threshold for overlap eigenvalues          ... 1.000e-07
Number of eigenvalues below threshold      ... 0
Time for construction of square roots      ...    2.617 sec
Total time needed                          ...    4.029 sec

-------------------
DFT GRID GENERATION
-------------------

General Integration Accuracy     IntAcc      ... 4.959
Radial Grid Type                 RadialGrid  ... OptM3 with GC (2021)
Angular Grid (max. ang.)         AngularGrid ... 6 (Lebedev-590)
Angular grid pruning method      GridPruning ... 4 (adaptive)
Weight generation scheme         WeightScheme... mBecke (2022)
Basis function cutoff            BFCut       ... 1.0000e-11
Integration weight cutoff        WCut        ... 1.0000e-14
Partially contracted basis set               ... off
Rotationally invariant grid construction     ... off
Angular grids for H and He will be reduced by one unit
Core-polarized basis detected: some atoms will have their core
                               angular grid increased.

Total number of grid points                  ...   938894
Total number of batches                      ...    14707
Average number of points per batch           ...       63
Average number of grid points per atom       ...    12193
Grids setup in  26.7 sec
Initializing property integral containers    ... done (  0.0 sec)

SHARK setup successfully completed in  40.5 seconds

Maximum memory used throughout the entire STARTUP-calculation: 341.5 MB


           ************************************************************
           *        Program running with 8 parallel MPI-processes     *
           *              working on a common directory               *
           ************************************************************
-------------------------------------------------------------------------------
                                 ORCA GUESS
                   Start orbitals & Density for SCF / CASSCF
-------------------------------------------------------------------------------

------------
SCF SETTINGS
------------
Hamiltonian:
 Density Functional     Method          .... DFT(GTOs)
 Exchange Functional    Exchange        .... B88
   X-Alpha parameter    XAlpha          ....  0.666667
   Becke's b parameter  XBeta           ....  0.004200
 Correlation Functional Correlation     .... P86
 LDA part of GGA corr.  LDAOpt          .... PW91-LDA
 Gradients option       PostSCFGGA      .... off
   NL short-range parameter             ....  4.400000
 RI-approximation to the Coulomb term is turned on
   Number of AuxJ basis functions       .... 2749


General Settings:
 Integral files         IntName         .... tddft
 Hartree-Fock type      HFTyp           .... RHF
 Total Charge           Charge          ....    0
 Multiplicity           Mult            ....    1
 Number of Electrons    NEL             ....  348
 Basis Dimension        Dim             .... 1701
 Nuclear Repulsion      ENuc            ....   6447.0978575193 Eh

Convergence Acceleration:
 AO-DIIS                CNVDIIS         .... on
   Start iteration      DIISMaxIt       ....    12
   Startup error        DIISStart       ....  0.200000
   # of expansion vecs  DIISMaxEq       ....     5
   Bias factor          DIISBfac        ....   1.050
   Max. coefficient     DIISMaxC        ....  10.000
 MO-DIIS                CNVKDIIS        .... off
 Trust-Rad. Augm. Hess. CNVTRAH         .... auto
   Auto Start mean grad. ratio tolernc. ....  1.125000
   Auto Start start iteration           ....    50
   Auto Start num. interpolation iter.  ....    10
   Max. Number of Micro iterations      ....    24
   Max. Number of Macro iterations      .... Maxiter - #DIIS iter
   Number of Davidson start vectors     ....     2
   Converg. threshold    (grad. norm)   ....   1.000e-05
   Grad. Scal. Fac. for Micro threshold ....   0.100
   Minimum threshold for Micro iter.    ....   1.000e-02
   NR start threshold (gradient norm)   ....   1.000e-04
   Initial trust radius                 ....   0.400
   Minimum AH scaling param. (alpha)    ....   1.000
   Maximum AH scaling param. (alpha)    .... 1000.000
   Quad. conv. algorithm                .... NR
   White noise on init. David. guess    .... on
   Maximum white noise                  ....   0.010
   Pseudo random numbers                .... off
   Inactive MOs                         .... canonical
   Orbital update algorithm             .... Taylor
   Preconditioner                       .... Diag
   Full preconditioner red. dimension   ....   250
 SOSCF                 CNVSOSCF           .... on
   Start iteration     SOSCFMaxIt         ....   150
   Startup grad/error  SOSCFStart         ....  0.003300
   Hessian update      SOSCFHessUp        .... L-BFGS
   Autom. constraints  SOSCFAutoConstrain .... off
 Level Shifting         CNVShift        .... on
   Level shift para.    LevelShift      ....    0.2500
   Turn off err/grad.   ShiftErr        ....    0.0010
 Zerner damping         CNVZerner       .... off
 Static damping         CNVDamp         .... on
   Fraction old density DampFac         ....    0.7000
   Max. Damping (<1)    DampMax         ....    0.9800
   Min. Damping (>=0)   DampMin         ....    0.0000
   Turn off err/grad.   DampErr         ....    0.1000

SCF Procedure:
 Maximum # iterations   MaxIter         ....   125
 SCF integral mode      SCFMode         .... Direct
   Integral package                     .... SHARK and LIBINT hybrid scheme
 Reset frequency        DirectResetFreq ....    20
 Integral Threshold     Thresh          ....  2.500e-11 Eh
 Primitive CutOff       TCut            ....  2.500e-12 Eh

Convergence Tolerance:
 Convergence Check Mode ConvCheckMode   .... Total+1el-Energy
 Convergence forced     ConvForced      .... 1
 Energy Change          TolE            ....  1.000e-08 Eh
 1-El. energy change                    ....  1.000e-05 Eh
 Orbital Gradient       TolG            ....  1.000e-05
 Orbital Rotation angle TolX            ....  1.000e-05
 DIIS Error             TolErr          ....  5.000e-07

------------------------------
INITIAL GUESS: MODEL POTENTIAL
------------------------------
Loading Hartree-Fock densities                     ... done
Calculating cut-offs                               ... done
Initializing the effective Hamiltonian             ... done
Setting up the integral package (SHARK)            ... done
Starting the Coulomb interaction                   ... done (   6.5 sec)
Making the grid                                    ... done (   1.8 sec)
Mapping shells                                     ... done
Starting the XC term evaluation                    ... done (   5.0 sec)
  promolecular density results
     # of electrons  =    347.985252055
     EX              =   -323.002954340
     EC              =    -13.277385870
     EX+EC           =   -336.280340210
Transforming the Hamiltonian                       ... done (   5.1 sec)
Diagonalizing the Hamiltonian                      ... done (   1.1 sec)
Back transforming the eigenvectors                 ... done (   0.5 sec)
Now organizing SCF variables                       ... done
                      ------------------
                      INITIAL GUESS DONE (  20.9 sec)
                      ------------------
             **** ENERGY FILE WAS UPDATED (tddft.en.tmp) ****
Finished Guess after  31.1 sec
Maximum memory used throughout the entire GUESS-calculation: 209.6 MB


           ************************************************************
           *        Program running with 8 parallel MPI-processes     *
           *              working on a common directory               *
           ************************************************************

-------------------------------------------------------------------------------------------
                                      ORCA LEAN-SCF
                              memory conserving SCF solver
-------------------------------------------------------------------------------------------

--------------------
CPCM SOLVATION MODEL
--------------------
CPCM parameters:
  Epsilon                                         ...       2.3870
  Refrac                                          ...       1.4961
  Rsolv                                           ...       1.3000
  Surface type                                    ... GAUSSIAN VDW
  Discretization scheme                           ... Constant charge density
    Threshold for H atoms                         ...       5.0000 (charges/Ang^2)
    Threshold for non-H atoms                     ...       5.0000 (charges/Ang^2)
  Epsilon function type                           ...         CPCM
Solvent:                                          ... TOLUENE
Radii:
  Scheme                                          ... Element-dependent radii
  Radius for N  used is    3.5149 Bohr (=   1.8600 Ang.)
  Radius for H  used is    2.4944 Bohr (=   1.3200 Ang.)
  Radius for C  used is    3.8550 Bohr (=   2.0400 Ang.)
  Radius for Ni used is    3.6963 Bohr (=   1.9560 Ang.)
Calculating surface                               ...        done! (  0.1s)
Cavity surface points                             ...         6764
Cavity Volume                                     ...    4905.5904
Cavity Surface-area                               ...    2270.8420
Calculating surface distance matrix               ...        done! (  1.9s)
Performing Cholesky decomposition & store         ...        done! ( 14.3s)
Overall time for CPCM initialization              ...                16.3s

----------------------------------------D-I-I-S--------------------------------------------
Iteration    Energy (Eh)           Delta-E    RMSDP     MaxDP     DIISErr   Damp  Time(sec)
-------------------------------------------------------------------------------------------
               ***  Starting incremental Fock matrix formation  ***
    1    -3421.1275263982588513     0.00e+00  2.32e-03  6.17e-02  1.66e-01  0.700 101.6
Warning: op=0 Small HOMO/LUMO gap (   0.024) - skipping pre-diagonalization
         Will do a full diagonalization
    2    -3421.5144050881262956    -3.87e-01  2.68e-03  4.43e-02  8.46e-02  0.700  85.1
                               ***Turning on AO-DIIS***
    3    -3421.6701070371709648    -1.56e-01  9.77e-04  2.51e-02  3.17e-02  0.700  79.2
    4    -3421.7609525668794959    -9.08e-02  1.56e-03  6.30e-02  1.34e-02  0.000  92.1
    5    -3421.9589392067882727    -1.98e-01  6.78e-04  1.37e-02  7.40e-03  0.000  70.1
    6    -3421.9603872558072908    -1.45e-03  2.91e-04  7.87e-03  6.16e-03  0.000  74.2
    7    -3421.9604459209658671    -5.87e-05  9.94e-05  4.11e-03  1.06e-02  0.000  83.7
                              *** Initializing SOSCF ***
---------------------------------------S-O-S-C-F--------------------------------------
Iteration    Energy (Eh)           Delta-E    RMSDP     MaxDP     MaxGrad    Time(sec)
--------------------------------------------------------------------------------------
    8    -3421.9605540350748925    -1.08e-04  6.57e-05  2.38e-03  1.43e-03    75.5
               *** Restarting incremental Fock matrix formation ***
    9    -3421.9605627981381986    -8.76e-06  4.11e-05  1.58e-03  4.00e-04    89.6
   10    -3421.9605363248701906     2.65e-05  2.12e-05  1.47e-03  1.98e-03    66.1
   11    -3421.9605638140383235    -2.75e-05  2.77e-05  1.22e-03  1.93e-04    63.3
   12    -3421.9605573971966805     6.42e-06  1.41e-05  3.67e-04  4.08e-04    63.7
   13    -3421.9605649174791324    -7.52e-06  1.81e-05  9.41e-04  1.51e-05    75.6
   14    -3421.9605647671887709     1.50e-07  1.09e-05  4.96e-04  2.28e-05    64.1
   15    -3421.9605650121447979    -2.45e-07  2.73e-05  1.32e-03  3.34e-06    67.8
   16    -3421.9605651148012839    -1.03e-07  9.02e-06  2.21e-04  4.91e-06    58.5
   17    -3421.9605650417997822     7.30e-08  1.75e-05  9.87e-04  1.43e-06    57.7
                  *** Gradient check signals convergence ***

               *****************************************************
               *                     SUCCESS                       *
               *           SCF CONVERGED AFTER  17 CYCLES          *
               *****************************************************

             **** ENERGY FILE WAS UPDATED (tddft.en.tmp) ****

----------------
TOTAL SCF ENERGY
----------------

Total Energy       :      -3421.96056503335058 Eh          -93116.28091 eV

Components:
Nuclear Repulsion  :       6447.09785751931486 Eh          175434.45162 eV
Electronic Energy  :      -9869.04775701646940 Eh         -268550.44231 eV
One Electron Energy:     -17531.49540403150240 Eh         -477056.24301 eV
Two Electron Energy:       7662.44764701503209 Eh          208505.80071 eV
CPCM Dielectric    :         -0.01066553619466 Eh              -0.29022 eV

Virial components:
Potential Energy   :      -6833.16242464006427 Eh         -185939.80257 eV
Kinetic Energy     :       3411.20185960671370 Eh           92823.52166 eV
Virial Ratio       :          2.00315393397091

DFT components:
N(Alpha)           :      173.999992142529 electrons
N(Beta)            :      173.999992142529 electrons
N(Total)           :      347.999984285058 electrons
E(X)               :     -327.729529099006 Eh       
E(C)               :      -13.254419753919 Eh       
E(XC)              :     -340.983948852924 Eh       

CPCM Solvation Model Properties:
Surface-charge          :         -0.05005492239431
Corrected charge        :         -0.00000000000000
Outlying charge corr.   :          0.00005726689092 Eh               0.00156 eV
Free-energy (cav+disp)  :  This term is not implemented in the current solvation scheme

---------------
SCF CONVERGENCE
---------------

  Last Energy change         ...   -7.3002e-08  Tolerance :   1.0000e-08
  Last MAX-Density change    ...    9.8729e-04  Tolerance :   1.0000e-07
  Last RMS-Density change    ...    1.7467e-05  Tolerance :   5.0000e-09
  Last DIIS Error            ...    1.4322e-03  Tolerance :   5.0000e-07
  Last Orbital Gradient      ...    1.4328e-06  Tolerance :   1.0000e-05
  Last Orbital Rotation      ...    8.5494e-06  Tolerance :   1.0000e-05


----------------
ORBITAL ENERGIES
----------------

  NO   OCC          E(Eh)            E(eV) 
   0   2.0000    -298.493561     -8122.4227 
   1   2.0000     -35.273863      -959.8506 
   2   2.0000     -30.790253      -837.8454 
   3   2.0000     -30.790250      -837.8453 
   4   2.0000     -30.764634      -837.1482 
   5   2.0000     -14.024703      -381.6316 
   6   2.0000     -14.024694      -381.6313 
   7   2.0000     -14.024683      -381.6310 
   8   2.0000     -14.024676      -381.6308 
   9   2.0000      -9.935318      -270.3538 
  10   2.0000      -9.935307      -270.3534 
  11   2.0000      -9.935302      -270.3533 
  12   2.0000      -9.935283      -270.3528 
  13   2.0000      -9.935006      -270.3453 
  14   2.0000      -9.934999      -270.3451 
  15   2.0000      -9.934994      -270.3449 
  16   2.0000      -9.934991      -270.3449 
  17   2.0000      -9.919454      -269.9221 
  18   2.0000      -9.919450      -269.9219 
  19   2.0000      -9.919422      -269.9212 
  20   2.0000      -9.919411      -269.9209 
  21   2.0000      -9.917031      -269.8561 
  22   2.0000      -9.917020      -269.8558 
  23   2.0000      -9.917016      -269.8557 
  24   2.0000      -9.916982      -269.8548 
  25   2.0000      -9.903368      -269.4843 
  26   2.0000      -9.903367      -269.4843 
  27   2.0000      -9.903342      -269.4836 
  28   2.0000      -9.903324      -269.4831 
  29   2.0000      -9.903211      -269.4801 
  30   2.0000      -9.903196      -269.4797 
  31   2.0000      -9.903192      -269.4795 
  32   2.0000      -9.903182      -269.4793 
  33   2.0000      -9.902891      -269.4714 
  34   2.0000      -9.902886      -269.4712 
  35   2.0000      -9.902868      -269.4707 
  36   2.0000      -9.902858      -269.4705 
  37   2.0000      -9.902723      -269.4668 
  38   2.0000      -9.902717      -269.4666 
  39   2.0000      -9.902699      -269.4661 
  40   2.0000      -9.902695      -269.4660 
  41   2.0000      -9.902241      -269.4537 
  42   2.0000      -9.902234      -269.4535 
  43   2.0000      -9.902221      -269.4531 
  44   2.0000      -9.902207      -269.4528 
  45   2.0000      -9.896844      -269.3068 
  46   2.0000      -9.896833      -269.3065 
  47   2.0000      -9.896826      -269.3063 
  48   2.0000      -9.896816      -269.3060 
  49   2.0000      -9.896283      -269.2915 
  50   2.0000      -9.896272      -269.2913 
  51   2.0000      -9.896267      -269.2911 
  52   2.0000      -9.896255      -269.2908 
  53   2.0000      -3.827536      -104.1525 
  54   2.0000      -2.474696       -67.3399 
  55   2.0000      -2.474691       -67.3398 
  56   2.0000      -2.423439       -65.9451 
  57   2.0000      -0.898031       -24.4367 
  58   2.0000      -0.888054       -24.1652 
  59   2.0000      -0.888047       -24.1650 
  60   2.0000      -0.877560       -23.8796 
  61   2.0000      -0.798607       -21.7312 
  62   2.0000      -0.794540       -21.6205 
  63   2.0000      -0.794539       -21.6205 
  64   2.0000      -0.792883       -21.5755 
  65   2.0000      -0.759578       -20.6692 
  66   2.0000      -0.742222       -20.1969 
  67   2.0000      -0.742214       -20.1967 
  68   2.0000      -0.725445       -19.7404 
  69   2.0000      -0.707364       -19.2484 
  70   2.0000      -0.707354       -19.2481 
  71   2.0000      -0.706853       -19.2344 
  72   2.0000      -0.701278       -19.0827 
  73   2.0000      -0.683621       -18.6023 
  74   2.0000      -0.683452       -18.5977 
  75   2.0000      -0.683448       -18.5976 
  76   2.0000      -0.683382       -18.5958 
  77   2.0000      -0.680004       -18.5038 
  78   2.0000      -0.673006       -18.3134 
  79   2.0000      -0.673004       -18.3134 
  80   2.0000      -0.657118       -17.8811 
  81   2.0000      -0.651006       -17.7148 
  82   2.0000      -0.603066       -16.4103 
  83   2.0000      -0.603057       -16.4100 
  84   2.0000      -0.567519       -15.4430 
  85   2.0000      -0.554497       -15.0886 
  86   2.0000      -0.554127       -15.0786 
  87   2.0000      -0.554125       -15.0785 
  88   2.0000      -0.553078       -15.0500 
  89   2.0000      -0.550182       -14.9712 
  90   2.0000      -0.550169       -14.9709 
  91   2.0000      -0.543239       -14.7823 
  92   2.0000      -0.542227       -14.7548 
  93   2.0000      -0.532336       -14.4856 
  94   2.0000      -0.515091       -14.0163 
  95   2.0000      -0.515084       -14.0162 
  96   2.0000      -0.505426       -13.7533 
  97   2.0000      -0.499256       -13.5855 
  98   2.0000      -0.498181       -13.5562 
  99   2.0000      -0.482093       -13.1184 
 100   2.0000      -0.482089       -13.1183 
 101   2.0000      -0.476332       -12.9617 
 102   2.0000      -0.471584       -12.8325 
 103   2.0000      -0.469780       -12.7834 
 104   2.0000      -0.469775       -12.7832 
 105   2.0000      -0.456425       -12.4199 
 106   2.0000      -0.445344       -12.1184 
 107   2.0000      -0.445338       -12.1183 
 108   2.0000      -0.419131       -11.4051 
 109   2.0000      -0.417851       -11.3703 
 110   2.0000      -0.416358       -11.3297 
 111   2.0000      -0.416354       -11.3296 
 112   2.0000      -0.415564       -11.3081 
 113   2.0000      -0.407449       -11.0872 
 114   2.0000      -0.407446       -11.0872 
 115   2.0000      -0.404997       -11.0205 
 116   2.0000      -0.403806       -10.9881 
 117   2.0000      -0.390755       -10.6330 
 118   2.0000      -0.385768       -10.4973 
 119   2.0000      -0.383817       -10.4442 
 120   2.0000      -0.383809       -10.4440 
 121   2.0000      -0.381244       -10.3742 
 122   2.0000      -0.380374       -10.3505 
 123   2.0000      -0.380370       -10.3504 
 124   2.0000      -0.379158       -10.3174 
 125   2.0000      -0.378524       -10.3002 
 126   2.0000      -0.376617       -10.2483 
 127   2.0000      -0.376611       -10.2481 
 128   2.0000      -0.369618       -10.0578 
 129   2.0000      -0.364530        -9.9194 
 130   2.0000      -0.364528        -9.9193 
 131   2.0000      -0.361906        -9.8480 
 132   2.0000      -0.357481        -9.7276 
 133   2.0000      -0.356904        -9.7118 
 134   2.0000      -0.355514        -9.6740 
 135   2.0000      -0.346969        -9.4415 
 136   2.0000      -0.340692        -9.2707 
 137   2.0000      -0.340686        -9.2705 
 138   2.0000      -0.337511        -9.1841 
 139   2.0000      -0.330499        -8.9933 
 140   2.0000      -0.330494        -8.9932 
 141   2.0000      -0.318587        -8.6692 
 142   2.0000      -0.318492        -8.6666 
 143   2.0000      -0.314084        -8.5466 
 144   2.0000      -0.312128        -8.4934 
 145   2.0000      -0.310995        -8.4626 
 146   2.0000      -0.310981        -8.4622 
 147   2.0000      -0.308529        -8.3955 
 148   2.0000      -0.308519        -8.3952 
 149   2.0000      -0.307763        -8.3746 
 150   2.0000      -0.305036        -8.3005 
 151   2.0000      -0.292608        -7.9623 
 152   2.0000      -0.292601        -7.9621 
 153   2.0000      -0.290526        -7.9056 
 154   2.0000      -0.261103        -7.1050 
 155   2.0000      -0.261096        -7.1048 
 156   2.0000      -0.246410        -6.7052 
 157   2.0000      -0.246403        -6.7050 
 158   2.0000      -0.245409        -6.6779 
 159   2.0000      -0.240152        -6.5349 
 160   2.0000      -0.239921        -6.5286 
 161   2.0000      -0.238823        -6.4987 
 162   2.0000      -0.238079        -6.4785 
 163   2.0000      -0.238078        -6.4784 
 164   2.0000      -0.234569        -6.3830 
 165   2.0000      -0.234555        -6.3826 
 166   2.0000      -0.233502        -6.3539 
 167   2.0000      -0.227405        -6.1880 
 168   2.0000      -0.225388        -6.1331 
 169   2.0000      -0.191850        -5.2205 
 170   2.0000      -0.186628        -5.0784 
 171   2.0000      -0.186627        -5.0784 
 172   2.0000      -0.186421        -5.0728 
 173   2.0000      -0.184758        -5.0275 
 174   0.0000      -0.118197        -3.2163 
 175   0.0000      -0.110866        -3.0168 
 176   0.0000      -0.110862        -3.0167 
 177   0.0000      -0.063551        -1.7293 
 178   0.0000      -0.051376        -1.3980 
 179   0.0000      -0.050297        -1.3687 
 180   0.0000      -0.050287        -1.3684 
 181   0.0000      -0.049116        -1.3365 
 182   0.0000      -0.048491        -1.3195 
 183   0.0000      -0.048271        -1.3135 
 184   0.0000      -0.047393        -1.2896 
*Only the first 10 virtual orbitals were printed.

                    ********************************
                    * MULLIKEN POPULATION ANALYSIS *
                    ********************************

-----------------------
MULLIKEN ATOMIC CHARGES
-----------------------
   0 N :   -0.077088
   1 H :    0.160963
   2 C :   -0.241783
   3 C :   -0.240225
   4 N :   -0.076765
   5 C :   -0.205813
   6 H :    0.161776
   7 C :    0.197165
   8 N :   -0.076839
   9 C :   -0.205120
  10 C :    0.035982
  11 C :    0.141648
  12 N :   -0.076335
  13 C :   -0.205662
  14 C :    0.197443
  15 C :    0.142944
  16 C :    0.142177
  17 C :    0.199397
  18 C :   -0.205240
  19 C :    0.036667
  20 C :    0.037594
  21 C :   -0.239999
  22 C :    0.140804
  23 C :   -0.241439
  24 C :    0.037486
  25 C :    0.198743
  26 H :    0.162098
  27 H :    0.161031
  28 H :    0.161675
  29 H :    0.161058
  30 H :    0.161968
  31 H :    0.161122
  32 Ni:   -0.314206
  33 C :   -0.011996
  34 C :   -0.184818
  35 C :   -0.134245
  36 C :   -0.107537
  37 C :   -0.144830
  38 C :   -0.161673
  39 H :    0.131526
  40 H :    0.127674
  41 H :    0.129429
  42 H :    0.127489
  43 H :    0.131083
  44 C :   -0.010471
  45 C :   -0.162459
  46 C :   -0.144594
  47 C :   -0.107712
  48 C :   -0.133637
  49 C :   -0.186510
  50 H :    0.131172
  51 H :    0.127513
  52 H :    0.129421
  53 H :    0.127683
  54 H :    0.131698
  55 C :   -0.008232
  56 C :   -0.189254
  57 C :   -0.132794
  58 C :   -0.108425
  59 C :   -0.143220
  60 C :   -0.165079
  61 H :    0.132213
  62 H :    0.127690
  63 H :    0.129396
  64 H :    0.127563
  65 H :    0.131258
  66 C :   -0.009183
  67 C :   -0.164407
  68 C :   -0.143533
  69 C :   -0.108370
  70 C :   -0.133057
  71 C :   -0.187922
  72 H :    0.131257
  73 H :    0.127554
  74 H :    0.129433
  75 H :    0.127705
  76 H :    0.131972
Sum of atomic charges:   -0.0000000

--------------------------------
MULLIKEN REDUCED ORBITAL CHARGES
--------------------------------
  0 N s       :     3.612736  s :     3.612736
      pz      :     1.358374  p :     3.390212
      px      :     1.024084
      py      :     1.007755
      dz2     :     0.004999  d :     0.070332
      dxz     :     0.010092
      dyz     :     0.014577
      dx2y2   :     0.020567
      dxy     :     0.020097
      f0      :     0.000642  f :     0.003808
      f+1     :     0.000418
      f-1     :     0.000402
      f+2     :     0.000174
      f-2     :     0.000602
      f+3     :     0.000572
      f-3     :     0.000997

  1 H s       :     0.816715  s :     0.816715
      pz      :     0.005229  p :     0.022322
      px      :     0.008477
      py      :     0.008615

  2 C s       :     3.303589  s :     3.303589
      pz      :     0.994173  p :     2.853429
      px      :     0.917863
      py      :     0.941393
      dz2     :     0.005658  d :     0.077341
      dxz     :     0.010239
      dyz     :     0.018677
      dx2y2   :     0.014728
      dxy     :     0.028038
      f0      :     0.001309  f :     0.007423
      f+1     :     0.000646
      f-1     :     0.000605
      f+2     :     0.000923
      f-2     :     0.000503
      f+3     :     0.002311
      f-3     :     0.001127

  3 C s       :     3.302810  s :     3.302810
      pz      :     0.993957  p :     2.852664
      px      :     0.940588
      py      :     0.918119
      dz2     :     0.007006  d :     0.077329
      dxz     :     0.017320
      dyz     :     0.010303
      dx2y2   :     0.014969
      dxy     :     0.027731
      f0      :     0.001165  f :     0.007423
      f+1     :     0.000809
      f-1     :     0.000657
      f+2     :     0.000803
      f-2     :     0.000573
      f+3     :     0.001201
      f-3     :     0.002216

  4 N s       :     3.612688  s :     3.612688
      pz      :     1.349748  p :     3.389926
      px      :     1.014842
      py      :     1.025337
      dz2     :     0.005618  d :     0.070343
      dxz     :     0.014144
      dyz     :     0.010391
      dx2y2   :     0.020338
      dxy     :     0.019852
      f0      :     0.000604  f :     0.003808
      f+1     :     0.000439
      f-1     :     0.000414
      f+2     :     0.000206
      f-2     :     0.000603
      f+3     :     0.000957
      f-3     :     0.000585

  5 C s       :     3.275570  s :     3.275570
      pz      :     0.992387  p :     2.845236
      px      :     0.950714
      py      :     0.902135
      dz2     :     0.006418  d :     0.077580
      dxz     :     0.015286
      dyz     :     0.012973
      dx2y2   :     0.015815
      dxy     :     0.027089
      f0      :     0.001186  f :     0.007427
      f+1     :     0.000882
      f-1     :     0.000545
      f+2     :     0.001130
      f-2     :     0.000294
      f+3     :     0.001326
      f-3     :     0.002063

  6 H s       :     0.815782  s :     0.815782
      pz      :     0.005077  p :     0.022442
      px      :     0.006804
      py      :     0.010561

  7 C s       :     3.175470  s :     3.175470
      pz      :     0.937594  p :     2.454057
      px      :     0.807444
      py      :     0.709019
      dz2     :     0.011709  d :     0.159024
      dxz     :     0.031764
      dyz     :     0.030393
      dx2y2   :     0.045346
      dxy     :     0.039813
      f0      :     0.001643  f :     0.014284
      f+1     :     0.001046
      f-1     :     0.001407
      f+2     :     0.001085
      f-2     :     0.002215
      f+3     :     0.003696
      f-3     :     0.003193

  8 N s       :     3.612672  s :     3.612672
      pz      :     1.343340  p :     3.390018
      px      :     1.018895
      py      :     1.027782
      dz2     :     0.006275  d :     0.070341
      dxz     :     0.014036
      dyz     :     0.010371
      dx2y2   :     0.020068
      dxy     :     0.019592
      f0      :     0.000563  f :     0.003808
      f+1     :     0.000455
      f-1     :     0.000441
      f+2     :     0.000253
      f-2     :     0.000593
      f+3     :     0.000950
      f-3     :     0.000553

  9 C s       :     3.274569  s :     3.274569
      pz      :     0.984942  p :     2.845560
      px      :     0.952125
      py      :     0.908494
      dz2     :     0.009091  d :     0.077564
      dxz     :     0.014131
      dyz     :     0.011782
      dx2y2   :     0.015031
      dxy     :     0.027528
      f0      :     0.000951  f :     0.007427
      f+1     :     0.000999
      f-1     :     0.000739
      f+2     :     0.001017
      f-2     :     0.000390
      f+3     :     0.001288
      f-3     :     0.002042

 10 C s       :     3.335795  s :     3.335795
      pz      :     0.924245  p :     2.494578
      px      :     0.766690
      py      :     0.803643
      dz2     :     0.007638  d :     0.124217
      dxz     :     0.024765
      dyz     :     0.023988
      dx2y2   :     0.028785
      dxy     :     0.039040
      f0      :     0.001283  f :     0.009428
      f+1     :     0.000725
      f-1     :     0.000849
      f+2     :     0.000969
      f-2     :     0.001178
      f+3     :     0.002650
      f-3     :     0.001773

 11 C s       :     3.214204  s :     3.214204
      pz      :     0.955889  p :     2.471227
      px      :     0.829049
      py      :     0.686289
      dz2     :     0.012016  d :     0.158615
      dxz     :     0.030536
      dyz     :     0.030454
      dx2y2   :     0.041853
      dxy     :     0.043755
      f0      :     0.001571  f :     0.014306
      f+1     :     0.000954
      f-1     :     0.001614
      f+2     :     0.001450
      f-2     :     0.001883
      f+3     :     0.002329
      f-3     :     0.004505

 12 N s       :     3.612685  s :     3.612685
      pz      :     1.334590  p :     3.389484
      px      :     1.023139
      py      :     1.031756
      dz2     :     0.007022  d :     0.070358
      dxz     :     0.010963
      dyz     :     0.013228
      dx2y2   :     0.019860
      dxy     :     0.019285
      f0      :     0.000517  f :     0.003809
      f+1     :     0.000435
      f-1     :     0.000503
      f+2     :     0.000292
      f-2     :     0.000592
      f+3     :     0.000568
      f-3     :     0.000901

 13 C s       :     3.275309  s :     3.275309
      pz      :     0.986585  p :     2.845354
      px      :     0.903797
      py      :     0.954972
      dz2     :     0.009016  d :     0.077570
      dxz     :     0.013404
      dyz     :     0.013077
      dx2y2   :     0.015485
      dxy     :     0.026588
      f0      :     0.000894  f :     0.007428
      f+1     :     0.000535
      f-1     :     0.001276
      f+2     :     0.000960
      f-2     :     0.000516
      f+3     :     0.001903
      f-3     :     0.001342

 14 C s       :     3.175295  s :     3.175295
      pz      :     0.946408  p :     2.453938
      px      :     0.699664
      py      :     0.807866
      dz2     :     0.006918  d :     0.159040
      dxz     :     0.034832
      dyz     :     0.031378
      dx2y2   :     0.045678
      dxy     :     0.040234
      f0      :     0.001943  f :     0.014284
      f+1     :     0.001054
      f-1     :     0.000954
      f+2     :     0.000786
      f-2     :     0.002242
      f+3     :     0.003419
      f-3     :     0.003887

 15 C s       :     3.213286  s :     3.213286
      pz      :     0.956576  p :     2.470842
      px      :     0.685029
      py      :     0.829237
      dz2     :     0.007634  d :     0.158625
      dxz     :     0.035354
      dyz     :     0.029941
      dx2y2   :     0.041180
      dxy     :     0.044516
      f0      :     0.001895  f :     0.014303
      f+1     :     0.001283
      f-1     :     0.000810
      f+2     :     0.001311
      f-2     :     0.001817
      f+3     :     0.004767
      f-3     :     0.002420

 16 C s       :     3.213843  s :     3.213843
      pz      :     0.953596  p :     2.471075
      px      :     0.829622
      py      :     0.687858
      dz2     :     0.005763  d :     0.158601
      dxz     :     0.029299
      dyz     :     0.037596
      dx2y2   :     0.041244
      dxy     :     0.044699
      f0      :     0.002017  f :     0.014304
      f+1     :     0.000855
      f-1     :     0.001055
      f+2     :     0.001116
      f-2     :     0.001865
      f+3     :     0.002522
      f-3     :     0.004874

 17 C s       :     3.174174  s :     3.174174
      pz      :     0.949451  p :     2.453098
      px      :     0.807697
      py      :     0.695950
      dz2     :     0.006182  d :     0.159048
      dxz     :     0.030647
      dyz     :     0.036526
      dx2y2   :     0.044991
      dxy     :     0.040702
      f0      :     0.002000  f :     0.014284
      f+1     :     0.000912
      f-1     :     0.001022
      f+2     :     0.000829
      f-2     :     0.002186
      f+3     :     0.003797
      f-3     :     0.003537

 18 C s       :     3.274877  s :     3.274877
      pz      :     0.991990  p :     2.845362
      px      :     0.904957
      py      :     0.948415
      dz2     :     0.006321  d :     0.077574
      dxz     :     0.011952
      dyz     :     0.015943
      dx2y2   :     0.015441
      dxy     :     0.027918
      f0      :     0.001284  f :     0.007427
      f+1     :     0.000650
      f-1     :     0.000665
      f+2     :     0.001183
      f-2     :     0.000173
      f+3     :     0.002181
      f-3     :     0.001291

 19 C s       :     3.335830  s :     3.335830
      pz      :     0.952264  p :     2.493870
      px      :     0.785232
      py      :     0.756373
      dz2     :     0.005447  d :     0.124207
      dxz     :     0.025170
      dyz     :     0.023998
      dx2y2   :     0.028998
      dxy     :     0.040594
[...]
  0-1A  -> 26-1A    3.276194   26424.3   378.4   0.000750466   0.00935  -0.00974  -0.09577   0.00911
  0-1A  -> 27-1A    3.284535   26491.6   377.5   0.000012648   0.00016  -0.01159   0.00477  -0.00023
  0-1A  -> 28-1A    3.298461   26603.9   375.9   0.000000770   0.00001  -0.00221  -0.00214   0.00023
  0-1A  -> 29-1A    3.312523   26717.3   374.3   0.000000047   0.00000  -0.00051  -0.00056   0.00006
  0-1A  -> 30-1A    3.325521   26822.1   372.8   0.000046549   0.00057   0.00038  -0.00064  -0.02389

----------------------------------------------------------------------------------------------------
                     ABSORPTION SPECTRUM VIA TRANSITION VELOCITY DIPOLE MOMENTS    
----------------------------------------------------------------------------------------------------
     Transition      Energy     Energy  Wavelength fosc(P2)      P2        PX        PY        PZ   
                      (eV)      (cm-1)    (nm)                 (au**2)    (au)      (au)      (au)  
----------------------------------------------------------------------------------------------------
  0-1A  ->  1-1A    1.886786   15218.0   657.1   0.000000303   0.00000  -0.00010   0.00015  -0.00001
  0-1A  ->  2-1A    2.010607   16216.6   616.7   0.000000195   0.00000  -0.00012  -0.00009   0.00001
  0-1A  ->  3-1A    2.012473   16231.7   616.1   0.000000160   0.00000   0.00012  -0.00006   0.00000
  0-1A  ->  4-1A    2.012589   16232.6   616.0   0.000000157   0.00000  -0.00005  -0.00012   0.00000
  0-1A  ->  5-1A    2.068282   16681.8   599.5   0.000000345   0.00000   0.00004   0.00004  -0.00019
  0-1A  ->  6-1A    2.085308   16819.1   594.6   0.000000023   0.00000  -0.00005  -0.00002   0.00000
  0-1A  ->  7-1A    2.148409   17328.1   577.1   0.000001609   0.00000   0.00009  -0.00013  -0.00041
  0-1A  ->  8-1A    2.232786   18008.6   555.3   0.001969648   0.00024   0.00372   0.01505  -0.00148
  0-1A  ->  9-1A    2.232956   18010.0   555.2   0.001980050   0.00024   0.01516  -0.00374   0.00006
  0-1A  -> 10-1A    2.266555   18281.0   547.0   0.006510279   0.00081   0.01426   0.02456  -0.00257
  0-1A  -> 11-1A    2.266569   18281.1   547.0   0.006447797   0.00081   0.02454  -0.01424   0.00082
  0-1A  -> 12-1A    2.454152   19794.1   505.2   0.000000033   0.00000   0.00001  -0.00006  -0.00002
  0-1A  -> 13-1A    2.467359   19900.6   502.5   0.000000677   0.00000  -0.00003  -0.00009  -0.00029
  0-1A  -> 14-1A    2.836340   22876.6   437.1   0.981258970   0.15342   0.39118  -0.01941  -0.00475
  0-1A  -> 15-1A    2.836417   22877.2   437.1   0.980763383   0.15335  -0.01890  -0.38933   0.03753
  0-1A  -> 16-1A    2.972377   23973.8   417.1   0.000003303   0.00000   0.00025  -0.00069   0.00006
  0-1A  -> 17-1A    3.014710   24315.3   411.3   0.000021091   0.00000  -0.00017  -0.00045  -0.00181
  0-1A  -> 18-1A    3.139250   25319.8   394.9   0.000005391   0.00000  -0.00011   0.00093  -0.00022
  0-1A  -> 19-1A    3.160160   25488.4   392.3   0.029421287   0.00513   0.03415   0.06258  -0.00654
  0-1A  -> 20-1A    3.160323   25489.7   392.3   0.030015336   0.00523   0.06356  -0.03442   0.00210
  0-1A  -> 21-1A    3.176674   25621.6   390.3   0.046771928   0.00819   0.06192   0.06559  -0.00730
  0-1A  -> 22-1A    3.177030   25624.5   390.3   0.046135173   0.00808   0.06528  -0.06161   0.00474
  0-1A  -> 23-1A    3.269270   26368.4   379.2   0.000414585   0.00007   0.00682  -0.00530   0.00035
  0-1A  -> 24-1A    3.269377   26369.3   379.2   0.000421375   0.00008   0.00527   0.00690  -0.00078
  0-1A  -> 25-1A    3.276097   26423.5   378.5   0.000629446   0.00011  -0.01065   0.00038   0.00014
  0-1A  -> 26-1A    3.276194   26424.3   378.4   0.000622414   0.00011   0.00057   0.01054  -0.00095
  0-1A  -> 27-1A    3.284535   26491.6   377.5   0.000012054   0.00000   0.00137  -0.00056   0.00003
  0-1A  -> 28-1A    3.298461   26603.9   375.9   0.000000746   0.00000   0.00026   0.00025  -0.00003
  0-1A  -> 29-1A    3.312523   26717.3   374.3   0.000000047   0.00000   0.00006   0.00007  -0.00001
  0-1A  -> 30-1A    3.325521   26822.1   372.8   0.000010433   0.00000  -0.00007  -0.00007   0.00138

------------------------------------------------------------------------------------------
                     CD SPECTRUM VIA TRANSITION ELECTRIC DIPOLE MOMENTS    
------------------------------------------------------------------------------------------
     Transition      Energy     Energy  Wavelength    R        MX        MY        MZ   
                      (eV)      (cm-1)    (nm)   (1e40*cgs)   (au)      (au)      (au)  
------------------------------------------------------------------------------------------
  0-1A  ->  1-1A    1.886786   15218.0   657.1   -0.00041   0.00090   0.00368   0.03848
  0-1A  ->  2-1A    2.010607   16216.6   616.7   -0.00108   0.00025  -0.00625  -0.06544
  0-1A  ->  3-1A    2.012473   16231.7   616.1    0.01186   0.05412  -0.05263   0.00592
  0-1A  ->  4-1A    2.012589   16232.6   616.0   -0.00959   0.05293   0.05364  -0.00778
  0-1A  ->  5-1A    2.068282   16681.8   599.5    0.00075   0.00093   0.00057  -0.00296
  0-1A  ->  6-1A    2.085308   16819.1   594.6   -0.00929   0.01317   0.07509   0.76611
  0-1A  ->  7-1A    2.148409   17328.1   577.1   -0.00120  -0.00064   0.00179  -0.00018
  0-1A  ->  8-1A    2.232786   18008.6   555.3  -19.30826   0.20699  -0.27643   0.02463
  0-1A  ->  9-1A    2.232956   18010.0   555.2   19.33779   0.27726   0.20534  -0.02608
  0-1A  -> 10-1A    2.266555   18281.0   547.0    2.27373  -0.09298   0.07007  -0.00442
  0-1A  -> 11-1A    2.266569   18281.1   547.0   -2.27916  -0.07055  -0.09228   0.01185
  0-1A  -> 12-1A    2.454152   19794.1   505.2    0.00112  -0.00078  -0.00060  -0.00820
  0-1A  -> 13-1A    2.467359   19900.6   502.5   -0.00002   0.00009  -0.00018   0.00007
  0-1A  -> 14-1A    2.836340   22876.6   437.1  -285.85000  -0.16261  -0.03212   0.00605
  0-1A  -> 15-1A    2.836417   22877.2   437.1  285.34900   0.03402  -0.16182   0.01452
  0-1A  -> 16-1A    2.972377   23973.8   417.1   -0.01793   0.01139   0.06921   0.73221
  0-1A  -> 17-1A    3.014710   24315.3   411.3    0.01778  -0.00002  -0.00022  -0.00076
  0-1A  -> 18-1A    3.139250   25319.8   394.9    0.01441  -0.00224   0.00343  -0.00031
  0-1A  -> 19-1A    3.160160   25488.4   392.3   18.30650  -0.10237   0.12633  -0.00978
  0-1A  -> 20-1A    3.160323   25489.7   392.3  -18.64009  -0.12738  -0.10236   0.00828
  0-1A  -> 21-1A    3.176674   25621.6   390.3   -0.44364  -0.06585   0.06016  -0.00350
  0-1A  -> 22-1A    3.177030   25624.5   390.3    0.74836  -0.05853  -0.06433   0.00800
  0-1A  -> 23-1A    3.269270   26368.4   379.2    0.56246   0.03016   0.01144  -0.00674
  0-1A  -> 24-1A    3.269377   26369.3   379.2   -0.57326   0.01219  -0.02992   0.00368
  0-1A  -> 25-1A    3.276097   26423.5   378.5   -1.11796   0.03148   0.08443  -0.00676
  0-1A  -> 26-1A    3.276194   26424.3   378.4    1.02063  -0.08443   0.03124   0.00060
  0-1A  -> 27-1A    3.284535   26491.6   377.5    0.02605   0.00496   0.00374   0.06722
  0-1A  -> 28-1A    3.298461   26603.9   375.9   -0.00061  -0.00047   0.00033   0.00421
  0-1A  -> 29-1A    3.312523   26717.3   374.3   -0.00001  -0.00045  -0.00158  -0.01770
  0-1A  -> 30-1A    3.325521   26822.1   372.8   -0.00418  -0.00006  -0.00006  -0.00037

------------------------------------------------------------------------------------------
                     CD SPECTRUM VIA TRANSITION VELOCITY DIPOLE MOMENTS    
------------------------------------------------------------------------------------------
     Transition      Energy     Energy  Wavelength    R        MX        MY        MZ   
                      (eV)      (cm-1)    (nm)   (1e40*cgs)   (au)      (au)      (au)  
------------------------------------------------------------------------------------------
  0-1A  ->  1-1A    1.886786   15218.0   657.1   -0.00040   0.00090   0.00368   0.03848
  0-1A  ->  2-1A    2.010607   16216.6   616.7   -0.00131   0.00025  -0.00625  -0.06544
  0-1A  ->  3-1A    2.012473   16231.7   616.1    0.06135   0.05412  -0.05263   0.00592
  0-1A  ->  4-1A    2.012589   16232.6   616.0   -0.05891   0.05293   0.05364  -0.00778
  0-1A  ->  5-1A    2.068282   16681.8   599.5    0.00386   0.00093   0.00057  -0.00296
  0-1A  ->  6-1A    2.085308   16819.1   594.6   -0.00330   0.01317   0.07509   0.76611
  0-1A  ->  7-1A    2.148409   17328.1   577.1   -0.00122  -0.00064   0.00179  -0.00018
  0-1A  ->  8-1A    2.232786   18008.6   555.3  -19.68931   0.20699  -0.27643   0.02463
  0-1A  ->  9-1A    2.232956   18010.0   555.2   19.71923   0.27726   0.20534  -0.02608
  0-1A  -> 10-1A    2.266555   18281.0   547.0    2.29933  -0.09298   0.07007  -0.00442
  0-1A  -> 11-1A    2.266569   18281.1   547.0   -2.30460  -0.07055  -0.09228   0.01185
  0-1A  -> 12-1A    2.454152   19794.1   505.2    0.00122  -0.00078  -0.00060  -0.00820
  0-1A  -> 13-1A    2.467359   19900.6   502.5   -0.00005   0.00009  -0.00018   0.00007
  0-1A  -> 14-1A    2.836340   22876.6   437.1  -285.02134  -0.16261  -0.03212   0.00605
  0-1A  -> 15-1A    2.836417   22877.2   437.1  284.51623   0.03402  -0.16182   0.01452
  0-1A  -> 16-1A    2.972377   23973.8   417.1   -0.00658   0.01139   0.06921   0.73221
  0-1A  -> 17-1A    3.014710   24315.3   411.3    0.00625  -0.00002  -0.00022  -0.00076
  0-1A  -> 18-1A    3.139250   25319.8   394.9    0.01437  -0.00224   0.00343  -0.00031
  0-1A  -> 19-1A    3.160160   25488.4   392.3   18.16254  -0.10237   0.12633  -0.00978
  0-1A  -> 20-1A    3.160323   25489.7   392.3  -18.49396  -0.12738  -0.10236   0.00828
  0-1A  -> 21-1A    3.176674   25621.6   390.3   -0.42745  -0.06585   0.06016  -0.00350
  0-1A  -> 22-1A    3.177030   25624.5   390.3    0.72999  -0.05853  -0.06433   0.00800
  0-1A  -> 23-1A    3.269270   26368.4   379.2    0.55916   0.03016   0.01144  -0.00674
  0-1A  -> 24-1A    3.269377   26369.3   379.2   -0.56945   0.01219  -0.02992   0.00368
  0-1A  -> 25-1A    3.276097   26423.5   378.5   -1.19287   0.03148   0.08443  -0.00676
  0-1A  -> 26-1A    3.276194   26424.3   378.4    1.10089  -0.08443   0.03124   0.00060
  0-1A  -> 27-1A    3.284535   26491.6   377.5    0.02540   0.00496   0.00374   0.06722
  0-1A  -> 28-1A    3.298461   26603.9   375.9   -0.00062  -0.00047   0.00033   0.00421
  0-1A  -> 29-1A    3.312523   26717.3   374.3    0.00001  -0.00045  -0.00158  -0.01770
  0-1A  -> 30-1A    3.325521   26822.1   372.8   -0.00194  -0.00006  -0.00006  -0.00037

Total run time:     6644.805 sec

           *** ORCA-CIS/TD-DFT FINISHED WITHOUT ERROR ***
-----------------------
CIS/TD-DFT TOTAL ENERGY
-----------------------

    E(SCF)  =  -3421.960565033 Eh
    DE(CIS) =      0.069338113 Eh (Root  1)
    ----------------------------- ---------
    E(tot)  =  -3421.891226920 Eh


Maximum memory used throughout the entire CIS-calculation: 3000.8 MB
=> NOW LEAVING ORCA_CIS

-------------------------   --------------------
FINAL SINGLE POINT ENERGY     -3421.891226920419
-------------------------   --------------------



           ************************************************************
           *        Program running with 8 parallel MPI-processes     *
           *              working on a common directory               *
           ************************************************************

------------------------------------------------------------------------------
                              ORCA PROPERTY CALCULATIONS
------------------------------------------------------------------------------

GBWName                                 ... tddft.gbw
Number of atoms                         ...     77
Number of basis functions               ...   1701
Max core memory                         ...   3000 MB

Electric properties:
Dipole moment                           ... YES
Quadrupole moment                       ...  NO
Static polarizability (Dipole/Dipole)   ...  NO
Static polarizability (Dipole/Quad.)    ...  NO
Static polarizability (Quad./Quad.)     ...  NO
Static polarizability (Velocity)        ...  NO
Static hyperpolarizability              ...  NO

Atomic electric properties:
Dipole moment                           ...  NO
Quadrupole moment                       ...  NO
Static polarizability                   ...  NO

Choice of electric origin               ... Center of mass
Position of electric origin             ...    -0.159814     5.089039     6.549058

General magnetic properties:
Magnetizability                         ...  NO

EPR properties:
g-Tensor (aka g-matrix)                 ...  NO
Zero-Field splitting spin-orbit         ...  NO
Zero-field splitting spin-spin          ...  NO
Hyperfine couplings                     ...  NO (   0 nuclei)
Quadrupole couplings                    ...  NO (   0 nuclei)
Contact density                         ...  NO (   0 nuclei)

NMR properties:
Chemical shifts                         ...  NO (   0 nuclei)
Spin-rotation constants                 ...  NO (   0 nuclei)
Spin-spin couplings                     ...  NO (   0 nuclei,    0 pairs)

Choice of magnetic origin               ... GIAO
Position of magnetic origin             ...     0.000000     0.000000     0.000000

Properties with geometric perturbations:
SCF Hessian                             ...  NO
IR spectrum                             ...  NO
VCD spectrum                            ...  NO
X-ray spectroscopy properties:
SCF XES/XAS/RIXS spectra                ...  NO

SCF SOC stabilization energy            ...  NO
Diagonal Born-Oppenheimer correction    ...  NO

-------------
DIPOLE MOMENT
-------------

Method             : SCF
Type of density    : Electron Density
Multiplicity       :   1
Irrep              :   0
Energy             : -3421.9605650333505764 Eh
Basis              : AO
                                X                 Y                 Z
Electronic contribution:     -0.005739640       0.003564224       0.042111896
Nuclear contribution   :      0.005414661      -0.002778073      -0.045013959
                        -----------------------------------------
Total Dipole Moment    :     -0.000324979       0.000786151      -0.002902063
                        -----------------------------------------
Magnitude (a.u.)       :      0.003024171
Magnitude (Debye)      :      0.007686832



--------------------
Rotational spectrum 
--------------------
 
Rotational constants in cm-1:             0.001955             0.001954             0.001054 
Rotational constants in MHz :            58.611694            58.584940            31.604966 

Dipole components along the rotational axes: 
x,y,z [a.u.] :    -0.000696     0.000844    -0.002819 
x,y,z [Debye]:    -0.001770     0.002145    -0.007166 

 

Dipole moment calculation done in   3.1 sec 

Maximum memory used throughout the entire PROP-calculation: 235.5 MB

--------------------------------
SUGGESTED CITATIONS FOR THIS RUN
--------------------------------

Below you find a list of papers that are relevant to this ORCA run
We neither can nor want to force you to cite these papers, but we appreciate if you do
You receive ORCA, which is the product of decades of hard work by many enthusiastic individuals, for free
The only thing we kindly ask in return is that you cite our papers,
We deeply appreciate it, if you show your appreciation for ORCA by not just citing the generic ORCA reference.

Please note that relegating all ORCA citations to the supporting information does *not* help us.
SI sections are not indexed - citations you put there will not count into any citation statistics
But we need these citations in order to attract the funding resources that allow us to do what we are doing

Therefore, if you are a happy ORCA user, please consider citing a few of the papers listed below in the main body of your paper

In addition to the list printed below, the program has created the file tddft.bibtex that contains the list in bibtex format
You can import this file easily into all common literature databanks and citation aid programs

It goes without saying that in many instances, there are alternative algorithms to achieve similar
results as the ones you have gotten from ORCA. It is, of course, also the case that in some instances
ORCA just re-implements algorithms worked out by others. We are fully aware of that and we are also
fully appreciative of our colleagues work. Hence this citation list should not be read as indicating
that the listed papers, which are focused on our own work, are the only ones worth citing. It simply
meant to make it easier for users to cite ORCA specific papers. It is not a substitute for doing your
own literature research and citing the relevant literature in a scientifically appropriate manner.

List of essential papers. We consider these as the minimum necessary citations

  1. Neese, F.
     Software update: the ORCA program system, version 6.0
     WIRES Comput. Molec. Sci. 2025 15(1), e70019
     doi.org/10.1002/wcms.70019

List of papers to cite with high priority. The work reported in these papers was absolutely
necessary for this run to complete.
Our perspective: the developers of density functionals and basis sets usually get cited in chemistry papers
Good! But without the algorithms to do something with them, the functionals or basis sets would not do anything.
Hence, in our opinion, the algorithm design and method developments papers are equally worthy of getting cited

  1. Neese, F.; Olbrich, G.
     Efficient use of the resolution of the identity approximation in time-dependent density functional calculations with hybrid density functionals
     Chem. Phys. Lett. 2002 362 , 170-178
     doi.org/10.1016/s0009-2614(02)01053-9
  2. Neese, F.
     An improvement of the resolution of the identity approximation for the formation of the Coulomb matrix
     J. Comp. Chem. 2003 24(14), 1740-1747
     doi.org/10.1002/jcc.10318
  3. Garcia-Rates, M.; Neese, F.
     Effect of the Solute Cavity on the Solvation Energy and its Derivatives within the Framework of the Gaussian Charge Scheme
     J. Comput. Chem. 2020 41 , 922-939
     doi.org/10.1002/jcc.26139
  4. Neese, F.
     The SHARK Integral Generation and Digestion System
     J. Comp. Chem. 2022 44(3), 381
     doi.org/10.1002/jcc.26942

List of suggested additional citations. These are papers that are important in the 'surrounding' of 
of this run, or papers that preceded the highly important papers. If you like your results we are grateful for a citation.

  1. Neese, F.
     The ORCA program system
     WIRES Comput. Molec. Sci. 2012 2(1), 73-78
     doi.org/10.1002/wcms.81
  2. Neese, F.
     Software update: the ORCA program system, version 4.0
     WIRES Comput. Molec. Sci. 2018 8(1), 1-6
     doi.org/10.1002/wcms.1327
  3. Neese, F.; Wennmohs, F.; Becker, U.; Riplinger, C.
     The ORCA quantum chemistry program package
     J. Chem. Phys. 2020 152(22), 224108
     doi.org/10.1063/5.0004608
  4. Neese, F.
     Software update: The ORCA program system—Version 5.0
     WIRES Comput. Molec. Sci. 2022 12(1), e1606
     doi.org/10.1002/wcms.1606

List of optional additional citations

  1. Neese, F.
     Approximate second-order SCF convergence for spin unrestricted wavefunctions
     Chem. Phys. Lett. 2000 325(1-3), 93-98
     doi.org/10.1016/s0009-2614(00)00662-x

Timings for individual modules:

Sum of individual times          ...     8114.176 sec (= 135.236 min)
Startup calculation              ...       41.565 sec (=   0.693 min)   0.5 %
SCF iterations                   ...     1410.776 sec (=  23.513 min)  17.4 %
Property integrals               ...        7.546 sec (=   0.126 min)   0.1 %
Property calculations            ...        7.702 sec (=   0.128 min)   0.1 %
CIS module                       ...     6646.587 sec (= 110.776 min)  81.9 %
                             ****ORCA TERMINATED NORMALLY****
TOTAL RUN TIME: 0 days 2 hours 15 minutes 15 seconds 872 msec
