
                                 *****************
                                 * O   R   C   A *
                                 *****************

                                            #,                                       
                                            ###                                      
                                            ####                                     
                                            #####                                    
                                            ######                                   
                                           ########,                                 
                                     ,,################,,,,,                         
                               ,,#################################,,                 
                          ,,##########################################,,             
                       ,#########################################, ''#####,          
                    ,#############################################,,   '####,        
                  ,##################################################,,,,####,       
                ,###########''''           ''''###############################       
              ,#####''   ,,,,##########,,,,          '''####'''          '####       
            ,##' ,,,,###########################,,,                        '##       
           ' ,,###''''                  '''############,,,                           
         ,,##''                                '''############,,,,        ,,,,,,###''
      ,#''                                            '''#######################'''  
     '                                                          ''''####''''         
             ,#######,   #######,   ,#######,      ##                                
            ,#'     '#,  ##    ##  ,#'     '#,    #''#        ,####,    ,#,          
            ##       ##  ##   ,#'  ##            #'  '#       #'       ,# #          
            ##       ##  #######   ##           ,######,      #####,      #          
            '#,     ,#'  ##    ##  '#,     ,#' ,#      #,     #,   #      #          
             '#######'   ##     ##  '#######'  #'      '#     '####' #    #          



                #########################################################
                #                        -***-                          #
                #          Department of theory and spectroscopy        #
                #                                                       #
                #                      Frank Neese                      #
                #                                                       #
                #     Directorship, Architecture, Infrastructure        #
                #                    SHARK, DRIVERS                     #
                #        Core code/Algorithms in most modules           #
                #                                                       #
                #        Max Planck Institute fuer Kohlenforschung      #
                #                Kaiser Wilhelm Platz 1                 #
                #                 D-45470 Muelheim/Ruhr                 #
                #                      Germany                          #
                #                                                       #
                #                  All rights reserved                  #
                #                        -***-                          #
                #########################################################


                         Program Version 6.1.1  -  RELEASE   -
                                (GIT: $487d211c$)
                          ($2025-11-21 10:33:24 +0100$)


 With contributions from (in alphabetic order):
[Max-Planck-Institut fuer Kohlenforschung]                               
  Daniel Aravena         : Magnetic Suceptibility                        
  Michael Atanasov       : Ab Initio Ligand Field Theory (pilot matlab implementation)
  Alexander A. Auer      : GIAO ZORA, VPT2 properties, NMR spectrum      
  Ute Becker             : All parallelization in ORCA, NUMFREQ, NUMCALC 
  Giovanni Bistoni       : ED, misc. LED, open-shell LED, HFLD           
  Dmytro Bykov           : pre 5.0 version of the SCF Hessian            
  Marcos Casanova-Páez   : Triplet and SCS-CIS(D). UHF-(DLPNO)-IP/EA/STEOM-CCSD. UHF-CVS-IP/STEOM-CCSD   
  Vijay G. Chilkuri      : MRCI spin determinant printing, contributions to CSF-ICE 
  Pauline Colinet        : FMM embedding                                 
  Dipayan Datta          : RHF DLPNO-CCSD density                        
  Achintya Kumar Dutta   : EOM-CC, STEOM-CC                              
  Nicolas Foglia         : Exact transition moments, OPA infrastructure, MCD improvements    
  Dmitry Ganyushin       : Spin-Orbit,Spin-Spin,Magnetic field MRCI      
  Miquel Garcia-Rates    : C-PCM and meta-GGA Hessian, CCSD/C-PCM, Gaussian charge scheme 
  Tiago L. C. Gouveia    : GS-ROHF, GS-ROCIS                             
  Yang Guo               : DLPNO-NEVPT2, F12-NEVPT2, CIM, IAO-localization        
  Andreas Hansen         : Spin unrestricted coupled pair/coupled cluster methods 
  Ingolf Harden          : AUTO-CI MPn and infrastructure                
  Benjamin Helmich-Paris : MC-RPA, TRAH-(SCF,CASSCF), AVAS, COSX integrals, SCF dyn. polar., MC-PDFT, srDFT 
  Lee Huntington         : MR-EOM, pCC                                   
  Robert Izsak           : Overlap fitted RIJCOSX, COSX-SCS-MP3, EOM     
  Riya Kayal             : Wick's Theorem for AUTO-CI, AUTO-CI UHF-CCSDT 
  Emily Kempfer          : AUTO-CI RHF CISDT and CCSDT, approximate NEVPT4
  Christian Kollmar      : KDIIS, OOCD, Brueckner-CCSD(T), CCSD density, CASPT2, CASPT2-K, improved NEVPT2 
  Axel Koslowski         : Symmetry handling                             
  Simone Kossmann        : meta-GGA functionals, TD-DFT gradient, OOMP2, (MP2 Hessian; deprecated post 5.0) 
  Lucas Lang             : DCDCAS, Hyperfine gauge corrections, ICE-SOC+SSC
  Marvin Lechner         : AUTO-CI (C++ implementation), FIC-MRCC        
  Spencer Leger          : CASSCF response                               
  Dagmar Lenk            : GEPOL surface, SMD, ORCA-2-JSON               
  Dimitrios Liakos       : Extrapolation schemes; Compound Job, Property file
  Dimitrios Manganas     : Further ROCIS development; embedding schemes. LFT, Crystal Embedding 
  Dimitrios Pantazis     : SARC Basis sets                               
  Anastasios Papadopoulos: AUTO-CI, single reference methods and gradients 
  Taras Petrenko         : pre 6.0 DFT Hessian and TD-DFT gradient,  ECA, NRVS 
  Petra Pikulova         : Analytic Raman intensities                    
  Peter Pinski           : DLPNO-MP2, DLPNO-MP2 Gradient                 
  Shashank Vittal Rao    : ES-AILFT, MagRelax                            
  Christoph Reimann      : Effective Core Potentials                     
  Marius Retegan         : Local ZFS, SOC                                
  Christoph Riplinger    : Optimizer, TS searches, QM/MM, DLPNO-CCSD(T), (RO)-DLPNO pert. Triples 
  Michael Roemelt        : Original ROCIS implementation, recursive CI coupling coefficients
  Masaaki Saitow         : Open-shell DLPNO-CCSD energy and density      
  Barbara Sandhoefer     : DKH picture change effects                    
  Yorick L. A. Schmerwitz: GMF and freeze-and-release deltaSCF, NEB S-IDPP initial path                    
  Kantharuban Sivalingam : CASSCF convergence/infrastructure, NEVPT2, NEVPT3, NEVPT4(SD), FIC-MRCI and CEPA variants
  Bernardo de Souza      : ESD, SOC TD-DFT                               
  Georgi L. Stoychev     : AutoAux, RI-MP2 NMR, DLPNO-MP2 response, X2C  
  Van Anh Tran           : RI-MP2 g-tensors                              
  Willem Van den Heuvel  : Paramagnetic NMR                              
  Zikuan Wang            : NOTCH, Electric field optimization            
  Frank Wennmohs         : Technical directorship and infrastructure     
  Hang Xu                : AUTO-CI-Response properties                   
                                                                         
[FACCTs GmbH]                                                            
  Markus Bursch, Nicolas Foglia, Miquel Garcia-Rates, Ingolf Harden, Hagen Neugebauer, Anastasios Papadopoulos, 
  Christoph Riplinger, Bernardo de Souza, Georgi L. Stoychev                                                    
                                                                 
  APM, various basis sets, CI-OPT, improved COSX, DLPNO-Multilevel,           
  DOCKER, DRACO, updates on ESD, Fragmentator, GOAT, IRC, LR-CPCM, L-BFGS, MBIS, meta-GGA TD-DFT gradient, ML-optimized integration grids, 
  MM, NACMEs, nearIR, NEB, NEB-TS, NL-DFT gradient (VV10), 2- and 3-layer-ONIOM, interface openCOSMO-RS, QMMM,   
  Crystal-QMMM, RESP, rigid body optimization, SF, symmetry and pop. for TD-DFT, various functionals, SOLVATOR                                   
                                                                         
[Other institutions]                                                     
  V. Asgeirsson          : NEB                                           
  Christoph Bannwarth    : sTDA-DFT, sTD-DFT, PBEh-3c, B97-3c, D3        
  Giovanni Bistoni       : ETS/NOCV, ADLD/ADEX, COVALED                  
  Martin Brehm           : Molecular dynamics                            
  Ronald Cardenas        : ETS/NOCV                                      
  Martina Colucci        : COVALED                                       
  Sebastian Ehlert       : rSCAN, r2SCAN, r2SCAN-3c, D4, dhf basis sets  
  Marvin Friede          : D4 for Fr, Ra, Ac-Lr                          
  Lars Goerigk           : TD-DFT with DH, B97 family of functionals     
  Stefan Grimme          : VdW corrections, initial TS optimization, DFT functionals, gCP, sTDA/sTD-DF 
  Waldemar Hujo          : DFT-NL                                        
  H. Jonsson             : NEB                                           
  Holger Kruse           : gCP                                           
  Marcel Mueller         : wB97X-3c, vDZP basis set                      
  Hagen Neugebauer       : wr2SCAN, Native XTB                           
  Gianluca Regni         : ADLD/ADEX                                     
  Tobias Risthaus        : pre 6.0 range-separated hybrid DFT and stability analysis
  Lukas Wittmann         : regularized MP2, r2SCAN double-hybrids, wr2SCAN        
                                                                         
We gratefully acknowledge several colleagues who have allowed us to      
interface, adapt or use parts of their codes:                            
  Ed Valeev, F. Pavosevic, A. Kumar             : LibInt (2-el integral package), F12 methods 
  Garnet Chan, S. Sharma, J. Yang, R. Olivares  : DMRG                   
  Ulf Ekstrom                                   : XCFun DFT Library      
  Mihaly Kallay                                 : mrcc  (arbitrary order and MRCC methods)
  Frank Weinhold                                : gennbo (NPA and NBO analysis)           
  Simon Mueller                                 : openCOSMO-RS                            
  Christopher J. Cramer and Donald G. Truhlar   : smd solvation model                     
  S Lehtola, MJT Oliveira, MAL Marques          : LibXC Library                           
  Liviu Ungur et al                             : ANISO software                          


 Your calculation uses the libint2 library for the computation of 2-el integrals
 For citations please refer to: http://libint.valeyev.net

 Your ORCA version has been built with support for libXC version: 7.0.0
 For citations please refer to: https://libxc.gitlab.io

 This ORCA versions uses:
   CBLAS   interface :  Fast vector & matrix operations
   LAPACKE interface :  Fast linear algebra routines
   SCALAPACK package :  Parallel linear algebra routines
   Shared memory     :  Shared parallel matrices
   BLAS/LAPACK       :  OpenBLAS 0.3.29  USE64BITINT DYNAMIC_ARCH NO_AFFINITY Haswell SINGLE_THREADED
        Core in use  :  Haswell
   Copyright (c) 2011-2014, The OpenBLAS Project


  ***********************************
  * Starting time: Thu Jun 18 23:04:53 2026
  * Host name:     steezy
  * Process ID:    4075220
  * Working dir.:  /home/jannes/metaltpp/nitpp/02_tddft_tda_comparison/runs/tdaoff_wb97xd
  ***********************************

NOTE: MaxCore=3000 MB was set to SCF,MP2,MDCI,CIPSI,MRCI,RASCI and CIS
      => If you want to overwrite this, your respective input block should be placed after the MaxCore statement


***************************************
The coordinates will be read from file: /home/jannes/metaltpp/nitpp/01_opt/nitpp_opt_b3lyp_tzvp.xyz
***************************************


Your calculation utilizes the atom-pairwise dispersion correction
with the zero-damping scheme (D30)


XCFun DFT library Copyright 2009-2010 Ulf Ekstrom and contributors.
See http://admol.org/xcfun for more information.
This is free software; see the source code for copying conditions.
There is ABSOLUTELY NO WARRANTY; not even for MERCHANTABILITY or FITNESS FOR A PARTICULAR PURPOSE.
For details see the documentation.
Scientific users of this library should cite U. Ekstrom, L. Visscher, R. Bast, A. J. Thorvaldsen and K. Ruud;
J.Chem.Theor.Comp. 2010, DOI: 10.1021/ct100117s
XCFun Version 0.99 

================================================================================

----- Orbital basis set information -----
Your calculation utilizes the basis: def2-TZVP
   F. Weigend and R. Ahlrichs, Phys. Chem. Chem. Phys. 7, 3297 (2005).

----- AuxJ basis set information -----
Your calculation utilizes the auxiliary basis: def2/J
   H-Rn: F. Weigend, Phys. Chem. Chem. Phys. 8, 1057 (2006).
   Fr-Lr: K. Eichkorn, F. Weigend, O. Treutler, R. Ahlrichs; Theor. Chem. Acc. 97, 119 (1997).

================================================================================
                                        WARNINGS
                       Please study these warnings very carefully!
================================================================================


WARNING: CIS/ROCIS methods need fully converged wavefunctions
  ===> : Setting SCFConvForced true
         You can overwrite this default with %scf ConvForced false 


================================================================================
                                       INPUT FILE
================================================================================
NAME = tddft.inp
|  1> %pal nprocs 8 end
|  2> %maxcore 3000
|  3> ! wB97X-D3 def2-TZVP def2/J RIJCOSX DefGrid3 TightSCF CPCM(Toluene)
|  4> %tddft
|  5>   nroots 30
|  6>   triplets false
|  7>   tda false
|  8> end
|  9> * xyzfile 0 1 /home/jannes/metaltpp/nitpp/01_opt/nitpp_opt_b3lyp_tzvp.xyz
| 10> 
| 11>                          ****END OF INPUT****
================================================================================

                       ****************************
                       * Single Point Calculation *
                       ****************************

---------------------------------
CARTESIAN COORDINATES (ANGSTROEM)
---------------------------------
  N     -2.033380    2.525664    3.519664
  H      1.686682   -2.144824    4.059556
  C     -4.280853    2.993931    3.766152
  C     -0.360844   -1.512596    3.618564
  N      0.086819    0.752407    3.646252
  C      0.955283   -1.371831    3.895622
  H     -0.924554   -2.424161    3.518230
  C      2.790429    1.898765    3.753177
  N     -0.256609    4.633140    3.280862
  C     -1.124474    6.767732    3.145003
  C      2.515097    0.563846    4.020529
  C      2.595196    3.981672    3.108447
  N      1.863822    2.861301    3.423752
  C      4.000691    3.716250    3.247168
  C     -0.906551   -0.188363    3.499145
  C      1.235093    0.037765    3.892254
  C     -2.771027    1.368021    3.446422
  C     -2.951776    3.535875    3.691852
  C     -4.172038    1.658978    3.579646
  C     -2.262901    0.077270    3.360352
  C     -2.672389    4.896557    3.690839
  C      4.119748    2.439875    3.677935
  C     -1.398943    5.384572    3.422037
  C      0.181889    6.849504    2.805013
  C      2.080619    5.234553    2.796373
  C      0.728480    5.525740    2.925114
  H     -5.175347    3.571462    3.924441
  H     -4.958431    0.923724    3.562914
  H      5.020850    1.899007    3.910910
  H      4.783899    4.432208    3.064773
  H      0.738578    7.723314    2.512963
  H     -1.853252    7.559573    3.179091
  Ni    -0.084553    2.693124    3.467765
  C      3.637637   -0.358335    4.375634
  C      4.515453   -0.838049    3.400447
  C      5.551851   -1.701041    3.739387
  C      5.727802   -2.097196    5.060877
  C      4.859729   -1.626700    6.039832
  C      3.822009   -0.765690    5.698863
  H      4.379479   -0.535160    2.369482
  H      6.220173   -2.065920    2.969070
  H      6.535147   -2.768694    5.325475
  H      4.989489   -1.928550    7.071899
  H      3.147911   -0.401093    6.464260
  C     -3.219097   -1.060724    3.195776
  C     -3.774925   -1.336143    1.944255
  C     -4.668917   -2.388641    1.778904
  C     -5.024319   -3.180592    2.865070
  C     -4.480038   -2.913588    4.116750
  C     -3.584179   -1.862614    4.279968
  H     -3.500016   -0.721577    1.095800
  H     -5.086426   -2.589558    0.799907
  H     -5.721351   -3.999503    2.737569
  H     -4.754659   -3.522074    4.969686
  H     -3.166023   -1.655401    5.257388
  C     -3.785095    5.873238    3.900709
  C     -4.710474    6.144049    2.889664
  C     -5.737047    7.059821    3.092564
  C     -5.855551    7.718743    4.311586
  C     -4.939830    7.457879    5.324828
  C     -3.911925    6.543768    5.119470
  H     -4.619010    5.636359    1.937324
  H     -6.442728    7.260305    2.295698
  H     -6.655395    8.431370    4.470125
  H     -5.024812    7.964904    6.278142
  H     -3.200748    6.342684    5.911260
  C      3.027914    6.317709    2.389853
  C      3.552570    6.344247    1.095590
  C      4.438292    7.343878    0.707557
  C      4.816783    8.331488    1.610143
  C      4.303897    8.313067    2.902733
  C      3.416318    7.314509    3.288450
  H      3.260167    5.576770    0.389452
  H      4.831396    7.350425   -0.301672
  H      5.507439    9.109363    1.309081
  H      4.596592    9.075150    3.614585
  H      3.022811    7.301348    4.297447

----------------------------
CARTESIAN COORDINATES (A.U.)
----------------------------
  NO LB      ZA    FRAG     MASS         X           Y           Z
   0 N     7.0000    0    14.007   -3.842532    4.772813    6.651201
   1 H     1.0000    0     1.008    3.187367   -4.053130    7.671449
   2 C     6.0000    0    12.011   -8.089639    5.657709    7.116996
   3 C     6.0000    0    12.011   -0.681896   -2.858392    6.838095
   4 N     7.0000    0    14.007    0.164063    1.421843    6.890418
   5 C     6.0000    0    12.011    1.805223   -2.592385    7.361658
   6 H     1.0000    0     1.008   -1.747154   -4.581000    6.648492
   7 C     6.0000    0    12.011    5.273146    3.588147    7.092476
   8 N     7.0000    0    14.007   -0.484921    8.755365    6.199930
   9 C     6.0000    0    12.011   -2.124949   12.789160    5.943194
  10 C     6.0000    0    12.011    4.752845    1.065515    7.597698
  11 C     6.0000    0    12.011    4.904209    7.524269    5.874113
  12 N     7.0000    0    14.007    3.522113    5.407074    6.469953
  13 C     6.0000    0    12.011    7.560210    7.022695    6.136257
  14 C     6.0000    0    12.011   -1.713133   -0.355954    6.612426
  15 C     6.0000    0    12.011    2.333987    0.071365    7.355294
  16 C     6.0000    0    12.011   -5.236483    2.585186    6.512794
  17 C     6.0000    0    12.011   -5.578048    6.681834    6.976589
  18 C     6.0000    0    12.011   -7.884009    3.135014    6.764550
  19 C     6.0000    0    12.011   -4.276263    0.146020    6.350144
  20 C     6.0000    0    12.011   -5.050083    9.253152    6.974675
  21 C     6.0000    0    12.011    7.785195    4.610696    6.950290
  22 C     6.0000    0    12.011   -2.643618   10.175366    6.466712
  23 C     6.0000    0    12.011    0.343720   12.943687    5.300707
  24 C     6.0000    0    12.011    3.931801    9.891872    5.284379
  25 C     6.0000    0    12.011    1.376627   10.442135    5.527664
  26 H     1.0000    0     1.008   -9.779989    6.749085    7.416119
  27 H     1.0000    0     1.008   -9.370077    1.745585    6.732932
  28 H     1.0000    0     1.008    9.488032    3.588603    7.390549
  29 H     1.0000    0     1.008    9.040260    8.375660    5.791581
  30 H     1.0000    0     1.008    1.395710   14.594948    4.748811
  31 H     1.0000    0     1.008   -3.502139   14.285522    6.007611
  32 Ni   28.0000    0    58.700   -0.159781    5.089267    6.553126
  33 C     6.0000    0    12.011    6.874137   -0.677156    8.268751
  34 C     6.0000    0    12.011    8.532970   -1.583683    6.425913
  35 C     6.0000    0    12.011   10.491478   -3.214502    7.066417
  36 C     6.0000    0    12.011   10.823978   -3.963126    9.563671
  37 C     6.0000    0    12.011    9.183557   -3.074017   11.413627
  38 C     6.0000    0    12.011    7.222551   -1.446944   10.769290
  39 H     1.0000    0     1.008    8.276016   -1.011305    4.477672
  40 H     1.0000    0     1.008   11.754423   -3.904022    5.610729
  41 H     1.0000    0     1.008   12.349639   -5.232073   10.063689
  42 H     1.0000    0     1.008    9.428767   -3.644431   13.363952
  43 H     1.0000    0     1.008    5.948689   -0.757957   12.215682
  44 C     6.0000    0    12.011   -6.083213   -2.004477    6.039142
  45 C     6.0000    0    12.011   -7.133575   -2.524945    3.674110
  46 C     6.0000    0    12.011   -8.822975   -4.513878    3.361641
  47 C     6.0000    0    12.011   -9.494587   -6.010447    5.414198
  48 C     6.0000    0    12.011   -8.466046   -5.505884    7.779530
  49 C     6.0000    0    12.011   -6.773117   -3.519830    8.087967
  50 H     1.0000    0     1.008   -6.614072   -1.363584    2.070762
  51 H     1.0000    0     1.008   -9.611953   -4.893555    1.511605
  52 H     1.0000    0     1.008  -10.811787   -7.557965    5.173256
  53 H     1.0000    0     1.008   -8.985003   -6.655756    9.391346
  54 H     1.0000    0     1.008   -5.982916   -3.128255    9.935023
  55 C     6.0000    0    12.011   -7.152794   11.098812    7.371271
  56 C     6.0000    0    12.011   -8.901506   11.610570    5.460674
  57 C     6.0000    0    12.011  -10.841448   13.341128    5.844098
  58 C     6.0000    0    12.011  -11.065388   14.586310    8.147717
  59 C     6.0000    0    12.011   -9.334925   14.093349   10.062468
  60 C     6.0000    0    12.011   -7.392467   12.365929    9.674396
  61 H     1.0000    0     1.008   -8.728664   10.651175    3.661012
  62 H     1.0000    0     1.008  -12.174991   13.719987    4.338240
  63 H     1.0000    0     1.008  -12.576875   15.932979    8.447313
  64 H     1.0000    0     1.008   -9.495519   15.051486   11.863968
  65 H     1.0000    0     1.008   -6.048537   11.985936   11.170663
  66 C     6.0000    0    12.011    5.721928   11.938740    4.516167
  67 C     6.0000    0    12.011    6.713385   11.988890    2.070366
  68 C     6.0000    0    12.011    8.387156   13.877918    1.337089
  69 C     6.0000    0    12.011    9.102400   15.744232    3.042730
  70 C     6.0000    0    12.011    8.133186   15.709419    5.485371
  71 C     6.0000    0    12.011    6.455905   13.822419    6.214270
  72 H     1.0000    0     1.008    6.160823   10.538569    0.735958
  73 H     1.0000    0     1.008    9.130015   13.890290   -0.570077
  74 H     1.0000    0     1.008   10.407551   17.214201    2.473805
  75 H     1.0000    0     1.008    8.686300   17.149548    6.830575
  76 H     1.0000    0     1.008    5.712286   13.797549    8.120998

--------------------------------
INTERNAL COORDINATES (ANGSTROEM)
--------------------------------
 N      0   0   0     0.000000000000     0.00000000     0.00000000
 H      1   0   0     5.995315508272     0.00000000     0.00000000
 C      1   2   0     2.308931053632   138.79490074     0.00000000
 C      2   1   3     2.187818188686    34.51509210    28.46924667
 N      4   2   1     2.308984119046    95.71664910     5.98864078
 C      2   1   3     1.076725224652     6.02819997    52.25655203
 H      4   2   1     1.076469392692   105.31736084   185.45002408
 C      5   4   2     2.938550259804   124.15914566     9.70481593
 N      1   2   6     2.766838542197   101.69406723   220.83270345
 C      9   1   2     2.308274917556   117.90564310   183.06361943
 C      8   5   4     1.388990351357    56.61266624   345.83057752
 C      8   5   4     2.189130085284   106.16542615   162.07924345
 N     12   8   5     1.374611031908    37.28790363     6.92173381
 C     12   8   5     1.437048640156    73.05872554   186.73902979
 C      5   4   2     1.376034679274    35.71766369   182.17661476
 C      5   4   2     1.374686742588    69.76546214     0.50482964
 C      1   2   6     1.374635800842    71.44065023    31.85219035
 C      1   2   6     1.376090255474   167.09468947   110.00158307
 C      3   1   2     1.352303524528    72.94721570   338.48386433
 C     15   5   4     1.389068096567   125.79197284   175.25282973
 C     18   1  17     1.389070099609   125.78801284   186.46122822
 C     14  12   8     1.352356762283   106.92822134   358.48861660
 C      9   1   2     1.374592940041    82.75329166   189.59583980
 C     10   9   1     1.352355187234    72.99353251   192.52396603
 C     12   8   5     1.389924806705   163.09861065    19.30569027
 C      9   1   2     1.376114871863   167.43960178    57.81503606
 H      3   1   2     1.076437679752   158.96571893   157.28957730
 H     19   3   1     1.076704678754   128.13275166   178.88841852
 H     22  14  12     1.076476315094   128.08611064   181.29236595
 H     14  12   8     1.076698543151   124.90904816   180.27164158
 H     24  10   9     1.076447951058   128.08708021   179.44762224
 H     10   9   1     1.076703725167   158.86233423    10.09357501
 Ni    13  12   8     1.956114472265   127.24235614   177.68225425
 C     11   8   5     1.495531305817   119.31017380   179.63325557
 C     34  11   8     1.397024631342   121.17310164   284.14277619
 C     35  34  11     1.390596223836   120.74789176   180.35613056
 C     36  35  34     1.390766856568   120.17606850   359.92820901
 C     37  36  35     1.390421039675   119.57923292     0.10802008
 C     38  37  36     1.390848751208   120.17782263     0.00000000
 H     35  34  11     1.083106389568   119.30984913     0.03868797
 H     36  35  34     1.083133441564   119.70800478   179.75204590
 H     37  36  35     1.082925437203   120.20606687   180.04209715
 H     38  37  36     1.083103658351   120.11879178   180.08077482
 H     39  38  37     1.083130922690   119.96640067   180.01249711
 C     20  15   5     1.495468770539   119.32822483   179.40348951
 C     45  20  15     1.396819993284   120.20372965   255.08308869
 C     46  45  20     1.390796214797   120.76509329   180.22391711
 C     47  46  45     1.390414536414   120.16305511     0.18979337
 C     48  47  46     1.390767593618   119.58240669     0.00000000
 C     49  48  47     1.390593935200   120.18876464   359.88265423
 H     46  45  20     1.083116914282   119.27384816     0.43888253
 H     47  46  45     1.083104909446   119.71070159   180.25760523
 H     48  47  46     1.082924786729   120.21639631   179.91827796
 H     49  48  47     1.083130703668   120.10870655   179.70289983
 H     50  49  48     1.083116288322   119.94861527   179.72962536
 C     21  18   1     1.495348347558   119.34261113   180.38498785
 C     56  21  18     1.397095241345   121.19198743   285.28729172
 C     57  56  21     1.390560604769   120.73343996   180.37007467
 C     58  57  56     1.390768524184   120.18627328   359.92130629
 C     59  58  57     1.390415757456   119.58642194     0.11985065
 C     60  59  58     1.390812861998   120.16266210     0.00000000
 H     57  56  21     1.083082093641   119.30926447     0.00000000
 H     58  57  56     1.083131474444   119.70466233   179.73268150
 H     59  58  57     1.082922981887   120.20075292   180.04931472
 H     60  59  58     1.083098134837   120.12636600   180.09629411
 H     61  60  59     1.083115937023   119.95732438   180.03344245
 C     25  12   8     1.495276696795   118.65022734   174.73502472
 C     67  25  12     1.396812072688   120.24048279    78.17496294
 C     68  67  25     1.390803495918   120.75550273   180.23851252
 C     69  68  67     1.390428723910   120.18297614     0.19574417
 C     70  69  68     1.390747857322   119.57289456     0.00000000
 C     71  70  69     1.390572401932   120.17902480   359.87683128
 H     68  67  25     1.083121130040   119.28934076     0.43782496
 H     69  68  67     1.083104771231   119.69946611   180.26296706
 H     70  69  68     1.082927967106   120.22179297   179.91687317
 H     71  70  69     1.083131490943   120.12271330   179.69080096
 H     72  71  70     1.083094820246   119.93571331   179.72106476

---------------------------
INTERNAL COORDINATES (A.U.)
---------------------------
 N      0   0   0     0.000000000000     0.00000000     0.00000000
 H      1   0   0    11.329504397085     0.00000000     0.00000000
 C      1   2   0     4.363247353470   138.79490074     0.00000000
 C      2   1   3     4.134377207428    34.51509210    28.46924667
 N      4   2   1     4.363347632570    95.71664910     5.98864078
 C      2   1   3     2.034715796077     6.02819997    52.25655203
 H      4   2   1     2.034232343736   105.31736084   185.45002408
 C      5   4   2     5.553055221792   124.15914566     9.70481593
 N      1   2   6     5.228567101529   101.69406723   220.83270345
 C      9   1   2     4.362007435980   117.90564310   183.06361943
 C      8   5   4     2.624811366724    56.61266624   345.83057752
 C      8   5   4     4.136856332714   106.16542615   162.07924345
 N     12   8   5     2.597638390974    37.28790363     6.92173381
 C     12   8   5     2.715628371019    73.05872554   186.73902979
 C      5   4   2     2.600328694607    35.71766369   182.17661476
 C      5   4   2     2.597781463424    69.76546214     0.50482964
 C      1   2   6     2.597685197476    71.44065023    31.85219035
 C      1   2   6     2.600433718404   167.09468947   110.00158307
 C      3   1   2     2.555483311295    72.94721570   338.48386433
 C     15   5   4     2.624958283879   125.79197284   175.25282973
 C     18   1  17     2.624962069080   125.78801284   186.46122822
 C     14  12   8     2.555583916071   106.92822134   358.48861660
 C      9   1   2     2.597604202299    82.75329166   189.59583980
 C     10   9   1     2.555580939660    72.99353251   192.52396603
 C     12   8   5     2.626577231415   163.09861065    19.30569027
 C      9   1   2     2.600480236636   167.43960178    57.81503606
 H      3   1   2     2.034172414964   158.96571893   157.28957730
 H     19   3   1     2.034676969956   128.13275166   178.88841852
 H     22  14  12     2.034245425180   128.08611064   181.29236595
 H     14  12   8     2.034665375347   124.90904816   180.27164158
 H     24  10   9     2.034191824920   128.08708021   179.44762224
 H     10   9   1     2.034675167939   158.86233423    10.09357501
 Ni    13  12   8     3.696520639181   127.24235614   177.68225425
 C     11   8   5     2.826144592700   119.31017380   179.63325557
 C     34  11   8     2.639993955579   121.17310164   284.14277619
 C     35  34  11     2.627846025916   120.74789176   180.35613056
 C     36  35  34     2.628168475048   120.17606850   359.92820901
 C     37  36  35     2.627514975828   119.57923292     0.10802008
 C     38  37  36     2.628323233489   120.17782263     0.00000000
 H     35  34  11     2.046774450184   119.30984913     0.03868797
 H     36  35  34     2.046825571048   119.70800478   179.75204590
 H     37  36  35     2.046432499770   120.20606687   180.04209715
 H     38  37  36     2.046769288932   120.11879178   180.08077482
 H     39  38  37     2.046820811066   119.96640067   180.01249711
 C     20  15   5     2.826026418150   119.32822483   179.40348951
 C     45  20  15     2.639607245693   120.20372965   255.08308869
 C     46  45  20     2.628223954061   120.76509329   180.22391711
 C     47  46  45     2.627502686445   120.16305511     0.18979337
 C     48  47  46     2.628169867870   119.58240669     0.00000000
 C     49  48  47     2.627841701019   120.18876464   359.88265423
 H     46  45  20     2.046794339011   119.27384816     0.43888253
 H     47  46  45     2.046771653159   119.71070159   180.25760523
 H     48  47  46     2.046431270554   120.21639631   179.91827796
 H     49  48  47     2.046820397174   120.10870655   179.70289983
 H     50  49  48     2.046793156117   119.94861527   179.72962536
 C     21  18   1     2.825798851696   119.34261113   180.38498785
 C     56  21  18     2.640127389147   121.19198743   285.28729172
 C     57  56  21     2.627778715634   120.73343996   180.37007467
 C     58  57  56     2.628171626385   120.18627328   359.92130629
 C     59  58  57     2.627504993881   119.58642194     0.11985065
 C     60  59  58     2.628255412712   120.16266210     0.00000000
 H     57  56  21     2.046728537535   119.30926447     0.00000000
 H     58  57  56     2.046821853730   119.70466233   179.73268150
 H     59  58  57     2.046427859896   120.20075292   180.04931472
 H     60  59  58     2.046758851002   120.12636600   180.09629411
 H     61  60  59     2.046792492258   119.95732438   180.03344245
 C     25  12   8     2.825663451376   118.65022734   174.73502472
 C     67  25  12     2.639592277935   120.24048279    78.17496294
 C     68  67  25     2.628237713384   120.75550273   180.23851252
 C     69  68  67     2.627529496928   120.18297614     0.19574417
 C     70  69  68     2.628132571676   119.57289456     0.00000000
 C     71  70  69     2.627801009040   120.17902480   359.87683128
 H     68  67  25     2.046802305638   119.28934076     0.43782496
 H     69  68  67     2.046771391970   119.69946611   180.26296706
 H     70  69  68     2.046437280595   120.22179297   179.91687317
 H     71  70  69     2.046821884909   120.12271330   179.69080096
 H     72  71  70     2.046752587333   119.93571331   179.72106476

---------------------
BASIS SET INFORMATION
---------------------
There are 4 groups of distinct atoms

 Group   1 Type N   : 11s6p2d1f contracted to 5s3p2d1f pattern {62111/411/11/1}
 Group   2 Type H   : 5s1p contracted to 3s1p pattern {311/1}
 Group   3 Type C   : 11s6p2d1f contracted to 5s3p2d1f pattern {62111/411/11/1}
 Group   4 Type Ni  : 17s11p7d1f contracted to 6s4p4d1f pattern {842111/6311/4111/1}

Atom   0N    basis set group =>   1
Atom   1H    basis set group =>   2
Atom   2C    basis set group =>   3
Atom   3C    basis set group =>   3
Atom   4N    basis set group =>   1
Atom   5C    basis set group =>   3
Atom   6H    basis set group =>   2
Atom   7C    basis set group =>   3
Atom   8N    basis set group =>   1
Atom   9C    basis set group =>   3
Atom  10C    basis set group =>   3
Atom  11C    basis set group =>   3
Atom  12N    basis set group =>   1
Atom  13C    basis set group =>   3
Atom  14C    basis set group =>   3
Atom  15C    basis set group =>   3
Atom  16C    basis set group =>   3
Atom  17C    basis set group =>   3
Atom  18C    basis set group =>   3
Atom  19C    basis set group =>   3
Atom  20C    basis set group =>   3
Atom  21C    basis set group =>   3
Atom  22C    basis set group =>   3
Atom  23C    basis set group =>   3
Atom  24C    basis set group =>   3
Atom  25C    basis set group =>   3
Atom  26H    basis set group =>   2
Atom  27H    basis set group =>   2
Atom  28H    basis set group =>   2
Atom  29H    basis set group =>   2
Atom  30H    basis set group =>   2
Atom  31H    basis set group =>   2
Atom  32Ni   basis set group =>   4
Atom  33C    basis set group =>   3
Atom  34C    basis set group =>   3
Atom  35C    basis set group =>   3
Atom  36C    basis set group =>   3
Atom  37C    basis set group =>   3
Atom  38C    basis set group =>   3
Atom  39H    basis set group =>   2
Atom  40H    basis set group =>   2
Atom  41H    basis set group =>   2
Atom  42H    basis set group =>   2
Atom  43H    basis set group =>   2
Atom  44C    basis set group =>   3
Atom  45C    basis set group =>   3
Atom  46C    basis set group =>   3
Atom  47C    basis set group =>   3
Atom  48C    basis set group =>   3
Atom  49C    basis set group =>   3
Atom  50H    basis set group =>   2
Atom  51H    basis set group =>   2
Atom  52H    basis set group =>   2
Atom  53H    basis set group =>   2
Atom  54H    basis set group =>   2
Atom  55C    basis set group =>   3
Atom  56C    basis set group =>   3
Atom  57C    basis set group =>   3
Atom  58C    basis set group =>   3
Atom  59C    basis set group =>   3
Atom  60C    basis set group =>   3
Atom  61H    basis set group =>   2
Atom  62H    basis set group =>   2
Atom  63H    basis set group =>   2
Atom  64H    basis set group =>   2
Atom  65H    basis set group =>   2
Atom  66C    basis set group =>   3
Atom  67C    basis set group =>   3
Atom  68C    basis set group =>   3
Atom  69C    basis set group =>   3
Atom  70C    basis set group =>   3
Atom  71C    basis set group =>   3
Atom  72H    basis set group =>   2
Atom  73H    basis set group =>   2
Atom  74H    basis set group =>   2
Atom  75H    basis set group =>   2
Atom  76H    basis set group =>   2
---------------------------------
AUXILIARY/J BASIS SET INFORMATION
---------------------------------
There are 4 groups of distinct atoms

 Group   1 Type N   : 12s5p4d2f1g contracted to 6s4p3d1f1g pattern {711111/2111/211/2/1}
 Group   2 Type H   : 5s2p1d contracted to 3s1p1d pattern {311/2/1}
 Group   3 Type C   : 12s5p4d2f1g contracted to 6s4p3d1f1g pattern {711111/2111/211/2/1}
 Group   4 Type Ni  : 19s5p5d3f3g contracted to 8s5p5d2f3g pattern {121111111/11111/11111/21/111}

Atom   0N    basis set group =>   1
Atom   1H    basis set group =>   2
Atom   2C    basis set group =>   3
Atom   3C    basis set group =>   3
Atom   4N    basis set group =>   1
Atom   5C    basis set group =>   3
Atom   6H    basis set group =>   2
Atom   7C    basis set group =>   3
Atom   8N    basis set group =>   1
Atom   9C    basis set group =>   3
Atom  10C    basis set group =>   3
Atom  11C    basis set group =>   3
Atom  12N    basis set group =>   1
Atom  13C    basis set group =>   3
Atom  14C    basis set group =>   3
Atom  15C    basis set group =>   3
Atom  16C    basis set group =>   3
Atom  17C    basis set group =>   3
Atom  18C    basis set group =>   3
Atom  19C    basis set group =>   3
Atom  20C    basis set group =>   3
Atom  21C    basis set group =>   3
Atom  22C    basis set group =>   3
Atom  23C    basis set group =>   3
Atom  24C    basis set group =>   3
Atom  25C    basis set group =>   3
Atom  26H    basis set group =>   2
Atom  27H    basis set group =>   2
Atom  28H    basis set group =>   2
Atom  29H    basis set group =>   2
Atom  30H    basis set group =>   2
Atom  31H    basis set group =>   2
Atom  32Ni   basis set group =>   4
Atom  33C    basis set group =>   3
Atom  34C    basis set group =>   3
Atom  35C    basis set group =>   3
Atom  36C    basis set group =>   3
Atom  37C    basis set group =>   3
Atom  38C    basis set group =>   3
Atom  39H    basis set group =>   2
Atom  40H    basis set group =>   2
Atom  41H    basis set group =>   2
Atom  42H    basis set group =>   2
Atom  43H    basis set group =>   2
Atom  44C    basis set group =>   3
Atom  45C    basis set group =>   3
Atom  46C    basis set group =>   3
Atom  47C    basis set group =>   3
Atom  48C    basis set group =>   3
Atom  49C    basis set group =>   3
Atom  50H    basis set group =>   2
Atom  51H    basis set group =>   2
Atom  52H    basis set group =>   2
Atom  53H    basis set group =>   2
Atom  54H    basis set group =>   2
Atom  55C    basis set group =>   3
Atom  56C    basis set group =>   3
Atom  57C    basis set group =>   3
Atom  58C    basis set group =>   3
Atom  59C    basis set group =>   3
Atom  60C    basis set group =>   3
Atom  61H    basis set group =>   2
Atom  62H    basis set group =>   2
Atom  63H    basis set group =>   2
Atom  64H    basis set group =>   2
Atom  65H    basis set group =>   2
Atom  66C    basis set group =>   3
Atom  67C    basis set group =>   3
Atom  68C    basis set group =>   3
Atom  69C    basis set group =>   3
Atom  70C    basis set group =>   3
Atom  71C    basis set group =>   3
Atom  72H    basis set group =>   2
Atom  73H    basis set group =>   2
Atom  74H    basis set group =>   2
Atom  75H    basis set group =>   2
Atom  76H    basis set group =>   2


           ************************************************************
           *        Program running with 8 parallel MPI-processes     *
           *              working on a common directory               *
           ************************************************************
------------------------------------------------------------------------------
                             ORCA STARTUP CALCULATIONS
                           -- RI-GTO INTEGRALS CHOSEN --
------------------------------------------------------------------------------
------------------------------------------------------------------------------
                   ___                                                        
                  /   \      - P O W E R E D   B Y -                         
                 /     \                                                     
                 |  |  |   _    _      __       _____    __    __             
                 |  |  |  | |  | |    /  \     |  _  \  |  |  /  |          
                  \  \/   | |  | |   /    \    | | | |  |  | /  /          
                 / \  \   | |__| |  /  /\  \   | |_| |  |  |/  /          
                |  |  |   |  __  | /  /__\  \  |    /   |      \           
                |  |  |   | |  | | |   __   |  |    \   |  |\   \          
                \     /   | |  | | |  |  |  |  | |\  \  |  | \   \       
                 \___/    |_|  |_| |__|  |__|  |_| \__\ |__|  \__/        
                                                                              
                      - O R C A' S   B I G   F R I E N D -                    
                                      &                                       
                       - I N T E G R A L  F E E D E R -                       
                                                                              
 v1 FN, 2020, v2 2021, v3 2022-2024                                           
------------------------------------------------------------------------------


----------------------
SHARK INTEGRAL PACKAGE
----------------------

Number of atoms                             ...     77
Number of basis functions                   ...   1701
Number of shells                            ...    655
Maximum angular momentum                    ...      3
Integral batch strategy                     ... SHARK/LIBINT Hybrid
RI-J (if used) integral strategy            ... SPLIT-RIJ (Revised 2003 algorithm where possible)
Printlevel                                  ...      1
Contraction scheme used                     ... SEGMENTED contraction
Prescreening option                         ... SCHWARTZ
   Thresh                                   ... 2.500e-11
   Tcut                                     ... 2.500e-12
   Tpresel                                  ... 2.500e-12 
Coulomb Range Separation                    ... NOT USED
Exchange Range Separation                   ... Long Range
   Mu parameter                             ... 2.500e-01
   Scaling (regular/separated)              ... 1.957e-01 8.043e-01
Robust (split-)RI terms used:
  metric    (central integrals)             ... YES
  density   (r.h.s.  integrals)             ... YES
  potential (l.h.s.  integrals)             ... YES
Multipole approximations                    ... NOT USED
Finite Nucleus Model                        ... NOT USED
CABS basis                                  ... NOT available
Auxiliary Coulomb fitting basis             ... AVAILABLE
   # of basis functions in Aux-J            ...   2749
   # of shells in Aux-J                     ...    883
   Maximum angular momentum in Aux-J        ...      4
Auxiliary J/K fitting basis                 ... NOT available
Auxiliary Correlation fitting basis         ... NOT available
Auxiliary 'external' fitting basis          ... NOT available

Checking pre-screening integrals            ... done (  0.0 sec) Dimension = 655
   => SHARK Basis and OBASIS are compatible. Storing Pre-screening
Shell pair information
Shell pair cut-off parameter TPreSel        ...   2.5e-12
Total number of shell pairs                 ...    214840
Shell pairs after pre-screening             ...    105048
Total number of primitive shell pairs       ...    679229
Primitive shell pairs kept                  ...    203967
          la=0 lb=0:  25003 shell pairs
          la=1 lb=0:  30718 shell pairs
          la=1 lb=1:   9306 shell pairs
          la=2 lb=0:  15053 shell pairs
          la=2 lb=1:   9379 shell pairs
          la=2 lb=2:   2279 shell pairs
          la=3 lb=0:   6683 shell pairs
          la=3 lb=1:   4245 shell pairs
          la=3 lb=2:   1936 shell pairs
          la=3 lb=3:    446 shell pairs

Checking whether 4 symmetric matrices of dimension 1701 fit in memory
:Max Core in MB      =   3000.00
 MB in use           =    128.45
 MB left             =   2871.55
 MB needed           =     44.18
 Data fit in memory  = YES
Calculating RI/J V-Matrix + Cholesky decomp.... done (  3.5 sec)
Calculating Nuclear repulsion               ... done (  0.0 sec) ENN=   6447.097857519315 Eh

Diagonalization of the overlap matrix:
Smallest eigenvalue                        ... 3.792e-06
Time for diagonalization                   ...    0.991 sec
Threshold for overlap eigenvalues          ... 1.000e-07
Number of eigenvalues below threshold      ... 0
Time for construction of square roots      ...    0.983 sec
Total time needed                          ...    2.048 sec

-------------------
DFT GRID GENERATION
-------------------

General Integration Accuracy     IntAcc      ... 4.959
Radial Grid Type                 RadialGrid  ... OptM3 with GC (2021)
Angular Grid (max. ang.)         AngularGrid ... 6 (Lebedev-590)
Angular grid pruning method      GridPruning ... 4 (adaptive)
Weight generation scheme         WeightScheme... mBecke (2022)
Basis function cutoff            BFCut       ... 1.0000e-11
Integration weight cutoff        WCut        ... 1.0000e-14
Partially contracted basis set               ... off
Rotationally invariant grid construction     ... off
Angular grids for H and He will be reduced by one unit
Core-polarized basis detected: some atoms will have their core
                               angular grid increased.

Total number of grid points                  ...   938894
Total number of batches                      ...    14707
Average number of points per batch           ...       63
Average number of grid points per atom       ...    12193

--------------------
COSX GRID GENERATION
--------------------

GRIDX 1
-------
General Integration Accuracy     IntAcc      ... 4.020
Radial Grid Type                 RadialGrid  ... OptM3 with GC (2021)
Angular Grid (max. ang.)         AngularGrid ... 2 (Lebedev-110)
Angular grid pruning method      GridPruning ... 4 (adaptive)
Weight generation scheme         WeightScheme... mBecke (2022)
Basis function cutoff            BFCut       ... 1.0000e-11
Integration weight cutoff        WCut        ... 1.0000e-14
Partially contracted basis set               ... on
Rotationally invariant grid construction     ... off
Angular grids for H and He will be reduced by one unit
Core-polarized basis detected: some atoms will have their core
                               angular grid increased.

Total number of grid points                  ...   108337
Total number of batches                      ...      887
Average number of points per batch           ...      122
Average number of grid points per atom       ...     1407
UseSFitting                                  ... on

GRIDX 2
-------
General Integration Accuracy     IntAcc      ... 4.338
Radial Grid Type                 RadialGrid  ... OptM3 with GC (2021)
Angular Grid (max. ang.)         AngularGrid ... 3 (Lebedev-194)
Angular grid pruning method      GridPruning ... 4 (adaptive)
Weight generation scheme         WeightScheme... mBecke (2022)
Basis function cutoff            BFCut       ... 1.0000e-11
Integration weight cutoff        WCut        ... 1.0000e-14
Partially contracted basis set               ... on
Rotationally invariant grid construction     ... off
Angular grids for H and He will be reduced by one unit
Core-polarized basis detected: some atoms will have their core
                               angular grid increased.

Total number of grid points                  ...   230341
Total number of batches                      ...     1835
Average number of points per batch           ...      125
Average number of grid points per atom       ...     2991
UseSFitting                                  ... on

GRIDX 3
-------
General Integration Accuracy     IntAcc      ... 4.871
Radial Grid Type                 RadialGrid  ... OptM3 with GC (2021)
Angular Grid (max. ang.)         AngularGrid ... 4 (Lebedev-302)
Angular grid pruning method      GridPruning ... 4 (adaptive)
Weight generation scheme         WeightScheme... mBecke (2022)
Basis function cutoff            BFCut       ... 1.0000e-11
Integration weight cutoff        WCut        ... 1.0000e-14
Partially contracted basis set               ... on
Rotationally invariant grid construction     ... off
Angular grids for H and He will be reduced by one unit
Core-polarized basis detected: some atoms will have their core
                               angular grid increased.

Total number of grid points                  ...   424165
Total number of batches                      ...     3350
Average number of points per batch           ...      126
Average number of grid points per atom       ...     5509
UseSFitting                                  ... on
Grids setup in  61.9 sec
Initializing property integral containers    ... done (  0.0 sec)

SHARK setup successfully completed in  75.3 seconds

Maximum memory used throughout the entire STARTUP-calculation: 341.5 MB


           ************************************************************
           *        Program running with 8 parallel MPI-processes     *
           *              working on a common directory               *
           ************************************************************
-------------------------------------------------------------------------------
                                 ORCA GUESS
                   Start orbitals & Density for SCF / CASSCF
-------------------------------------------------------------------------------

------------
SCF SETTINGS
------------
Hamiltonian:
 Density Functional     Method          .... DFT(GTOs)
 Exchange Functional    Exchange        .... WB97X-D3
 Correlation Functional Correlation     .... WB97X-D3
 Gradients option       PostSCFGGA      .... off
 Hybrid DFT is turned on
   Fraction HF Exchange ScalHFX         ....  0.195728
   Scaling of DF-GGA-X  ScalDFX         ....  0.000000
   Scaling of DF-GGA-C  ScalDFC         ....  1.000000
   Scaling of DF-LDA-C  ScalLDAC        ....  1.000000
   Perturbative correction              ....  0.000000
 Long-range corrected/Screened/Range-Separated Hybrid DFT is turned on
   Amount of maximum screened exact exchange              ....  0.804272
   Range separation parameter mu (erf(mu*r12)/r12)        ....  0.250000
 RI-approximation to the Coulomb term is turned on
   Number of AuxJ basis functions       .... 2749
   RIJ-COSX (HFX calculated with COS-X)).... on


General Settings:
 Integral files         IntName         .... tddft
 Hartree-Fock type      HFTyp           .... RHF
 Total Charge           Charge          ....    0
 Multiplicity           Mult            ....    1
 Number of Electrons    NEL             ....  348
 Basis Dimension        Dim             .... 1701
 Nuclear Repulsion      ENuc            ....   6447.0978575193 Eh

Convergence Acceleration:
 AO-DIIS                CNVDIIS         .... on
   Start iteration      DIISMaxIt       ....    12
   Startup error        DIISStart       ....  0.200000
   # of expansion vecs  DIISMaxEq       ....     5
   Bias factor          DIISBfac        ....   1.050
   Max. coefficient     DIISMaxC        ....  10.000
 MO-DIIS                CNVKDIIS        .... off
 Trust-Rad. Augm. Hess. CNVTRAH         .... auto
   Auto Start mean grad. ratio tolernc. ....  1.125000
   Auto Start start iteration           ....    50
   Auto Start num. interpolation iter.  ....    10
   Max. Number of Micro iterations      ....    24
   Max. Number of Macro iterations      .... Maxiter - #DIIS iter
   Number of Davidson start vectors     ....     2
   Converg. threshold    (grad. norm)   ....   1.000e-05
   Grad. Scal. Fac. for Micro threshold ....   0.100
   Minimum threshold for Micro iter.    ....   1.000e-02
   NR start threshold (gradient norm)   ....   1.000e-04
   Initial trust radius                 ....   0.400
   Minimum AH scaling param. (alpha)    ....   1.000
   Maximum AH scaling param. (alpha)    .... 1000.000
   Quad. conv. algorithm                .... NR
   White noise on init. David. guess    .... on
   Maximum white noise                  ....   0.010
   Pseudo random numbers                .... off
   Inactive MOs                         .... canonical
   Orbital update algorithm             .... Taylor
   Preconditioner                       .... Diag
   Full preconditioner red. dimension   ....   250
 SOSCF                 CNVSOSCF           .... on
   Start iteration     SOSCFMaxIt         ....   150
   Startup grad/error  SOSCFStart         ....  0.003300
   Hessian update      SOSCFHessUp        .... L-BFGS
   Autom. constraints  SOSCFAutoConstrain .... off
 Level Shifting         CNVShift        .... on
   Level shift para.    LevelShift      ....    0.2500
   Turn off err/grad.   ShiftErr        ....    0.0010
 Zerner damping         CNVZerner       .... off
 Static damping         CNVDamp         .... on
   Fraction old density DampFac         ....    0.7000
   Max. Damping (<1)    DampMax         ....    0.9800
   Min. Damping (>=0)   DampMin         ....    0.0000
   Turn off err/grad.   DampErr         ....    0.1000

SCF Procedure:
 Maximum # iterations   MaxIter         ....   125
 SCF integral mode      SCFMode         .... Direct
   Integral package                     .... SHARK and LIBINT hybrid scheme
 Reset frequency        DirectResetFreq ....    20
 Integral Threshold     Thresh          ....  2.500e-11 Eh
 Primitive CutOff       TCut            ....  2.500e-12 Eh

Convergence Tolerance:
 Convergence Check Mode ConvCheckMode   .... Total+1el-Energy
 Convergence forced     ConvForced      .... 1
 Energy Change          TolE            ....  1.000e-08 Eh
 1-El. energy change                    ....  1.000e-05 Eh
 Orbital Gradient       TolG            ....  1.000e-05
 Orbital Rotation angle TolX            ....  1.000e-05
 DIIS Error             TolErr          ....  5.000e-07

------------------------------
INITIAL GUESS: MODEL POTENTIAL
------------------------------
Loading Hartree-Fock densities                     ... done
Calculating cut-offs                               ... done
Initializing the effective Hamiltonian             ... done
Setting up the integral package (SHARK)            ... done
Starting the Coulomb interaction                   ... done (   8.2 sec)
Making the grid                                    ... done (   1.9 sec)
Mapping shells                                     ... done
Starting the XC term evaluation                    ... done (   3.7 sec)
  promolecular density results
     # of electrons  =    347.985252055
     EX              =   -321.303608677
     EC              =    -12.119400197
     EX+EC           =   -333.423008875
Transforming the Hamiltonian                       ... done (   3.9 sec)
Diagonalizing the Hamiltonian                      ... done (   1.8 sec)
Back transforming the eigenvectors                 ... done (   0.4 sec)
Now organizing SCF variables                       ... done
                      ------------------
                      INITIAL GUESS DONE (  20.6 sec)
                      ------------------
             **** ENERGY FILE WAS UPDATED (tddft.en.tmp) ****
Finished Guess after  24.5 sec
Maximum memory used throughout the entire GUESS-calculation: 209.6 MB


           ************************************************************
           *        Program running with 8 parallel MPI-processes     *
           *              working on a common directory               *
           ************************************************************

-------------------------------------------------------------------------------------------
                                      ORCA LEAN-SCF
                              memory conserving SCF solver
-------------------------------------------------------------------------------------------

--------------------
CPCM SOLVATION MODEL
--------------------
CPCM parameters:
  Epsilon                                         ...       2.3870
  Refrac                                          ...       1.4961
  Rsolv                                           ...       1.3000
  Surface type                                    ... GAUSSIAN VDW
  Discretization scheme                           ... Constant charge density
    Threshold for H atoms                         ...       5.0000 (charges/Ang^2)
    Threshold for non-H atoms                     ...       5.0000 (charges/Ang^2)
  Epsilon function type                           ...         CPCM
Solvent:                                          ... TOLUENE
Radii:
  Scheme                                          ... Element-dependent radii
  Radius for N  used is    3.5149 Bohr (=   1.8600 Ang.)
  Radius for H  used is    2.4944 Bohr (=   1.3200 Ang.)
  Radius for C  used is    3.8550 Bohr (=   2.0400 Ang.)
  Radius for Ni used is    3.6963 Bohr (=   1.9560 Ang.)
Calculating surface                               ...        done! (  0.1s)
Cavity surface points                             ...         6764
Cavity Volume                                     ...    4905.5904
Cavity Surface-area                               ...    2270.8420
Calculating surface distance matrix               ...        done! (  6.1s)
Performing Cholesky decomposition & store         ...        done! (  8.4s)
Overall time for CPCM initialization              ...                14.5s

----------------------------------------D-I-I-S--------------------------------------------
Iteration    Energy (Eh)           Delta-E    RMSDP     MaxDP     DIISErr   Damp  Time(sec)
-------------------------------------------------------------------------------------------
               ***  Starting incremental Fock matrix formation  ***
    1    -3420.2318552129218006     0.00e+00  1.81e-03  5.22e-02  1.65e-01  0.700 468.3
    2    -3420.5680288907205977    -3.36e-01  1.69e-03  3.18e-02  9.18e-02  0.700 209.9
                               ***Turning on AO-DIIS***
    3    -3420.7516774565337982    -1.84e-01  1.27e-03  3.82e-02  4.44e-02  0.700 278.4
    4    -3420.8634712734383356    -1.12e-01  2.60e-03  5.39e-02  4.36e-02  0.000 270.2
    5    -3421.1083155883043219    -2.45e-01  3.62e-04  1.45e-02  3.64e-02  0.000 263.7
    6    -3421.1089462023755914    -6.31e-04  2.27e-04  9.55e-03  4.10e-02  0.000 246.0
    7    -3421.1103934620787186    -1.45e-03  8.44e-05  2.43e-03  5.10e-03  0.000 199.4
                              *** Initializing SOSCF ***
---------------------------------------S-O-S-C-F--------------------------------------
Iteration    Energy (Eh)           Delta-E    RMSDP     MaxDP     MaxGrad    Time(sec)
--------------------------------------------------------------------------------------
    8    -3421.1105116753060429    -1.18e-04  6.48e-05  1.38e-03  2.59e-03   192.6
               *** Restarting incremental Fock matrix formation ***
    9    -3421.1105695645819651    -5.79e-05  2.53e-04  5.62e-03  7.79e-04   462.1
   10    -3421.1105939218268759    -2.44e-05  1.35e-04  2.83e-03  3.81e-04   363.2
   11    -3421.1105991285203345    -5.21e-06  9.57e-05  2.16e-03  2.42e-04   382.4
   12    -3421.1106018720274733    -2.74e-06  2.38e-05  7.89e-04  3.65e-05   368.5
   13    -3421.1106019400613150    -6.80e-08  2.26e-05  1.27e-03  5.71e-05   266.6
   14    -3421.1106019440576347    -4.00e-09  3.05e-05  1.16e-03  6.72e-05   209.2
                 **** Energy Check signals convergence ****

               *****************************************************
               *                     SUCCESS                       *
               *           SCF CONVERGED AFTER  14 CYCLES          *
               *****************************************************

Recomputing exchange energy using gridx3       ... done (  821.095 sec)
Old exchange energy                            :   -101.172142866 Eh
New exchange energy                            :   -101.172133020 Eh
Exchange energy change after final integration :      0.000009846 Eh
Total energy after final integration           :  -3421.110592180 Eh
             **** ENERGY FILE WAS UPDATED (tddft.en.tmp) ****

----------------
TOTAL SCF ENERGY
----------------

Total Energy       :      -3421.11059218038372 Eh          -93093.15198 eV

Components:
Nuclear Repulsion  :       6447.09785751931486 Eh          175434.45162 eV
Electronic Energy  :      -9868.19637278713708 Eh         -268527.27497 eV
One Electron Energy:     -17531.03321264671104 Eh         -477043.66615 eV
Two Electron Energy:       7662.83683985957305 Eh          208516.39118 eV
CPCM Dielectric    :         -0.01208675842980 Eh              -0.32890 eV

Virial components:
Potential Energy   :      -6830.89347758967779 Eh         -185878.06138 eV
Kinetic Energy     :       3409.78288540929407 Eh           92784.90941 eV
Virial Ratio       :          2.00332211966327

DFT components:
N(Alpha)           :      173.999992116704 electrons
N(Beta)            :      173.999992116704 electrons
N(Total)           :      347.999984233408 electrons
E(XC)              :     -238.961741594763 Eh       

CPCM Solvation Model Properties:
Surface-charge          :         -0.04774373823368
Corrected charge        :          0.00000000000000
Outlying charge corr.   :          0.00005210061640 Eh               0.00142 eV
Free-energy (cav+disp)  :  This term is not implemented in the current solvation scheme

---------------
SCF CONVERGENCE
---------------

  Last Energy change         ...    3.9963e-09  Tolerance :   1.0000e-08
  Last MAX-Density change    ...    1.1560e-03  Tolerance :   1.0000e-07
  Last RMS-Density change    ...    3.0533e-05  Tolerance :   5.0000e-09
  Last DIIS Error            ...    2.5911e-03  Tolerance :   5.0000e-07
  Last Orbital Gradient      ...    6.7219e-05  Tolerance :   1.0000e-05
  Last Orbital Rotation      ...    1.0003e-04  Tolerance :   1.0000e-05


----------------
ORBITAL ENERGIES
----------------

  NO   OCC          E(Eh)            E(eV) 
   0   2.0000    -299.937524     -8161.7150 
   1   2.0000     -35.895457      -976.7650 
   2   2.0000     -31.318760      -852.2268 
   3   2.0000     -31.318753      -852.2266 
   4   2.0000     -31.286695      -851.3542 
   5   2.0000     -14.440398      -392.9432 
   6   2.0000     -14.440394      -392.9431 
   7   2.0000     -14.440387      -392.9429 
   8   2.0000     -14.440385      -392.9429 
   9   2.0000     -10.317553      -280.7549 
  10   2.0000     -10.317543      -280.7546 
  11   2.0000     -10.317523      -280.7541 
  12   2.0000     -10.317503      -280.7535 
  13   2.0000     -10.317242      -280.7464 
  14   2.0000     -10.317237      -280.7463 
  15   2.0000     -10.317228      -280.7460 
  16   2.0000     -10.317216      -280.7457 
  17   2.0000     -10.301751      -280.3249 
  18   2.0000     -10.301747      -280.3248 
  19   2.0000     -10.301705      -280.3236 
  20   2.0000     -10.301694      -280.3234 
  21   2.0000     -10.298175      -280.2276 
  22   2.0000     -10.298166      -280.2274 
  23   2.0000     -10.298157      -280.2271 
  24   2.0000     -10.298123      -280.2262 
  25   2.0000     -10.284376      -279.8521 
  26   2.0000     -10.284370      -279.8519 
  27   2.0000     -10.284346      -279.8513 
  28   2.0000     -10.284333      -279.8509 
  29   2.0000     -10.284203      -279.8474 
  30   2.0000     -10.284196      -279.8472 
  31   2.0000     -10.284184      -279.8469 
  32   2.0000     -10.284180      -279.8468 
  33   2.0000     -10.283850      -279.8378 
  34   2.0000     -10.283849      -279.8378 
  35   2.0000     -10.283828      -279.8372 
  36   2.0000     -10.283819      -279.8369 
  37   2.0000     -10.283601      -279.8310 
  38   2.0000     -10.283600      -279.8310 
  39   2.0000     -10.283579      -279.8304 
  40   2.0000     -10.283579      -279.8304 
  41   2.0000     -10.283089      -279.8171 
  42   2.0000     -10.283088      -279.8171 
  43   2.0000     -10.283071      -279.8166 
  44   2.0000     -10.283063      -279.8164 
  45   2.0000     -10.278871      -279.7023 
  46   2.0000     -10.278866      -279.7022 
  47   2.0000     -10.278847      -279.7016 
  48   2.0000     -10.278838      -279.7014 
  49   2.0000     -10.278094      -279.6812 
  50   2.0000     -10.278089      -279.6810 
  51   2.0000     -10.278070      -279.6805 
  52   2.0000     -10.278061      -279.6803 
  53   2.0000      -4.133400      -112.4755 
  54   2.0000      -2.735457       -74.4356 
  55   2.0000      -2.735449       -74.4354 
  56   2.0000      -2.677604       -72.8613 
  57   2.0000      -1.093807       -29.7640 
  58   2.0000      -1.082703       -29.4619 
  59   2.0000      -1.082695       -29.4616 
  60   2.0000      -1.070775       -29.1373 
  61   2.0000      -0.992653       -27.0115 
  62   2.0000      -0.987982       -26.8844 
  63   2.0000      -0.987981       -26.8843 
  64   2.0000      -0.986135       -26.8341 
  65   2.0000      -0.949460       -25.8361 
  66   2.0000      -0.930100       -25.3093 
  67   2.0000      -0.930091       -25.3091 
  68   2.0000      -0.911311       -24.7980 
  69   2.0000      -0.891995       -24.2724 
  70   2.0000      -0.891738       -24.2654 
  71   2.0000      -0.891725       -24.2651 
  72   2.0000      -0.884783       -24.0762 
  73   2.0000      -0.867310       -23.6007 
  74   2.0000      -0.867127       -23.5957 
  75   2.0000      -0.867122       -23.5956 
  76   2.0000      -0.867046       -23.5935 
  77   2.0000      -0.862285       -23.4640 
  78   2.0000      -0.854469       -23.2513 
  79   2.0000      -0.854467       -23.2512 
  80   2.0000      -0.836008       -22.7489 
  81   2.0000      -0.829353       -22.5678 
  82   2.0000      -0.775066       -21.0906 
  83   2.0000      -0.775056       -21.0904 
  84   2.0000      -0.733613       -19.9626 
  85   2.0000      -0.720708       -19.6115 
  86   2.0000      -0.719954       -19.5910 
  87   2.0000      -0.719949       -19.5908 
  88   2.0000      -0.719165       -19.5695 
  89   2.0000      -0.714799       -19.4507 
  90   2.0000      -0.714787       -19.4503 
  91   2.0000      -0.707800       -19.2602 
  92   2.0000      -0.707613       -19.2551 
  93   2.0000      -0.694362       -18.8945 
  94   2.0000      -0.674277       -18.3480 
  95   2.0000      -0.674270       -18.3478 
  96   2.0000      -0.662419       -18.0253 
  97   2.0000      -0.657913       -17.9027 
  98   2.0000      -0.653866       -17.7926 
  99   2.0000      -0.637165       -17.3381 
 100   2.0000      -0.637160       -17.3380 
 101   2.0000      -0.630102       -17.1459 
 102   2.0000      -0.625089       -17.0095 
 103   2.0000      -0.623116       -16.9559 
 104   2.0000      -0.623109       -16.9557 
 105   2.0000      -0.607907       -16.5420 
 106   2.0000      -0.594970       -16.1900 
 107   2.0000      -0.594962       -16.1897 
 108   2.0000      -0.567253       -15.4357 
 109   2.0000      -0.566959       -15.4277 
 110   2.0000      -0.562883       -15.3168 
 111   2.0000      -0.562879       -15.3167 
 112   2.0000      -0.561101       -15.2683 
 113   2.0000      -0.554195       -15.0804 
 114   2.0000      -0.554192       -15.0803 
 115   2.0000      -0.552003       -15.0208 
 116   2.0000      -0.544172       -14.8077 
 117   2.0000      -0.536070       -14.5872 
 118   2.0000      -0.527637       -14.3577 
 119   2.0000      -0.527590       -14.3565 
 120   2.0000      -0.527577       -14.3561 
 121   2.0000      -0.524480       -14.2718 
 122   2.0000      -0.522768       -14.2252 
 123   2.0000      -0.522764       -14.2251 
 124   2.0000      -0.521318       -14.1858 
 125   2.0000      -0.520560       -14.1652 
 126   2.0000      -0.519154       -14.1269 
 127   2.0000      -0.519146       -14.1267 
 128   2.0000      -0.510038       -13.8788 
 129   2.0000      -0.502710       -13.6794 
 130   2.0000      -0.502707       -13.6793 
 131   2.0000      -0.501716       -13.6524 
 132   2.0000      -0.495962       -13.4958 
 133   2.0000      -0.493646       -13.4328 
 134   2.0000      -0.492864       -13.4115 
 135   2.0000      -0.486519       -13.2389 
 136   2.0000      -0.479143       -13.0381 
 137   2.0000      -0.479134       -13.0379 
 138   2.0000      -0.475358       -12.9351 
 139   2.0000      -0.465723       -12.6730 
 140   2.0000      -0.465718       -12.6728 
 141   2.0000      -0.452088       -12.3019 
 142   2.0000      -0.446617       -12.1531 
 143   2.0000      -0.444588       -12.0978 
 144   2.0000      -0.443768       -12.0755 
 145   2.0000      -0.442478       -12.0404 
 146   2.0000      -0.442460       -12.0400 
 147   2.0000      -0.440661       -11.9910 
 148   2.0000      -0.440650       -11.9907 
 149   2.0000      -0.439829       -11.9684 
 150   2.0000      -0.438668       -11.9368 
 151   2.0000      -0.417853       -11.3703 
 152   2.0000      -0.417661       -11.3651 
 153   2.0000      -0.417653       -11.3649 
 154   2.0000      -0.406415       -11.0591 
 155   2.0000      -0.391571       -10.6552 
 156   2.0000      -0.391562       -10.6549 
 157   2.0000      -0.375099       -10.2070 
 158   2.0000      -0.375091       -10.2067 
 159   2.0000      -0.361038        -9.8244 
 160   2.0000      -0.349997        -9.5239 
 161   2.0000      -0.347612        -9.4590 
 162   2.0000      -0.346280        -9.4227 
 163   2.0000      -0.346183        -9.4201 
 164   2.0000      -0.346145        -9.4191 
 165   2.0000      -0.345980        -9.4146 
 166   2.0000      -0.341060        -9.2807 
 167   2.0000      -0.341039        -9.2801 
 168   2.0000      -0.340300        -9.2600 
 169   2.0000      -0.338971        -9.2239 
 170   2.0000      -0.324419        -8.8279 
 171   2.0000      -0.324416        -8.8278 
 172   2.0000      -0.260210        -7.0807 
 173   2.0000      -0.258990        -7.0475 
 174   0.0000      -0.039659        -1.0792 
 175   0.0000      -0.039652        -1.0790 
 176   0.0000       0.025806         0.7022 
 177   0.0000       0.041684         1.1343 
 178   0.0000       0.055563         1.5119 
 179   0.0000       0.056758         1.5445 
 180   0.0000       0.056773         1.5449 
 181   0.0000       0.057906         1.5757 
 182   0.0000       0.058642         1.5957 
 183   0.0000       0.059146         1.6094 
 184   0.0000       0.060370         1.6427 
*Only the first 10 virtual orbitals were printed.

                    ********************************
                    * MULLIKEN POPULATION ANALYSIS *
                    ********************************

-----------------------
MULLIKEN ATOMIC CHARGES
-----------------------
   0 N :   -0.165920
   1 H :    0.179571
   2 C :   -0.264532
   3 C :   -0.263602
   4 N :   -0.166147
   5 C :   -0.226390
   6 H :    0.179470
   7 C :    0.235924
   8 N :   -0.166073
   9 C :   -0.225017
  10 C :    0.027915
  11 C :    0.183948
  12 N :   -0.165556
  13 C :   -0.226639
  14 C :    0.234568
  15 C :    0.185456
  16 C :    0.184810
  17 C :    0.236023
  18 C :   -0.226238
  19 C :    0.030589
  20 C :    0.033055
  21 C :   -0.263586
  22 C :    0.182091
  23 C :   -0.265243
  24 C :    0.031909
  25 C :    0.236379
  26 H :    0.179815
  27 H :    0.179556
  28 H :    0.179447
  29 H :    0.179664
  30 H :    0.179611
  31 H :    0.179710
  32 Ni:   -0.114612
  33 C :   -0.008627
  34 C :   -0.231324
  35 C :   -0.141844
  36 C :   -0.124370
  37 C :   -0.154320
  38 C :   -0.200752
  39 H :    0.152581
  40 H :    0.144263
  41 H :    0.145917
  42 H :    0.144017
  43 H :    0.150664
  44 C :   -0.007207
  45 C :   -0.202452
  46 C :   -0.153717
  47 C :   -0.124916
  48 C :   -0.140900
  49 C :   -0.233178
  50 H :    0.150737
  51 H :    0.144071
  52 H :    0.145925
  53 H :    0.144284
  54 H :    0.152771
  55 C :   -0.004646
  56 C :   -0.236581
  57 C :   -0.139609
  58 C :   -0.125896
  59 C :   -0.151930
  60 C :   -0.205241
  61 H :    0.153003
  62 H :    0.144200
  63 H :    0.145888
  64 H :    0.144085
  65 H :    0.150899
  66 C :   -0.006377
  67 C :   -0.204051
  68 C :   -0.152664
  69 C :   -0.125581
  70 C :   -0.140415
  71 C :   -0.234647
  72 H :    0.150806
  73 H :    0.144111
  74 H :    0.145926
  75 H :    0.144265
  76 H :    0.152877
Sum of atomic charges:   -0.0000000

--------------------------------
MULLIKEN REDUCED ORBITAL CHARGES
--------------------------------
  0 N s       :     3.591234  s :     3.591234
      pz      :     1.377055  p :     3.500120
      px      :     1.092378
      py      :     1.030687
      dz2     :     0.005278  d :     0.070643
      dxz     :     0.009054
      dyz     :     0.014140
      dx2y2   :     0.019746
      dxy     :     0.022425
      f0      :     0.000692  f :     0.003923
      f+1     :     0.000438
      f-1     :     0.000458
      f+2     :     0.000169
      f-2     :     0.000606
      f+3     :     0.000602
      f-3     :     0.000958

  1 H s       :     0.797907  s :     0.797907
      pz      :     0.004741  p :     0.022522
      px      :     0.008765
      py      :     0.009015

  2 C s       :     3.255241  s :     3.255241
      pz      :     0.987647  p :     2.917290
      px      :     0.942357
      py      :     0.987286
      dz2     :     0.005585  d :     0.084245
      dxz     :     0.009632
      dyz     :     0.020192
      dx2y2   :     0.018515
      dxy     :     0.030321
      f0      :     0.001447  f :     0.007755
      f+1     :     0.000733
      f-1     :     0.000749
      f+2     :     0.000919
      f-2     :     0.000525
      f+3     :     0.002256
      f-3     :     0.001127

  3 C s       :     3.254995  s :     3.254995
      pz      :     0.986943  p :     2.916613
      px      :     0.985555
      py      :     0.944115
      dz2     :     0.007055  d :     0.084238
      dxz     :     0.018618
      dyz     :     0.009770
      dx2y2   :     0.018590
      dxy     :     0.030205
      f0      :     0.001296  f :     0.007755
      f+1     :     0.000962
      f-1     :     0.000744
      f+2     :     0.000799
      f-2     :     0.000589
      f+3     :     0.001200
      f-3     :     0.002165

  4 N s       :     3.591349  s :     3.591349
      pz      :     1.368465  p :     3.500217
      px      :     1.037827
      py      :     1.093925
      dz2     :     0.005842  d :     0.070657
      dxz     :     0.013751
      dyz     :     0.009397
      dx2y2   :     0.019557
      dxy     :     0.022111
      f0      :     0.000653  f :     0.003924
      f+1     :     0.000494
      f-1     :     0.000431
      f+2     :     0.000201
      f-2     :     0.000612
      f+3     :     0.000922
      f-3     :     0.000611

  5 C s       :     3.225915  s :     3.225915
      pz      :     0.985197  p :     2.907963
      px      :     1.000909
      py      :     0.921856
      dz2     :     0.006468  d :     0.084739
      dxz     :     0.016886
      dyz     :     0.012295
      dx2y2   :     0.021208
      dxy     :     0.027881
      f0      :     0.001323  f :     0.007773
      f+1     :     0.001031
      f-1     :     0.000634
      f+2     :     0.001137
      f-2     :     0.000311
      f+3     :     0.001316
      f-3     :     0.002022

  6 H s       :     0.797836  s :     0.797836
      pz      :     0.004574  p :     0.022693
      px      :     0.006861
      py      :     0.011259

  7 C s       :     3.146404  s :     3.146404
      pz      :     0.929881  p :     2.438069
      px      :     0.836806
      py      :     0.671383
      dz2     :     0.010540  d :     0.164826
      dxz     :     0.031429
      dyz     :     0.030481
      dx2y2   :     0.050031
      dxy     :     0.042346
      f0      :     0.001828  f :     0.014776
      f+1     :     0.001163
      f-1     :     0.001578
      f+2     :     0.001116
      f-2     :     0.002228
      f+3     :     0.003620
      f-3     :     0.003242

  8 N s       :     3.591329  s :     3.591329
      pz      :     1.362887  p :     3.500166
      px      :     1.041760
      py      :     1.095519
      dz2     :     0.006424  d :     0.070655
      dxz     :     0.013717
      dyz     :     0.009500
      dx2y2   :     0.019245
      dxy     :     0.021769
      f0      :     0.000610  f :     0.003924
      f+1     :     0.000509
      f-1     :     0.000455
      f+2     :     0.000247
      f-2     :     0.000610
      f+3     :     0.000913
      f-3     :     0.000580

  9 C s       :     3.224529  s :     3.224529
      pz      :     0.978825  p :     2.907993
      px      :     1.001728
      py      :     0.927440
      dz2     :     0.009300  d :     0.084723
      dxz     :     0.015425
      dyz     :     0.011262
      dx2y2   :     0.020141
      dxy     :     0.028595
      f0      :     0.001079  f :     0.007772
      f+1     :     0.001147
      f-1     :     0.000828
      f+2     :     0.001030
      f-2     :     0.000398
      f+3     :     0.001289
      f-3     :     0.002002

 10 C s       :     3.335940  s :     3.335940
      pz      :     0.929075  p :     2.499353
      px      :     0.763578
      py      :     0.806699
      dz2     :     0.005735  d :     0.126969
      dxz     :     0.024501
      dyz     :     0.023860
      dx2y2   :     0.026804
      dxy     :     0.046069
      f0      :     0.001462  f :     0.009823
      f+1     :     0.000859
      f-1     :     0.000992
      f+2     :     0.000991
      f-2     :     0.001210
      f+3     :     0.002640
      f-3     :     0.001670

 11 C s       :     3.184351  s :     3.184351
      pz      :     0.948802  p :     2.452303
      px      :     0.853648
      py      :     0.649853
      dz2     :     0.010659  d :     0.164597
      dxz     :     0.030059
      dyz     :     0.031030
      dx2y2   :     0.049130
      dxy     :     0.043719
      f0      :     0.001754  f :     0.014800
      f+1     :     0.001072
      f-1     :     0.001778
      f+2     :     0.001486
      f-2     :     0.001903
      f+3     :     0.002179
[...]
  0-1A  -> 16-1A    4.225610   34081.8   293.4   0.000000041   0.00000  -0.00007   0.00006   0.00003
  0-1A  -> 17-1A    4.487881   36197.2   276.3   0.052700841   0.01304  -0.11345   0.01288   0.00071
  0-1A  -> 18-1A    4.488114   36199.1   276.3   0.052696919   0.01304  -0.01273  -0.11295   0.01083
  0-1A  -> 19-1A    4.884505   39396.2   253.8   0.012675123   0.00341  -0.00042  -0.00632  -0.05808
  0-1A  -> 20-1A    4.921265   39692.7   251.9   0.040091902   0.01088  -0.00124   0.01072   0.10373
  0-1A  -> 21-1A    5.110937   41222.5   242.6   0.000387366   0.00011   0.00392  -0.00963   0.00097
  0-1A  -> 22-1A    5.192504   41880.4   238.8   0.232560358   0.06657  -0.22447  -0.12624   0.01563
  0-1A  -> 23-1A    5.192915   41883.7   238.8   0.232145504   0.06645  -0.12710   0.22344  -0.01926
  0-1A  -> 24-1A    5.235184   42224.6   236.8   0.002385444   0.00069  -0.02273  -0.01303   0.00145
  0-1A  -> 25-1A    5.246568   42316.4   236.3   0.094577313   0.02735   0.06310  -0.15230   0.01324
  0-1A  -> 26-1A    5.246818   42318.4   236.3   0.091905936   0.02658   0.15079   0.06144  -0.00842
  0-1A  -> 27-1A    5.271519   42517.7   235.2   0.001511747   0.00044  -0.00358   0.00034  -0.02065
  0-1A  -> 28-1A    5.352888   43174.0   231.6   0.000317137   0.00009   0.00046  -0.00005  -0.00966
  0-1A  -> 29-1A    5.379222   43386.4   230.5   0.000021519   0.00001  -0.00170  -0.00182   0.00042
  0-1A  -> 30-1A    5.379933   43392.1   230.5   0.000030635   0.00001  -0.00177   0.00175   0.00170

------------------------------------------------------------------------------------------
                     CD SPECTRUM VIA TRANSITION ELECTRIC DIPOLE MOMENTS    
------------------------------------------------------------------------------------------
     Transition      Energy     Energy  Wavelength    R        MX        MY        MZ   
                      (eV)      (cm-1)    (nm)   (1e40*cgs)   (au)      (au)      (au)  
------------------------------------------------------------------------------------------
  0-1A  ->  1-1A    1.718062   13857.1   721.7    0.00090   0.00043  -0.00009   0.00078
  0-1A  ->  2-1A    1.933441   15594.3   641.3    0.13344   0.52353  -0.17838   0.01022
  0-1A  ->  3-1A    1.934235   15600.7   641.0   -0.13389  -0.17849  -0.52113   0.05234
  0-1A  ->  4-1A    2.217180   17882.8   559.2    0.31169  -0.01149   0.00468   0.00041
  0-1A  ->  5-1A    2.217378   17884.4   559.1   -0.30561  -0.00452  -0.01143   0.00140
  0-1A  ->  6-1A    2.487952   20066.7   498.3   -0.00685   0.01348   0.08714   0.90989
  0-1A  ->  7-1A    3.232556   26072.3   383.5  -497.99144  -0.23379  -0.08903   0.01394
  0-1A  ->  8-1A    3.232646   26073.1   383.5  497.68303   0.09222  -0.23281   0.02203
  0-1A  ->  9-1A    3.379582   27258.2   366.9    0.01554   0.00459   0.02574   0.25514
  0-1A  -> 10-1A    3.620724   29203.1   342.4   -0.00092   0.00140   0.00590   0.06359
  0-1A  -> 11-1A    3.726756   30058.3   332.7   -0.02591  -0.01790  -0.10535  -1.10069
  0-1A  -> 12-1A    3.811040   30738.1   325.3   -0.00624   0.00049  -0.00055   0.00111
  0-1A  -> 13-1A    3.963323   31966.4   312.8    0.00303  -0.00010   0.00003   0.00031
  0-1A  -> 14-1A    4.125789   33276.7   300.5    1.06820   0.02207  -0.05895   0.00494
  0-1A  -> 15-1A    4.126069   33279.0   300.5   -1.06868  -0.05910  -0.02190   0.00252
  0-1A  -> 16-1A    4.225610   34081.8   293.4   -0.00078  -0.00013  -0.00089  -0.00797
  0-1A  -> 17-1A    4.487881   36197.2   276.3  -65.72715   0.21244   0.09361  -0.01284
  0-1A  -> 18-1A    4.488114   36199.1   276.3   65.75166   0.09438  -0.21169   0.01905
  0-1A  -> 19-1A    4.884505   39396.2   253.8   -0.02343   0.00020  -0.00092   0.00025
  0-1A  -> 20-1A    4.921265   39692.7   251.9   -0.14239  -0.00150   0.00137  -0.00068
  0-1A  -> 21-1A    5.110937   41222.5   242.6    0.10044   0.00353   0.00274   0.05368
  0-1A  -> 22-1A    5.192504   41880.4   238.8  -66.01668   0.10401   0.02437  -0.01260
  0-1A  -> 23-1A    5.192915   41883.7   238.8   65.77962  -0.02674   0.10294  -0.00665
  0-1A  -> 24-1A    5.235184   42224.6   236.8   -0.35055   0.02023   0.02801   0.47032
  0-1A  -> 25-1A    5.246568   42316.4   236.3   23.96708  -0.10967  -0.10942   0.00506
  0-1A  -> 26-1A    5.246818   42318.4   236.3  -23.53347  -0.10776   0.11527   0.05554
  0-1A  -> 27-1A    5.271519   42517.7   235.2    0.08682   0.00515   0.00114  -0.00263
  0-1A  -> 28-1A    5.352888   43174.0   231.6   -0.01471  -0.00199   0.00165   0.00057
  0-1A  -> 29-1A    5.379222   43386.4   230.5   -0.14956  -0.01466   0.03586  -0.00619
  0-1A  -> 30-1A    5.379933   43392.1   230.5    0.11662  -0.03705  -0.01671  -0.00571

------------------------------------------------------------------------------------------
                     CD SPECTRUM VIA TRANSITION VELOCITY DIPOLE MOMENTS    
------------------------------------------------------------------------------------------
     Transition      Energy     Energy  Wavelength    R        MX        MY        MZ   
                      (eV)      (cm-1)    (nm)   (1e40*cgs)   (au)      (au)      (au)  
------------------------------------------------------------------------------------------
  0-1A  ->  1-1A    1.718062   13857.1   721.7    0.00131   0.00043  -0.00009   0.00078
  0-1A  ->  2-1A    1.933441   15594.3   641.3    0.90701   0.52353  -0.17838   0.01022
  0-1A  ->  3-1A    1.934235   15600.7   641.0   -0.90443  -0.17849  -0.52113   0.05234
  0-1A  ->  4-1A    2.217180   17882.8   559.2    0.28815  -0.01149   0.00468   0.00041
  0-1A  ->  5-1A    2.217378   17884.4   559.1   -0.28214  -0.00452  -0.01143   0.00140
  0-1A  ->  6-1A    2.487952   20066.7   498.3   -0.00429   0.01348   0.08714   0.90989
  0-1A  ->  7-1A    3.232556   26072.3   383.5  -497.06337  -0.23379  -0.08903   0.01394
  0-1A  ->  8-1A    3.232646   26073.1   383.5  496.75704   0.09222  -0.23281   0.02203
  0-1A  ->  9-1A    3.379582   27258.2   366.9    0.01572   0.00459   0.02574   0.25514
  0-1A  -> 10-1A    3.620724   29203.1   342.4   -0.00093   0.00140   0.00590   0.06359
  0-1A  -> 11-1A    3.726756   30058.3   332.7   -0.02450  -0.01790  -0.10535  -1.10069
  0-1A  -> 12-1A    3.811040   30738.1   325.3   -0.00461   0.00049  -0.00055   0.00111
  0-1A  -> 13-1A    3.963323   31966.4   312.8    0.00257  -0.00010   0.00003   0.00031
  0-1A  -> 14-1A    4.125789   33276.7   300.5    1.02355   0.02207  -0.05895   0.00494
  0-1A  -> 15-1A    4.126069   33279.0   300.5   -1.02396  -0.05910  -0.02190   0.00252
  0-1A  -> 16-1A    4.225610   34081.8   293.4   -0.00082  -0.00013  -0.00089  -0.00797
  0-1A  -> 17-1A    4.487881   36197.2   276.3  -65.47555   0.21244   0.09361  -0.01284
  0-1A  -> 18-1A    4.488114   36199.1   276.3   65.49877   0.09438  -0.21169   0.01905
  0-1A  -> 19-1A    4.884505   39396.2   253.8   -0.02327   0.00020  -0.00092   0.00025
  0-1A  -> 20-1A    4.921265   39692.7   251.9   -0.14087  -0.00150   0.00137  -0.00068
  0-1A  -> 21-1A    5.110937   41222.5   242.6    0.09963   0.00353   0.00274   0.05368
  0-1A  -> 22-1A    5.192504   41880.4   238.8  -65.77098   0.10401   0.02437  -0.01260
  0-1A  -> 23-1A    5.192915   41883.7   238.8   65.53449  -0.02674   0.10294  -0.00665
  0-1A  -> 24-1A    5.235184   42224.6   236.8   -0.35016   0.02023   0.02801   0.47032
  0-1A  -> 25-1A    5.246568   42316.4   236.3   23.99096  -0.10967  -0.10942   0.00506
  0-1A  -> 26-1A    5.246818   42318.4   236.3  -23.55607  -0.10776   0.11527   0.05554
  0-1A  -> 27-1A    5.271519   42517.7   235.2    0.08844   0.00515   0.00114  -0.00263
  0-1A  -> 28-1A    5.352888   43174.0   231.6   -0.01547  -0.00199   0.00165   0.00057
  0-1A  -> 29-1A    5.379222   43386.4   230.5   -0.10234  -0.01466   0.03586  -0.00619
  0-1A  -> 30-1A    5.379933   43392.1   230.5    0.06351  -0.03705  -0.01671  -0.00571

Total run time:    48549.512 sec

           *** ORCA-CIS/TD-DFT FINISHED WITHOUT ERROR ***
-----------------------
CIS/TD-DFT TOTAL ENERGY
-----------------------

    E(SCF)  =  -3421.110592180 Eh
    DE(CIS) =      0.063137616 Eh (Root  1)
    ----------------------------- ---------
    E(tot)  =  -3421.047454564 Eh


Maximum memory used throughout the entire CIS-calculation: 2566.9 MB
=> NOW LEAVING ORCA_CIS


-------------------------------------------------------------------------------
                          DFT DISPERSION CORRECTION                            
                                                                               
                              DFTD3 V3.1  Rev 1                                
                              USING zero damping                               
-------------------------------------------------------------------------------
The omegaB97X-D3 functional is recognized. Fit by Chai et al.
Active option DFTDOPT                   ...         3   

molecular C6(AA) [au] = 87120.761560 


            DFT-D V3
 parameters
 s6 scaling factor         :     1.0000 
 rs6 scaling factor        :     1.2810 
 s8 scaling factor         :     1.0000 
 rs8 scaling factor        :     1.0940 
 Damping factor alpha6     :    14.0000 
 Damping factor alpha8     :    16.0000 
 ad hoc parameters k1-k3   :    16.0000     1.3333    -4.0000 

 Edisp/kcal,au: -29.223352375367  -0.046570371390 
 E6   /kcal   : -14.312643636 
 E8   /kcal   : -14.910708739 
 % E8         :  51.023265734 

-------------------------   ----------------
Dispersion correction           -0.046570371
-------------------------   ----------------


-------------------------   --------------------
FINAL SINGLE POINT ENERGY     -3421.094024935844
-------------------------   --------------------



           ************************************************************
           *        Program running with 8 parallel MPI-processes     *
           *              working on a common directory               *
           ************************************************************

------------------------------------------------------------------------------
                              ORCA PROPERTY CALCULATIONS
------------------------------------------------------------------------------

GBWName                                 ... tddft.gbw
Number of atoms                         ...     77
Number of basis functions               ...   1701
Max core memory                         ...   3000 MB

Electric properties:
Dipole moment                           ... YES
Quadrupole moment                       ...  NO
Static polarizability (Dipole/Dipole)   ...  NO
Static polarizability (Dipole/Quad.)    ...  NO
Static polarizability (Quad./Quad.)     ...  NO
Static polarizability (Velocity)        ...  NO
Static hyperpolarizability              ...  NO

Atomic electric properties:
Dipole moment                           ...  NO
Quadrupole moment                       ...  NO
Static polarizability                   ...  NO

Choice of electric origin               ... Center of mass
Position of electric origin             ...    -0.159814     5.089039     6.549058

General magnetic properties:
Magnetizability                         ...  NO

EPR properties:
g-Tensor (aka g-matrix)                 ...  NO
Zero-Field splitting spin-orbit         ...  NO
Zero-field splitting spin-spin          ...  NO
Hyperfine couplings                     ...  NO (   0 nuclei)
Quadrupole couplings                    ...  NO (   0 nuclei)
Contact density                         ...  NO (   0 nuclei)

NMR properties:
Chemical shifts                         ...  NO (   0 nuclei)
Spin-rotation constants                 ...  NO (   0 nuclei)
Spin-spin couplings                     ...  NO (   0 nuclei,    0 pairs)

Choice of magnetic origin               ... GIAO
Position of magnetic origin             ...     0.000000     0.000000     0.000000

Properties with geometric perturbations:
SCF Hessian                             ...  NO
IR spectrum                             ...  NO
VCD spectrum                            ...  NO
X-ray spectroscopy properties:
SCF XES/XAS/RIXS spectra                ...  NO

SCF SOC stabilization energy            ...  NO
Diagonal Born-Oppenheimer correction    ...  NO

-------------
DIPOLE MOMENT
-------------

Method             : SCF
Type of density    : Electron Density
Multiplicity       :   1
Irrep              :   0
Energy             : -3421.1105921803837191 Eh
Basis              : AO
                                X                 Y                 Z
Electronic contribution:     -0.005498178       0.003113611       0.042037179
Nuclear contribution   :      0.005414661      -0.002778073      -0.045013959
                        -----------------------------------------
Total Dipole Moment    :     -0.000083517       0.000335538      -0.002976780
                        -----------------------------------------
Magnitude (a.u.)       :      0.002996795
Magnitude (Debye)      :      0.007617247



--------------------
Rotational spectrum 
--------------------
 
Rotational constants in cm-1:             0.001955             0.001954             0.001054 
Rotational constants in MHz :            58.611694            58.584940            31.604966 

Dipole components along the rotational axes: 
x,y,z [a.u.] :    -0.000291     0.000545    -0.002933 
x,y,z [Debye]:    -0.000739     0.001384    -0.007454 

 

Dipole moment calculation done in   0.8 sec 

Maximum memory used throughout the entire PROP-calculation: 235.5 MB

--------------------------------
SUGGESTED CITATIONS FOR THIS RUN
--------------------------------

Below you find a list of papers that are relevant to this ORCA run
We neither can nor want to force you to cite these papers, but we appreciate if you do
You receive ORCA, which is the product of decades of hard work by many enthusiastic individuals, for free
The only thing we kindly ask in return is that you cite our papers,
We deeply appreciate it, if you show your appreciation for ORCA by not just citing the generic ORCA reference.

Please note that relegating all ORCA citations to the supporting information does *not* help us.
SI sections are not indexed - citations you put there will not count into any citation statistics
But we need these citations in order to attract the funding resources that allow us to do what we are doing

Therefore, if you are a happy ORCA user, please consider citing a few of the papers listed below in the main body of your paper

In addition to the list printed below, the program has created the file tddft.bibtex that contains the list in bibtex format
You can import this file easily into all common literature databanks and citation aid programs

It goes without saying that in many instances, there are alternative algorithms to achieve similar
results as the ones you have gotten from ORCA. It is, of course, also the case that in some instances
ORCA just re-implements algorithms worked out by others. We are fully aware of that and we are also
fully appreciative of our colleagues work. Hence this citation list should not be read as indicating
that the listed papers, which are focused on our own work, are the only ones worth citing. It simply
meant to make it easier for users to cite ORCA specific papers. It is not a substitute for doing your
own literature research and citing the relevant literature in a scientifically appropriate manner.

List of essential papers. We consider these as the minimum necessary citations

  1. Neese, F.
     Software update: the ORCA program system, version 6.0
     WIRES Comput. Molec. Sci. 2025 15(1), e70019
     doi.org/10.1002/wcms.70019

List of papers to cite with high priority. The work reported in these papers was absolutely
necessary for this run to complete.
Our perspective: the developers of density functionals and basis sets usually get cited in chemistry papers
Good! But without the algorithms to do something with them, the functionals or basis sets would not do anything.
Hence, in our opinion, the algorithm design and method developments papers are equally worthy of getting cited

  1. Neese, F.; Olbrich, G.
     Efficient use of the resolution of the identity approximation in time-dependent density functional calculations with hybrid density functionals
     Chem. Phys. Lett. 2002 362 , 170-178
     doi.org/10.1016/s0009-2614(02)01053-9
  2. Neese, F.
     An improvement of the resolution of the identity approximation for the formation of the Coulomb matrix
     J. Comp. Chem. 2003 24(14), 1740-1747
     doi.org/10.1002/jcc.10318
  3. Neese, F.; Wennmohs, F.; Hansen, A.; Becker, U.
     Efficient, approximate and parallel Hartree-Fock and hybrid DFT calculations. A 'chain-of-spheres' algorithm for the Hartree-Fock exchange
     Chem. Phys. 2009 356(1-3), 98-109
     doi.org/10.1016/j.chemphys.2008.10.036
  4. Grimme, S.; Antony, J.; Ehrlich, S.; Krieg, H.
     A consistent and accurate ab initio parametrization of density functional dispersion correction (DFT-D) for the 94 elements H-Pu
     J. Chem. Phys. 2010 132 , 154104
     doi.org/10.1063/1.3382344
  5. Garcia-Rates, M.; Neese, F.
     Effect of the Solute Cavity on the Solvation Energy and its Derivatives within the Framework of the Gaussian Charge Scheme
     J. Comput. Chem. 2020 41 , 922-939
     doi.org/10.1002/jcc.26139
  6. Helmich-Paris, B.; de Souza, B.; Neese, F.; Izsák, R.
     An improved chain of spheres for exchange algorithm
     J. Chem. Phys. 2021 155(10), 104109
     doi.org/10.1063/5.0058766
  7. Neese, F.
     The SHARK Integral Generation and Digestion System
     J. Comp. Chem. 2022 44(3), 381
     doi.org/10.1002/jcc.26942

List of suggested additional citations. These are papers that are important in the 'surrounding' of 
of this run, or papers that preceded the highly important papers. If you like your results we are grateful for a citation.

  1. Izsak, R.; Neese, F.
     An overlap fitted chain of spheres exchange method
     J. Chem. Phys. 2011 135 , 144105
     doi.org/10.1063/1.3646921
  2. Izsak, R.; Hansen, A.; Neese, F.
     The resolution of identity and chain of spheres approximations for the LPNO-CCSD singles Fock term
     Molec. Phys. 2012 110 , 2413-2417
     doi.org/10.1080/00268976.2012.687466
  3. Neese, F.
     The ORCA program system
     WIRES Comput. Molec. Sci. 2012 2(1), 73-78
     doi.org/10.1002/wcms.81
  4. Izsak, R.; Neese, F.; Klopper, W.
     Robust fitting techniques in the chain of spheres approximation to the Fock exchange: The role of the complementary space
     J. Chem. Phys. 2013 139 , 
     doi.org/10.1063/1.4819264
  5. Neese, F.
     Software update: the ORCA program system, version 4.0
     WIRES Comput. Molec. Sci. 2018 8(1), 1-6
     doi.org/10.1002/wcms.1327
  6. Neese, F.; Wennmohs, F.; Becker, U.; Riplinger, C.
     The ORCA quantum chemistry program package
     J. Chem. Phys. 2020 152(22), 224108
     doi.org/10.1063/5.0004608
  7. Neese, F.
     Software update: The ORCA program system—Version 5.0
     WIRES Comput. Molec. Sci. 2022 12(1), e1606
     doi.org/10.1002/wcms.1606

List of optional additional citations

  1. Neese, F.
     Approximate second-order SCF convergence for spin unrestricted wavefunctions
     Chem. Phys. Lett. 2000 325(1-3), 93-98
     doi.org/10.1016/s0009-2614(00)00662-x

Timings for individual modules:

Sum of individual times          ...    53912.980 sec (= 898.550 min)
Startup calculation              ...       78.267 sec (=   1.304 min)   0.1 %
SCF iterations                   ...     5268.649 sec (=  87.811 min)   9.8 %
Property integrals               ...       10.763 sec (=   0.179 min)   0.0 %
Property calculations            ...        3.935 sec (=   0.066 min)   0.0 %
CIS module                       ...    48551.366 sec (= 809.189 min)  90.1 %
                             ****ORCA TERMINATED NORMALLY****
TOTAL RUN TIME: 0 days 14 hours 58 minutes 33 seconds 795 msec
