
                                 *****************
                                 * O   R   C   A *
                                 *****************

                                            #,                                       
                                            ###                                      
                                            ####                                     
                                            #####                                    
                                            ######                                   
                                           ########,                                 
                                     ,,################,,,,,                         
                               ,,#################################,,                 
                          ,,##########################################,,             
                       ,#########################################, ''#####,          
                    ,#############################################,,   '####,        
                  ,##################################################,,,,####,       
                ,###########''''           ''''###############################       
              ,#####''   ,,,,##########,,,,          '''####'''          '####       
            ,##' ,,,,###########################,,,                        '##       
           ' ,,###''''                  '''############,,,                           
         ,,##''                                '''############,,,,        ,,,,,,###''
      ,#''                                            '''#######################'''  
     '                                                          ''''####''''         
             ,#######,   #######,   ,#######,      ##                                
            ,#'     '#,  ##    ##  ,#'     '#,    #''#        ,####,    ,#,          
            ##       ##  ##   ,#'  ##            #'  '#       #'       ,# #          
            ##       ##  #######   ##           ,######,      #####,      #          
            '#,     ,#'  ##    ##  '#,     ,#' ,#      #,     #,   #      #          
             '#######'   ##     ##  '#######'  #'      '#     '####' #    #          



                #########################################################
                #                        -***-                          #
                #          Department of theory and spectroscopy        #
                #                                                       #
                #                      Frank Neese                      #
                #                                                       #
                #     Directorship, Architecture, Infrastructure        #
                #                    SHARK, DRIVERS                     #
                #        Core code/Algorithms in most modules           #
                #                                                       #
                #        Max Planck Institute fuer Kohlenforschung      #
                #                Kaiser Wilhelm Platz 1                 #
                #                 D-45470 Muelheim/Ruhr                 #
                #                      Germany                          #
                #                                                       #
                #                  All rights reserved                  #
                #                        -***-                          #
                #########################################################


                         Program Version 6.1.1  -  RELEASE   -
                                (GIT: $487d211c$)
                          ($2025-11-21 10:33:24 +0100$)


 With contributions from (in alphabetic order):
[Max-Planck-Institut fuer Kohlenforschung]                               
  Daniel Aravena         : Magnetic Suceptibility                        
  Michael Atanasov       : Ab Initio Ligand Field Theory (pilot matlab implementation)
  Alexander A. Auer      : GIAO ZORA, VPT2 properties, NMR spectrum      
  Ute Becker             : All parallelization in ORCA, NUMFREQ, NUMCALC 
  Giovanni Bistoni       : ED, misc. LED, open-shell LED, HFLD           
  Dmytro Bykov           : pre 5.0 version of the SCF Hessian            
  Marcos Casanova-Páez   : Triplet and SCS-CIS(D). UHF-(DLPNO)-IP/EA/STEOM-CCSD. UHF-CVS-IP/STEOM-CCSD   
  Vijay G. Chilkuri      : MRCI spin determinant printing, contributions to CSF-ICE 
  Pauline Colinet        : FMM embedding                                 
  Dipayan Datta          : RHF DLPNO-CCSD density                        
  Achintya Kumar Dutta   : EOM-CC, STEOM-CC                              
  Nicolas Foglia         : Exact transition moments, OPA infrastructure, MCD improvements    
  Dmitry Ganyushin       : Spin-Orbit,Spin-Spin,Magnetic field MRCI      
  Miquel Garcia-Rates    : C-PCM and meta-GGA Hessian, CCSD/C-PCM, Gaussian charge scheme 
  Tiago L. C. Gouveia    : GS-ROHF, GS-ROCIS                             
  Yang Guo               : DLPNO-NEVPT2, F12-NEVPT2, CIM, IAO-localization        
  Andreas Hansen         : Spin unrestricted coupled pair/coupled cluster methods 
  Ingolf Harden          : AUTO-CI MPn and infrastructure                
  Benjamin Helmich-Paris : MC-RPA, TRAH-(SCF,CASSCF), AVAS, COSX integrals, SCF dyn. polar., MC-PDFT, srDFT 
  Lee Huntington         : MR-EOM, pCC                                   
  Robert Izsak           : Overlap fitted RIJCOSX, COSX-SCS-MP3, EOM     
  Riya Kayal             : Wick's Theorem for AUTO-CI, AUTO-CI UHF-CCSDT 
  Emily Kempfer          : AUTO-CI RHF CISDT and CCSDT, approximate NEVPT4
  Christian Kollmar      : KDIIS, OOCD, Brueckner-CCSD(T), CCSD density, CASPT2, CASPT2-K, improved NEVPT2 
  Axel Koslowski         : Symmetry handling                             
  Simone Kossmann        : meta-GGA functionals, TD-DFT gradient, OOMP2, (MP2 Hessian; deprecated post 5.0) 
  Lucas Lang             : DCDCAS, Hyperfine gauge corrections, ICE-SOC+SSC
  Marvin Lechner         : AUTO-CI (C++ implementation), FIC-MRCC        
  Spencer Leger          : CASSCF response                               
  Dagmar Lenk            : GEPOL surface, SMD, ORCA-2-JSON               
  Dimitrios Liakos       : Extrapolation schemes; Compound Job, Property file
  Dimitrios Manganas     : Further ROCIS development; embedding schemes. LFT, Crystal Embedding 
  Dimitrios Pantazis     : SARC Basis sets                               
  Anastasios Papadopoulos: AUTO-CI, single reference methods and gradients 
  Taras Petrenko         : pre 6.0 DFT Hessian and TD-DFT gradient,  ECA, NRVS 
  Petra Pikulova         : Analytic Raman intensities                    
  Peter Pinski           : DLPNO-MP2, DLPNO-MP2 Gradient                 
  Shashank Vittal Rao    : ES-AILFT, MagRelax                            
  Christoph Reimann      : Effective Core Potentials                     
  Marius Retegan         : Local ZFS, SOC                                
  Christoph Riplinger    : Optimizer, TS searches, QM/MM, DLPNO-CCSD(T), (RO)-DLPNO pert. Triples 
  Michael Roemelt        : Original ROCIS implementation, recursive CI coupling coefficients
  Masaaki Saitow         : Open-shell DLPNO-CCSD energy and density      
  Barbara Sandhoefer     : DKH picture change effects                    
  Yorick L. A. Schmerwitz: GMF and freeze-and-release deltaSCF, NEB S-IDPP initial path                    
  Kantharuban Sivalingam : CASSCF convergence/infrastructure, NEVPT2, NEVPT3, NEVPT4(SD), FIC-MRCI and CEPA variants
  Bernardo de Souza      : ESD, SOC TD-DFT                               
  Georgi L. Stoychev     : AutoAux, RI-MP2 NMR, DLPNO-MP2 response, X2C  
  Van Anh Tran           : RI-MP2 g-tensors                              
  Willem Van den Heuvel  : Paramagnetic NMR                              
  Zikuan Wang            : NOTCH, Electric field optimization            
  Frank Wennmohs         : Technical directorship and infrastructure     
  Hang Xu                : AUTO-CI-Response properties                   
                                                                         
[FACCTs GmbH]                                                            
  Markus Bursch, Nicolas Foglia, Miquel Garcia-Rates, Ingolf Harden, Hagen Neugebauer, Anastasios Papadopoulos, 
  Christoph Riplinger, Bernardo de Souza, Georgi L. Stoychev                                                    
                                                                 
  APM, various basis sets, CI-OPT, improved COSX, DLPNO-Multilevel,           
  DOCKER, DRACO, updates on ESD, Fragmentator, GOAT, IRC, LR-CPCM, L-BFGS, MBIS, meta-GGA TD-DFT gradient, ML-optimized integration grids, 
  MM, NACMEs, nearIR, NEB, NEB-TS, NL-DFT gradient (VV10), 2- and 3-layer-ONIOM, interface openCOSMO-RS, QMMM,   
  Crystal-QMMM, RESP, rigid body optimization, SF, symmetry and pop. for TD-DFT, various functionals, SOLVATOR                                   
                                                                         
[Other institutions]                                                     
  V. Asgeirsson          : NEB                                           
  Christoph Bannwarth    : sTDA-DFT, sTD-DFT, PBEh-3c, B97-3c, D3        
  Giovanni Bistoni       : ETS/NOCV, ADLD/ADEX, COVALED                  
  Martin Brehm           : Molecular dynamics                            
  Ronald Cardenas        : ETS/NOCV                                      
  Martina Colucci        : COVALED                                       
  Sebastian Ehlert       : rSCAN, r2SCAN, r2SCAN-3c, D4, dhf basis sets  
  Marvin Friede          : D4 for Fr, Ra, Ac-Lr                          
  Lars Goerigk           : TD-DFT with DH, B97 family of functionals     
  Stefan Grimme          : VdW corrections, initial TS optimization, DFT functionals, gCP, sTDA/sTD-DF 
  Waldemar Hujo          : DFT-NL                                        
  H. Jonsson             : NEB                                           
  Holger Kruse           : gCP                                           
  Marcel Mueller         : wB97X-3c, vDZP basis set                      
  Hagen Neugebauer       : wr2SCAN, Native XTB                           
  Gianluca Regni         : ADLD/ADEX                                     
  Tobias Risthaus        : pre 6.0 range-separated hybrid DFT and stability analysis
  Lukas Wittmann         : regularized MP2, r2SCAN double-hybrids, wr2SCAN        
                                                                         
We gratefully acknowledge several colleagues who have allowed us to      
interface, adapt or use parts of their codes:                            
  Ed Valeev, F. Pavosevic, A. Kumar             : LibInt (2-el integral package), F12 methods 
  Garnet Chan, S. Sharma, J. Yang, R. Olivares  : DMRG                   
  Ulf Ekstrom                                   : XCFun DFT Library      
  Mihaly Kallay                                 : mrcc  (arbitrary order and MRCC methods)
  Frank Weinhold                                : gennbo (NPA and NBO analysis)           
  Simon Mueller                                 : openCOSMO-RS                            
  Christopher J. Cramer and Donald G. Truhlar   : smd solvation model                     
  S Lehtola, MJT Oliveira, MAL Marques          : LibXC Library                           
  Liviu Ungur et al                             : ANISO software                          


 Your calculation uses the libint2 library for the computation of 2-el integrals
 For citations please refer to: http://libint.valeyev.net

 Your ORCA version has been built with support for libXC version: 7.0.0
 For citations please refer to: https://libxc.gitlab.io

 This ORCA versions uses:
   CBLAS   interface :  Fast vector & matrix operations
   LAPACKE interface :  Fast linear algebra routines
   SCALAPACK package :  Parallel linear algebra routines
   Shared memory     :  Shared parallel matrices
   BLAS/LAPACK       :  OpenBLAS 0.3.29  USE64BITINT DYNAMIC_ARCH NO_AFFINITY Haswell SINGLE_THREADED
        Core in use  :  Haswell
   Copyright (c) 2011-2014, The OpenBLAS Project


  ***********************************
  * Starting time: Thu Jun 18 22:21:37 2026
  * Host name:     steezy
  * Process ID:    4069579
  * Working dir.:  /home/jannes/metaltpp/nitpp/02_tddft_tda_comparison/runs/tdaoff_tpss
  ***********************************

NOTE: MaxCore=3000 MB was set to SCF,MP2,MDCI,CIPSI,MRCI,RASCI and CIS
      => If you want to overwrite this, your respective input block should be placed after the MaxCore statement


***************************************
The coordinates will be read from file: /home/jannes/metaltpp/nitpp/01_opt/nitpp_opt_b3lyp_tzvp.xyz
***************************************


================================================================================

----- Orbital basis set information -----
Your calculation utilizes the basis: def2-TZVP
   F. Weigend and R. Ahlrichs, Phys. Chem. Chem. Phys. 7, 3297 (2005).

----- AuxJ basis set information -----
Your calculation utilizes the auxiliary basis: def2/J
   H-Rn: F. Weigend, Phys. Chem. Chem. Phys. 8, 1057 (2006).
   Fr-Lr: K. Eichkorn, F. Weigend, O. Treutler, R. Ahlrichs; Theor. Chem. Acc. 97, 119 (1997).

================================================================================
                                        WARNINGS
                       Please study these warnings very carefully!
================================================================================



WARNING: Found flag for RIJCOSX approximation but no HF exchange needed!
  ===> : RIJCOSX  will be disabled and Split-RI-J is turned on

WARNING: CIS/ROCIS methods need fully converged wavefunctions
  ===> : Setting SCFConvForced true
         You can overwrite this default with %scf ConvForced false 


================================================================================
                                       INPUT FILE
================================================================================
NAME = tddft.inp
|  1> %pal nprocs 8 end
|  2> %maxcore 3000
|  3> ! TPSS def2-TZVP def2/J RIJCOSX DefGrid3 TightSCF CPCM(Toluene)
|  4> %tddft
|  5>   nroots 30
|  6>   triplets false
|  7>   tda false
|  8> end
|  9> * xyzfile 0 1 /home/jannes/metaltpp/nitpp/01_opt/nitpp_opt_b3lyp_tzvp.xyz
| 10> 
| 11>                          ****END OF INPUT****
================================================================================

                       ****************************
                       * Single Point Calculation *
                       ****************************

---------------------------------
CARTESIAN COORDINATES (ANGSTROEM)
---------------------------------
  N     -2.033380    2.525664    3.519664
  H      1.686682   -2.144824    4.059556
  C     -4.280853    2.993931    3.766152
  C     -0.360844   -1.512596    3.618564
  N      0.086819    0.752407    3.646252
  C      0.955283   -1.371831    3.895622
  H     -0.924554   -2.424161    3.518230
  C      2.790429    1.898765    3.753177
  N     -0.256609    4.633140    3.280862
  C     -1.124474    6.767732    3.145003
  C      2.515097    0.563846    4.020529
  C      2.595196    3.981672    3.108447
  N      1.863822    2.861301    3.423752
  C      4.000691    3.716250    3.247168
  C     -0.906551   -0.188363    3.499145
  C      1.235093    0.037765    3.892254
  C     -2.771027    1.368021    3.446422
  C     -2.951776    3.535875    3.691852
  C     -4.172038    1.658978    3.579646
  C     -2.262901    0.077270    3.360352
  C     -2.672389    4.896557    3.690839
  C      4.119748    2.439875    3.677935
  C     -1.398943    5.384572    3.422037
  C      0.181889    6.849504    2.805013
  C      2.080619    5.234553    2.796373
  C      0.728480    5.525740    2.925114
  H     -5.175347    3.571462    3.924441
  H     -4.958431    0.923724    3.562914
  H      5.020850    1.899007    3.910910
  H      4.783899    4.432208    3.064773
  H      0.738578    7.723314    2.512963
  H     -1.853252    7.559573    3.179091
  Ni    -0.084553    2.693124    3.467765
  C      3.637637   -0.358335    4.375634
  C      4.515453   -0.838049    3.400447
  C      5.551851   -1.701041    3.739387
  C      5.727802   -2.097196    5.060877
  C      4.859729   -1.626700    6.039832
  C      3.822009   -0.765690    5.698863
  H      4.379479   -0.535160    2.369482
  H      6.220173   -2.065920    2.969070
  H      6.535147   -2.768694    5.325475
  H      4.989489   -1.928550    7.071899
  H      3.147911   -0.401093    6.464260
  C     -3.219097   -1.060724    3.195776
  C     -3.774925   -1.336143    1.944255
  C     -4.668917   -2.388641    1.778904
  C     -5.024319   -3.180592    2.865070
  C     -4.480038   -2.913588    4.116750
  C     -3.584179   -1.862614    4.279968
  H     -3.500016   -0.721577    1.095800
  H     -5.086426   -2.589558    0.799907
  H     -5.721351   -3.999503    2.737569
  H     -4.754659   -3.522074    4.969686
  H     -3.166023   -1.655401    5.257388
  C     -3.785095    5.873238    3.900709
  C     -4.710474    6.144049    2.889664
  C     -5.737047    7.059821    3.092564
  C     -5.855551    7.718743    4.311586
  C     -4.939830    7.457879    5.324828
  C     -3.911925    6.543768    5.119470
  H     -4.619010    5.636359    1.937324
  H     -6.442728    7.260305    2.295698
  H     -6.655395    8.431370    4.470125
  H     -5.024812    7.964904    6.278142
  H     -3.200748    6.342684    5.911260
  C      3.027914    6.317709    2.389853
  C      3.552570    6.344247    1.095590
  C      4.438292    7.343878    0.707557
  C      4.816783    8.331488    1.610143
  C      4.303897    8.313067    2.902733
  C      3.416318    7.314509    3.288450
  H      3.260167    5.576770    0.389452
  H      4.831396    7.350425   -0.301672
  H      5.507439    9.109363    1.309081
  H      4.596592    9.075150    3.614585
  H      3.022811    7.301348    4.297447

----------------------------
CARTESIAN COORDINATES (A.U.)
----------------------------
  NO LB      ZA    FRAG     MASS         X           Y           Z
   0 N     7.0000    0    14.007   -3.842532    4.772813    6.651201
   1 H     1.0000    0     1.008    3.187367   -4.053130    7.671449
   2 C     6.0000    0    12.011   -8.089639    5.657709    7.116996
   3 C     6.0000    0    12.011   -0.681896   -2.858392    6.838095
   4 N     7.0000    0    14.007    0.164063    1.421843    6.890418
   5 C     6.0000    0    12.011    1.805223   -2.592385    7.361658
   6 H     1.0000    0     1.008   -1.747154   -4.581000    6.648492
   7 C     6.0000    0    12.011    5.273146    3.588147    7.092476
   8 N     7.0000    0    14.007   -0.484921    8.755365    6.199930
   9 C     6.0000    0    12.011   -2.124949   12.789160    5.943194
  10 C     6.0000    0    12.011    4.752845    1.065515    7.597698
  11 C     6.0000    0    12.011    4.904209    7.524269    5.874113
  12 N     7.0000    0    14.007    3.522113    5.407074    6.469953
  13 C     6.0000    0    12.011    7.560210    7.022695    6.136257
  14 C     6.0000    0    12.011   -1.713133   -0.355954    6.612426
  15 C     6.0000    0    12.011    2.333987    0.071365    7.355294
  16 C     6.0000    0    12.011   -5.236483    2.585186    6.512794
  17 C     6.0000    0    12.011   -5.578048    6.681834    6.976589
  18 C     6.0000    0    12.011   -7.884009    3.135014    6.764550
  19 C     6.0000    0    12.011   -4.276263    0.146020    6.350144
  20 C     6.0000    0    12.011   -5.050083    9.253152    6.974675
  21 C     6.0000    0    12.011    7.785195    4.610696    6.950290
  22 C     6.0000    0    12.011   -2.643618   10.175366    6.466712
  23 C     6.0000    0    12.011    0.343720   12.943687    5.300707
  24 C     6.0000    0    12.011    3.931801    9.891872    5.284379
  25 C     6.0000    0    12.011    1.376627   10.442135    5.527664
  26 H     1.0000    0     1.008   -9.779989    6.749085    7.416119
  27 H     1.0000    0     1.008   -9.370077    1.745585    6.732932
  28 H     1.0000    0     1.008    9.488032    3.588603    7.390549
  29 H     1.0000    0     1.008    9.040260    8.375660    5.791581
  30 H     1.0000    0     1.008    1.395710   14.594948    4.748811
  31 H     1.0000    0     1.008   -3.502139   14.285522    6.007611
  32 Ni   28.0000    0    58.700   -0.159781    5.089267    6.553126
  33 C     6.0000    0    12.011    6.874137   -0.677156    8.268751
  34 C     6.0000    0    12.011    8.532970   -1.583683    6.425913
  35 C     6.0000    0    12.011   10.491478   -3.214502    7.066417
  36 C     6.0000    0    12.011   10.823978   -3.963126    9.563671
  37 C     6.0000    0    12.011    9.183557   -3.074017   11.413627
  38 C     6.0000    0    12.011    7.222551   -1.446944   10.769290
  39 H     1.0000    0     1.008    8.276016   -1.011305    4.477672
  40 H     1.0000    0     1.008   11.754423   -3.904022    5.610729
  41 H     1.0000    0     1.008   12.349639   -5.232073   10.063689
  42 H     1.0000    0     1.008    9.428767   -3.644431   13.363952
  43 H     1.0000    0     1.008    5.948689   -0.757957   12.215682
  44 C     6.0000    0    12.011   -6.083213   -2.004477    6.039142
  45 C     6.0000    0    12.011   -7.133575   -2.524945    3.674110
  46 C     6.0000    0    12.011   -8.822975   -4.513878    3.361641
  47 C     6.0000    0    12.011   -9.494587   -6.010447    5.414198
  48 C     6.0000    0    12.011   -8.466046   -5.505884    7.779530
  49 C     6.0000    0    12.011   -6.773117   -3.519830    8.087967
  50 H     1.0000    0     1.008   -6.614072   -1.363584    2.070762
  51 H     1.0000    0     1.008   -9.611953   -4.893555    1.511605
  52 H     1.0000    0     1.008  -10.811787   -7.557965    5.173256
  53 H     1.0000    0     1.008   -8.985003   -6.655756    9.391346
  54 H     1.0000    0     1.008   -5.982916   -3.128255    9.935023
  55 C     6.0000    0    12.011   -7.152794   11.098812    7.371271
  56 C     6.0000    0    12.011   -8.901506   11.610570    5.460674
  57 C     6.0000    0    12.011  -10.841448   13.341128    5.844098
  58 C     6.0000    0    12.011  -11.065388   14.586310    8.147717
  59 C     6.0000    0    12.011   -9.334925   14.093349   10.062468
  60 C     6.0000    0    12.011   -7.392467   12.365929    9.674396
  61 H     1.0000    0     1.008   -8.728664   10.651175    3.661012
  62 H     1.0000    0     1.008  -12.174991   13.719987    4.338240
  63 H     1.0000    0     1.008  -12.576875   15.932979    8.447313
  64 H     1.0000    0     1.008   -9.495519   15.051486   11.863968
  65 H     1.0000    0     1.008   -6.048537   11.985936   11.170663
  66 C     6.0000    0    12.011    5.721928   11.938740    4.516167
  67 C     6.0000    0    12.011    6.713385   11.988890    2.070366
  68 C     6.0000    0    12.011    8.387156   13.877918    1.337089
  69 C     6.0000    0    12.011    9.102400   15.744232    3.042730
  70 C     6.0000    0    12.011    8.133186   15.709419    5.485371
  71 C     6.0000    0    12.011    6.455905   13.822419    6.214270
  72 H     1.0000    0     1.008    6.160823   10.538569    0.735958
  73 H     1.0000    0     1.008    9.130015   13.890290   -0.570077
  74 H     1.0000    0     1.008   10.407551   17.214201    2.473805
  75 H     1.0000    0     1.008    8.686300   17.149548    6.830575
  76 H     1.0000    0     1.008    5.712286   13.797549    8.120998

--------------------------------
INTERNAL COORDINATES (ANGSTROEM)
--------------------------------
 N      0   0   0     0.000000000000     0.00000000     0.00000000
 H      1   0   0     5.995315508272     0.00000000     0.00000000
 C      1   2   0     2.308931053632   138.79490074     0.00000000
 C      2   1   3     2.187818188686    34.51509210    28.46924667
 N      4   2   1     2.308984119046    95.71664910     5.98864078
 C      2   1   3     1.076725224652     6.02819997    52.25655203
 H      4   2   1     1.076469392692   105.31736084   185.45002408
 C      5   4   2     2.938550259804   124.15914566     9.70481593
 N      1   2   6     2.766838542197   101.69406723   220.83270345
 C      9   1   2     2.308274917556   117.90564310   183.06361943
 C      8   5   4     1.388990351357    56.61266624   345.83057752
 C      8   5   4     2.189130085284   106.16542615   162.07924345
 N     12   8   5     1.374611031908    37.28790363     6.92173381
 C     12   8   5     1.437048640156    73.05872554   186.73902979
 C      5   4   2     1.376034679274    35.71766369   182.17661476
 C      5   4   2     1.374686742588    69.76546214     0.50482964
 C      1   2   6     1.374635800842    71.44065023    31.85219035
 C      1   2   6     1.376090255474   167.09468947   110.00158307
 C      3   1   2     1.352303524528    72.94721570   338.48386433
 C     15   5   4     1.389068096567   125.79197284   175.25282973
 C     18   1  17     1.389070099609   125.78801284   186.46122822
 C     14  12   8     1.352356762283   106.92822134   358.48861660
 C      9   1   2     1.374592940041    82.75329166   189.59583980
 C     10   9   1     1.352355187234    72.99353251   192.52396603
 C     12   8   5     1.389924806705   163.09861065    19.30569027
 C      9   1   2     1.376114871863   167.43960178    57.81503606
 H      3   1   2     1.076437679752   158.96571893   157.28957730
 H     19   3   1     1.076704678754   128.13275166   178.88841852
 H     22  14  12     1.076476315094   128.08611064   181.29236595
 H     14  12   8     1.076698543151   124.90904816   180.27164158
 H     24  10   9     1.076447951058   128.08708021   179.44762224
 H     10   9   1     1.076703725167   158.86233423    10.09357501
 Ni    13  12   8     1.956114472265   127.24235614   177.68225425
 C     11   8   5     1.495531305817   119.31017380   179.63325557
 C     34  11   8     1.397024631342   121.17310164   284.14277619
 C     35  34  11     1.390596223836   120.74789176   180.35613056
 C     36  35  34     1.390766856568   120.17606850   359.92820901
 C     37  36  35     1.390421039675   119.57923292     0.10802008
 C     38  37  36     1.390848751208   120.17782263     0.00000000
 H     35  34  11     1.083106389568   119.30984913     0.03868797
 H     36  35  34     1.083133441564   119.70800478   179.75204590
 H     37  36  35     1.082925437203   120.20606687   180.04209715
 H     38  37  36     1.083103658351   120.11879178   180.08077482
 H     39  38  37     1.083130922690   119.96640067   180.01249711
 C     20  15   5     1.495468770539   119.32822483   179.40348951
 C     45  20  15     1.396819993284   120.20372965   255.08308869
 C     46  45  20     1.390796214797   120.76509329   180.22391711
 C     47  46  45     1.390414536414   120.16305511     0.18979337
 C     48  47  46     1.390767593618   119.58240669     0.00000000
 C     49  48  47     1.390593935200   120.18876464   359.88265423
 H     46  45  20     1.083116914282   119.27384816     0.43888253
 H     47  46  45     1.083104909446   119.71070159   180.25760523
 H     48  47  46     1.082924786729   120.21639631   179.91827796
 H     49  48  47     1.083130703668   120.10870655   179.70289983
 H     50  49  48     1.083116288322   119.94861527   179.72962536
 C     21  18   1     1.495348347558   119.34261113   180.38498785
 C     56  21  18     1.397095241345   121.19198743   285.28729172
 C     57  56  21     1.390560604769   120.73343996   180.37007467
 C     58  57  56     1.390768524184   120.18627328   359.92130629
 C     59  58  57     1.390415757456   119.58642194     0.11985065
 C     60  59  58     1.390812861998   120.16266210     0.00000000
 H     57  56  21     1.083082093641   119.30926447     0.00000000
 H     58  57  56     1.083131474444   119.70466233   179.73268150
 H     59  58  57     1.082922981887   120.20075292   180.04931472
 H     60  59  58     1.083098134837   120.12636600   180.09629411
 H     61  60  59     1.083115937023   119.95732438   180.03344245
 C     25  12   8     1.495276696795   118.65022734   174.73502472
 C     67  25  12     1.396812072688   120.24048279    78.17496294
 C     68  67  25     1.390803495918   120.75550273   180.23851252
 C     69  68  67     1.390428723910   120.18297614     0.19574417
 C     70  69  68     1.390747857322   119.57289456     0.00000000
 C     71  70  69     1.390572401932   120.17902480   359.87683128
 H     68  67  25     1.083121130040   119.28934076     0.43782496
 H     69  68  67     1.083104771231   119.69946611   180.26296706
 H     70  69  68     1.082927967106   120.22179297   179.91687317
 H     71  70  69     1.083131490943   120.12271330   179.69080096
 H     72  71  70     1.083094820246   119.93571331   179.72106476

---------------------------
INTERNAL COORDINATES (A.U.)
---------------------------
 N      0   0   0     0.000000000000     0.00000000     0.00000000
 H      1   0   0    11.329504397085     0.00000000     0.00000000
 C      1   2   0     4.363247353470   138.79490074     0.00000000
 C      2   1   3     4.134377207428    34.51509210    28.46924667
 N      4   2   1     4.363347632570    95.71664910     5.98864078
 C      2   1   3     2.034715796077     6.02819997    52.25655203
 H      4   2   1     2.034232343736   105.31736084   185.45002408
 C      5   4   2     5.553055221792   124.15914566     9.70481593
 N      1   2   6     5.228567101529   101.69406723   220.83270345
 C      9   1   2     4.362007435980   117.90564310   183.06361943
 C      8   5   4     2.624811366724    56.61266624   345.83057752
 C      8   5   4     4.136856332714   106.16542615   162.07924345
 N     12   8   5     2.597638390974    37.28790363     6.92173381
 C     12   8   5     2.715628371019    73.05872554   186.73902979
 C      5   4   2     2.600328694607    35.71766369   182.17661476
 C      5   4   2     2.597781463424    69.76546214     0.50482964
 C      1   2   6     2.597685197476    71.44065023    31.85219035
 C      1   2   6     2.600433718404   167.09468947   110.00158307
 C      3   1   2     2.555483311295    72.94721570   338.48386433
 C     15   5   4     2.624958283879   125.79197284   175.25282973
 C     18   1  17     2.624962069080   125.78801284   186.46122822
 C     14  12   8     2.555583916071   106.92822134   358.48861660
 C      9   1   2     2.597604202299    82.75329166   189.59583980
 C     10   9   1     2.555580939660    72.99353251   192.52396603
 C     12   8   5     2.626577231415   163.09861065    19.30569027
 C      9   1   2     2.600480236636   167.43960178    57.81503606
 H      3   1   2     2.034172414964   158.96571893   157.28957730
 H     19   3   1     2.034676969956   128.13275166   178.88841852
 H     22  14  12     2.034245425180   128.08611064   181.29236595
 H     14  12   8     2.034665375347   124.90904816   180.27164158
 H     24  10   9     2.034191824920   128.08708021   179.44762224
 H     10   9   1     2.034675167939   158.86233423    10.09357501
 Ni    13  12   8     3.696520639181   127.24235614   177.68225425
 C     11   8   5     2.826144592700   119.31017380   179.63325557
 C     34  11   8     2.639993955579   121.17310164   284.14277619
 C     35  34  11     2.627846025916   120.74789176   180.35613056
 C     36  35  34     2.628168475048   120.17606850   359.92820901
 C     37  36  35     2.627514975828   119.57923292     0.10802008
 C     38  37  36     2.628323233489   120.17782263     0.00000000
 H     35  34  11     2.046774450184   119.30984913     0.03868797
 H     36  35  34     2.046825571048   119.70800478   179.75204590
 H     37  36  35     2.046432499770   120.20606687   180.04209715
 H     38  37  36     2.046769288932   120.11879178   180.08077482
 H     39  38  37     2.046820811066   119.96640067   180.01249711
 C     20  15   5     2.826026418150   119.32822483   179.40348951
 C     45  20  15     2.639607245693   120.20372965   255.08308869
 C     46  45  20     2.628223954061   120.76509329   180.22391711
 C     47  46  45     2.627502686445   120.16305511     0.18979337
 C     48  47  46     2.628169867870   119.58240669     0.00000000
 C     49  48  47     2.627841701019   120.18876464   359.88265423
 H     46  45  20     2.046794339011   119.27384816     0.43888253
 H     47  46  45     2.046771653159   119.71070159   180.25760523
 H     48  47  46     2.046431270554   120.21639631   179.91827796
 H     49  48  47     2.046820397174   120.10870655   179.70289983
 H     50  49  48     2.046793156117   119.94861527   179.72962536
 C     21  18   1     2.825798851696   119.34261113   180.38498785
 C     56  21  18     2.640127389147   121.19198743   285.28729172
 C     57  56  21     2.627778715634   120.73343996   180.37007467
 C     58  57  56     2.628171626385   120.18627328   359.92130629
 C     59  58  57     2.627504993881   119.58642194     0.11985065
 C     60  59  58     2.628255412712   120.16266210     0.00000000
 H     57  56  21     2.046728537535   119.30926447     0.00000000
 H     58  57  56     2.046821853730   119.70466233   179.73268150
 H     59  58  57     2.046427859896   120.20075292   180.04931472
 H     60  59  58     2.046758851002   120.12636600   180.09629411
 H     61  60  59     2.046792492258   119.95732438   180.03344245
 C     25  12   8     2.825663451376   118.65022734   174.73502472
 C     67  25  12     2.639592277935   120.24048279    78.17496294
 C     68  67  25     2.628237713384   120.75550273   180.23851252
 C     69  68  67     2.627529496928   120.18297614     0.19574417
 C     70  69  68     2.628132571676   119.57289456     0.00000000
 C     71  70  69     2.627801009040   120.17902480   359.87683128
 H     68  67  25     2.046802305638   119.28934076     0.43782496
 H     69  68  67     2.046771391970   119.69946611   180.26296706
 H     70  69  68     2.046437280595   120.22179297   179.91687317
 H     71  70  69     2.046821884909   120.12271330   179.69080096
 H     72  71  70     2.046752587333   119.93571331   179.72106476

---------------------
BASIS SET INFORMATION
---------------------
There are 4 groups of distinct atoms

 Group   1 Type N   : 11s6p2d1f contracted to 5s3p2d1f pattern {62111/411/11/1}
 Group   2 Type H   : 5s1p contracted to 3s1p pattern {311/1}
 Group   3 Type C   : 11s6p2d1f contracted to 5s3p2d1f pattern {62111/411/11/1}
 Group   4 Type Ni  : 17s11p7d1f contracted to 6s4p4d1f pattern {842111/6311/4111/1}

Atom   0N    basis set group =>   1
Atom   1H    basis set group =>   2
Atom   2C    basis set group =>   3
Atom   3C    basis set group =>   3
Atom   4N    basis set group =>   1
Atom   5C    basis set group =>   3
Atom   6H    basis set group =>   2
Atom   7C    basis set group =>   3
Atom   8N    basis set group =>   1
Atom   9C    basis set group =>   3
Atom  10C    basis set group =>   3
Atom  11C    basis set group =>   3
Atom  12N    basis set group =>   1
Atom  13C    basis set group =>   3
Atom  14C    basis set group =>   3
Atom  15C    basis set group =>   3
Atom  16C    basis set group =>   3
Atom  17C    basis set group =>   3
Atom  18C    basis set group =>   3
Atom  19C    basis set group =>   3
Atom  20C    basis set group =>   3
Atom  21C    basis set group =>   3
Atom  22C    basis set group =>   3
Atom  23C    basis set group =>   3
Atom  24C    basis set group =>   3
Atom  25C    basis set group =>   3
Atom  26H    basis set group =>   2
Atom  27H    basis set group =>   2
Atom  28H    basis set group =>   2
Atom  29H    basis set group =>   2
Atom  30H    basis set group =>   2
Atom  31H    basis set group =>   2
Atom  32Ni   basis set group =>   4
Atom  33C    basis set group =>   3
Atom  34C    basis set group =>   3
Atom  35C    basis set group =>   3
Atom  36C    basis set group =>   3
Atom  37C    basis set group =>   3
Atom  38C    basis set group =>   3
Atom  39H    basis set group =>   2
Atom  40H    basis set group =>   2
Atom  41H    basis set group =>   2
Atom  42H    basis set group =>   2
Atom  43H    basis set group =>   2
Atom  44C    basis set group =>   3
Atom  45C    basis set group =>   3
Atom  46C    basis set group =>   3
Atom  47C    basis set group =>   3
Atom  48C    basis set group =>   3
Atom  49C    basis set group =>   3
Atom  50H    basis set group =>   2
Atom  51H    basis set group =>   2
Atom  52H    basis set group =>   2
Atom  53H    basis set group =>   2
Atom  54H    basis set group =>   2
Atom  55C    basis set group =>   3
Atom  56C    basis set group =>   3
Atom  57C    basis set group =>   3
Atom  58C    basis set group =>   3
Atom  59C    basis set group =>   3
Atom  60C    basis set group =>   3
Atom  61H    basis set group =>   2
Atom  62H    basis set group =>   2
Atom  63H    basis set group =>   2
Atom  64H    basis set group =>   2
Atom  65H    basis set group =>   2
Atom  66C    basis set group =>   3
Atom  67C    basis set group =>   3
Atom  68C    basis set group =>   3
Atom  69C    basis set group =>   3
Atom  70C    basis set group =>   3
Atom  71C    basis set group =>   3
Atom  72H    basis set group =>   2
Atom  73H    basis set group =>   2
Atom  74H    basis set group =>   2
Atom  75H    basis set group =>   2
Atom  76H    basis set group =>   2
---------------------------------
AUXILIARY/J BASIS SET INFORMATION
---------------------------------
There are 4 groups of distinct atoms

 Group   1 Type N   : 12s5p4d2f1g contracted to 6s4p3d1f1g pattern {711111/2111/211/2/1}
 Group   2 Type H   : 5s2p1d contracted to 3s1p1d pattern {311/2/1}
 Group   3 Type C   : 12s5p4d2f1g contracted to 6s4p3d1f1g pattern {711111/2111/211/2/1}
 Group   4 Type Ni  : 19s5p5d3f3g contracted to 8s5p5d2f3g pattern {121111111/11111/11111/21/111}

Atom   0N    basis set group =>   1
Atom   1H    basis set group =>   2
Atom   2C    basis set group =>   3
Atom   3C    basis set group =>   3
Atom   4N    basis set group =>   1
Atom   5C    basis set group =>   3
Atom   6H    basis set group =>   2
Atom   7C    basis set group =>   3
Atom   8N    basis set group =>   1
Atom   9C    basis set group =>   3
Atom  10C    basis set group =>   3
Atom  11C    basis set group =>   3
Atom  12N    basis set group =>   1
Atom  13C    basis set group =>   3
Atom  14C    basis set group =>   3
Atom  15C    basis set group =>   3
Atom  16C    basis set group =>   3
Atom  17C    basis set group =>   3
Atom  18C    basis set group =>   3
Atom  19C    basis set group =>   3
Atom  20C    basis set group =>   3
Atom  21C    basis set group =>   3
Atom  22C    basis set group =>   3
Atom  23C    basis set group =>   3
Atom  24C    basis set group =>   3
Atom  25C    basis set group =>   3
Atom  26H    basis set group =>   2
Atom  27H    basis set group =>   2
Atom  28H    basis set group =>   2
Atom  29H    basis set group =>   2
Atom  30H    basis set group =>   2
Atom  31H    basis set group =>   2
Atom  32Ni   basis set group =>   4
Atom  33C    basis set group =>   3
Atom  34C    basis set group =>   3
Atom  35C    basis set group =>   3
Atom  36C    basis set group =>   3
Atom  37C    basis set group =>   3
Atom  38C    basis set group =>   3
Atom  39H    basis set group =>   2
Atom  40H    basis set group =>   2
Atom  41H    basis set group =>   2
Atom  42H    basis set group =>   2
Atom  43H    basis set group =>   2
Atom  44C    basis set group =>   3
Atom  45C    basis set group =>   3
Atom  46C    basis set group =>   3
Atom  47C    basis set group =>   3
Atom  48C    basis set group =>   3
Atom  49C    basis set group =>   3
Atom  50H    basis set group =>   2
Atom  51H    basis set group =>   2
Atom  52H    basis set group =>   2
Atom  53H    basis set group =>   2
Atom  54H    basis set group =>   2
Atom  55C    basis set group =>   3
Atom  56C    basis set group =>   3
Atom  57C    basis set group =>   3
Atom  58C    basis set group =>   3
Atom  59C    basis set group =>   3
Atom  60C    basis set group =>   3
Atom  61H    basis set group =>   2
Atom  62H    basis set group =>   2
Atom  63H    basis set group =>   2
Atom  64H    basis set group =>   2
Atom  65H    basis set group =>   2
Atom  66C    basis set group =>   3
Atom  67C    basis set group =>   3
Atom  68C    basis set group =>   3
Atom  69C    basis set group =>   3
Atom  70C    basis set group =>   3
Atom  71C    basis set group =>   3
Atom  72H    basis set group =>   2
Atom  73H    basis set group =>   2
Atom  74H    basis set group =>   2
Atom  75H    basis set group =>   2
Atom  76H    basis set group =>   2


           ************************************************************
           *        Program running with 8 parallel MPI-processes     *
           *              working on a common directory               *
           ************************************************************
------------------------------------------------------------------------------
                             ORCA STARTUP CALCULATIONS
                           -- RI-GTO INTEGRALS CHOSEN --
------------------------------------------------------------------------------
------------------------------------------------------------------------------
                   ___                                                        
                  /   \      - P O W E R E D   B Y -                         
                 /     \                                                     
                 |  |  |   _    _      __       _____    __    __             
                 |  |  |  | |  | |    /  \     |  _  \  |  |  /  |          
                  \  \/   | |  | |   /    \    | | | |  |  | /  /          
                 / \  \   | |__| |  /  /\  \   | |_| |  |  |/  /          
                |  |  |   |  __  | /  /__\  \  |    /   |      \           
                |  |  |   | |  | | |   __   |  |    \   |  |\   \          
                \     /   | |  | | |  |  |  |  | |\  \  |  | \   \       
                 \___/    |_|  |_| |__|  |__|  |_| \__\ |__|  \__/        
                                                                              
                      - O R C A' S   B I G   F R I E N D -                    
                                      &                                       
                       - I N T E G R A L  F E E D E R -                       
                                                                              
 v1 FN, 2020, v2 2021, v3 2022-2024                                           
------------------------------------------------------------------------------


----------------------
SHARK INTEGRAL PACKAGE
----------------------

Number of atoms                             ...     77
Number of basis functions                   ...   1701
Number of shells                            ...    655
Maximum angular momentum                    ...      3
Integral batch strategy                     ... SHARK/LIBINT Hybrid
RI-J (if used) integral strategy            ... SPLIT-RIJ (Revised 2003 algorithm where possible)
Printlevel                                  ...      1
Contraction scheme used                     ... SEGMENTED contraction
Prescreening option                         ... SCHWARTZ
   Thresh                                   ... 2.500e-11
   Tcut                                     ... 2.500e-12
   Tpresel                                  ... 2.500e-12 
Coulomb Range Separation                    ... NOT USED
Exchange Range Separation                   ... NOT USED
Multipole approximations                    ... NOT USED
Finite Nucleus Model                        ... NOT USED
CABS basis                                  ... NOT available
Auxiliary Coulomb fitting basis             ... AVAILABLE
   # of basis functions in Aux-J            ...   2749
   # of shells in Aux-J                     ...    883
   Maximum angular momentum in Aux-J        ...      4
Auxiliary J/K fitting basis                 ... NOT available
Auxiliary Correlation fitting basis         ... NOT available
Auxiliary 'external' fitting basis          ... NOT available

Checking pre-screening integrals            ... done (  0.0 sec) Dimension = 655
   => SHARK Basis and OBASIS are compatible. Storing Pre-screening
Shell pair information
Shell pair cut-off parameter TPreSel        ...   2.5e-12
Total number of shell pairs                 ...    214840
Shell pairs after pre-screening             ...    105048
Total number of primitive shell pairs       ...    679229
Primitive shell pairs kept                  ...    203967
          la=0 lb=0:  25003 shell pairs
          la=1 lb=0:  30718 shell pairs
          la=1 lb=1:   9306 shell pairs
          la=2 lb=0:  15053 shell pairs
          la=2 lb=1:   9379 shell pairs
          la=2 lb=2:   2279 shell pairs
          la=3 lb=0:   6683 shell pairs
          la=3 lb=1:   4245 shell pairs
          la=3 lb=2:   1936 shell pairs
          la=3 lb=3:    446 shell pairs

Checking whether 4 symmetric matrices of dimension 1701 fit in memory
:Max Core in MB      =   3000.00
 MB in use           =    128.45
 MB left             =   2871.55
 MB needed           =     44.18
 Data fit in memory  = YES
Calculating RI/J V-Matrix + Cholesky decomp.... done (  1.0 sec)
Calculating Nuclear repulsion               ... done (  0.0 sec) ENN=   6447.097857519315 Eh

Diagonalization of the overlap matrix:
Smallest eigenvalue                        ... 3.792e-06
Time for diagonalization                   ...    0.915 sec
Threshold for overlap eigenvalues          ... 1.000e-07
Number of eigenvalues below threshold      ... 0
Time for construction of square roots      ...    5.659 sec
Total time needed                          ...    6.649 sec

-------------------
DFT GRID GENERATION
-------------------

General Integration Accuracy     IntAcc      ... 4.959
Radial Grid Type                 RadialGrid  ... OptM3 with GC (2021)
Angular Grid (max. ang.)         AngularGrid ... 6 (Lebedev-590)
Angular grid pruning method      GridPruning ... 4 (adaptive)
Weight generation scheme         WeightScheme... mBecke (2022)
Basis function cutoff            BFCut       ... 1.0000e-11
Integration weight cutoff        WCut        ... 1.0000e-14
Partially contracted basis set               ... off
Rotationally invariant grid construction     ... off
Angular grids for H and He will be reduced by one unit
Core-polarized basis detected: some atoms will have their core
                               angular grid increased.

Total number of grid points                  ...   938894
Total number of batches                      ...    14707
Average number of points per batch           ...       63
Average number of grid points per atom       ...    12193
Grids setup in  25.3 sec
Initializing property integral containers    ... done (  0.0 sec)

SHARK setup successfully completed in  42.4 seconds

Maximum memory used throughout the entire STARTUP-calculation: 341.5 MB


           ************************************************************
           *        Program running with 8 parallel MPI-processes     *
           *              working on a common directory               *
           ************************************************************
-------------------------------------------------------------------------------
                                 ORCA GUESS
                   Start orbitals & Density for SCF / CASSCF
-------------------------------------------------------------------------------

------------
SCF SETTINGS
------------
Hamiltonian:
 Density Functional     Method          .... DFT(GTOs)
 Exchange Functional    Exchange        .... TPSS
 Correlation Functional Correlation     .... TPSS
 LDA part of GGA corr.  LDAOpt          .... PW91-LDA
 Gradients option       PostSCFGGA      .... off
   NL short-range parameter             ....  5.000000
 RI-approximation to the Coulomb term is turned on
   Number of AuxJ basis functions       .... 2749


General Settings:
 Integral files         IntName         .... tddft
 Hartree-Fock type      HFTyp           .... RHF
 Total Charge           Charge          ....    0
 Multiplicity           Mult            ....    1
 Number of Electrons    NEL             ....  348
 Basis Dimension        Dim             .... 1701
 Nuclear Repulsion      ENuc            ....   6447.0978575193 Eh

Convergence Acceleration:
 AO-DIIS                CNVDIIS         .... on
   Start iteration      DIISMaxIt       ....    12
   Startup error        DIISStart       ....  0.200000
   # of expansion vecs  DIISMaxEq       ....     5
   Bias factor          DIISBfac        ....   1.050
   Max. coefficient     DIISMaxC        ....  10.000
 MO-DIIS                CNVKDIIS        .... off
 Trust-Rad. Augm. Hess. CNVTRAH         .... auto
   Auto Start mean grad. ratio tolernc. ....  1.125000
   Auto Start start iteration           ....    50
   Auto Start num. interpolation iter.  ....    10
   Max. Number of Micro iterations      ....    24
   Max. Number of Macro iterations      .... Maxiter - #DIIS iter
   Number of Davidson start vectors     ....     2
   Converg. threshold    (grad. norm)   ....   1.000e-05
   Grad. Scal. Fac. for Micro threshold ....   0.100
   Minimum threshold for Micro iter.    ....   1.000e-02
   NR start threshold (gradient norm)   ....   1.000e-04
   Initial trust radius                 ....   0.400
   Minimum AH scaling param. (alpha)    ....   1.000
   Maximum AH scaling param. (alpha)    .... 1000.000
   Quad. conv. algorithm                .... NR
   White noise on init. David. guess    .... on
   Maximum white noise                  ....   0.010
   Pseudo random numbers                .... off
   Inactive MOs                         .... canonical
   Orbital update algorithm             .... Taylor
   Preconditioner                       .... Diag
   Full preconditioner red. dimension   ....   250
 SOSCF                 CNVSOSCF           .... on
   Start iteration     SOSCFMaxIt         ....   150
   Startup grad/error  SOSCFStart         ....  0.003300
   Hessian update      SOSCFHessUp        .... L-BFGS
   Autom. constraints  SOSCFAutoConstrain .... off
 Level Shifting         CNVShift        .... on
   Level shift para.    LevelShift      ....    0.2500
   Turn off err/grad.   ShiftErr        ....    0.0010
 Zerner damping         CNVZerner       .... off
 Static damping         CNVDamp         .... on
   Fraction old density DampFac         ....    0.7000
   Max. Damping (<1)    DampMax         ....    0.9800
   Min. Damping (>=0)   DampMin         ....    0.0000
   Turn off err/grad.   DampErr         ....    0.1000

SCF Procedure:
 Maximum # iterations   MaxIter         ....   125
 SCF integral mode      SCFMode         .... Direct
   Integral package                     .... SHARK and LIBINT hybrid scheme
 Reset frequency        DirectResetFreq ....    20
 Integral Threshold     Thresh          ....  2.500e-11 Eh
 Primitive CutOff       TCut            ....  2.500e-12 Eh

Convergence Tolerance:
 Convergence Check Mode ConvCheckMode   .... Total+1el-Energy
 Convergence forced     ConvForced      .... 1
 Energy Change          TolE            ....  1.000e-08 Eh
 1-El. energy change                    ....  1.000e-05 Eh
 Orbital Gradient       TolG            ....  1.000e-05
 Orbital Rotation angle TolX            ....  1.000e-05
 DIIS Error             TolErr          ....  5.000e-07

------------------------------
INITIAL GUESS: MODEL POTENTIAL
------------------------------
Loading Hartree-Fock densities                     ... done
Calculating cut-offs                               ... done
Initializing the effective Hamiltonian             ... done
Setting up the integral package (SHARK)            ... done
Starting the Coulomb interaction                   ... done (   8.9 sec)
Making the grid                                    ... done (   1.7 sec)
Mapping shells                                     ... done
Starting the XC term evaluation                    ... done (   6.6 sec)
  promolecular density results
     # of electrons  =    347.985252055
     EX              =   -321.303608677
     EC              =    -12.119400197
     EX+EC           =   -333.423008875
Transforming the Hamiltonian                       ... done (   0.9 sec)
Diagonalizing the Hamiltonian                      ... done (   1.3 sec)
Back transforming the eigenvectors                 ... done (   3.3 sec)
Now organizing SCF variables                       ... done
                      ------------------
                      INITIAL GUESS DONE (  24.6 sec)
                      ------------------
             **** ENERGY FILE WAS UPDATED (tddft.en.tmp) ****
Finished Guess after  28.7 sec
Maximum memory used throughout the entire GUESS-calculation: 209.6 MB


           ************************************************************
           *        Program running with 8 parallel MPI-processes     *
           *              working on a common directory               *
           ************************************************************

-------------------------------------------------------------------------------------------
                                      ORCA LEAN-SCF
                              memory conserving SCF solver
-------------------------------------------------------------------------------------------

--------------------
CPCM SOLVATION MODEL
--------------------
CPCM parameters:
  Epsilon                                         ...       2.3870
  Refrac                                          ...       1.4961
  Rsolv                                           ...       1.3000
  Surface type                                    ... GAUSSIAN VDW
  Discretization scheme                           ... Constant charge density
    Threshold for H atoms                         ...       5.0000 (charges/Ang^2)
    Threshold for non-H atoms                     ...       5.0000 (charges/Ang^2)
  Epsilon function type                           ...         CPCM
Solvent:                                          ... TOLUENE
Radii:
  Scheme                                          ... Element-dependent radii
  Radius for N  used is    3.5149 Bohr (=   1.8600 Ang.)
  Radius for H  used is    2.4944 Bohr (=   1.3200 Ang.)
  Radius for C  used is    3.8550 Bohr (=   2.0400 Ang.)
  Radius for Ni used is    3.6963 Bohr (=   1.9560 Ang.)
Calculating surface                               ...        done! (  0.1s)
Cavity surface points                             ...         6764
Cavity Volume                                     ...    4905.5904
Cavity Surface-area                               ...    2270.8420
Calculating surface distance matrix               ...        done! (  6.2s)
Performing Cholesky decomposition & store         ...        done! ( 10.4s)
Overall time for CPCM initialization              ...                16.7s

----------------------------------------D-I-I-S--------------------------------------------
Iteration    Energy (Eh)           Delta-E    RMSDP     MaxDP     DIISErr   Damp  Time(sec)
-------------------------------------------------------------------------------------------
               ***  Starting incremental Fock matrix formation  ***
    1    -3421.2877364674204728     0.00e+00  2.24e-03  6.60e-02  1.59e-01  0.700 122.9
Warning: op=0 Small HOMO/LUMO gap (   0.028) - skipping pre-diagonalization
         Will do a full diagonalization
    2    -3421.6600905426803365    -3.72e-01  2.67e-03  5.53e-02  8.15e-02  0.700 116.7
                               ***Turning on AO-DIIS***
    3    -3421.8159053265135299    -1.56e-01  9.97e-04  3.43e-02  3.07e-02  0.700 108.2
    4    -3421.9065491098190250    -9.06e-02  2.12e-03  8.50e-02  1.49e-02  0.000 100.9
    5    -3422.1029557828278485    -1.96e-01  6.59e-04  1.62e-02  1.49e-02  0.000  89.7
    6    -3422.1038685386884026    -9.13e-04  3.12e-04  1.07e-02  2.20e-02  0.000  65.9
    7    -3422.1042490393101616    -3.81e-04  1.02e-04  4.89e-03  1.16e-02  0.000  72.9
                              *** Initializing SOSCF ***
---------------------------------------S-O-S-C-F--------------------------------------
Iteration    Energy (Eh)           Delta-E    RMSDP     MaxDP     MaxGrad    Time(sec)
--------------------------------------------------------------------------------------
    8    -3422.1043710421563446    -1.22e-04  5.30e-05  2.13e-03  2.01e-03    65.6
               *** Restarting incremental Fock matrix formation ***
    9    -3422.1043819599926792    -1.09e-05  5.07e-05  1.59e-03  4.13e-04    69.1
   10    -3422.1043604765982309     2.15e-05  1.92e-05  1.43e-03  1.93e-03    52.6
   11    -3422.1043834196225362    -2.29e-05  2.34e-05  1.17e-03  4.79e-05    30.2
   12    -3422.1043829419068061     4.78e-07  1.06e-05  3.73e-04  1.33e-04    26.5
   13    -3422.1043835268392286    -5.85e-07  2.55e-05  1.13e-03  1.21e-05    37.4
   14    -3422.1043833492185513     1.78e-07  1.58e-05  6.48e-04  1.85e-05    46.1
   15    -3422.1043833997773618    -5.06e-08  2.14e-05  6.71e-04  3.06e-06    40.4
   16    -3422.1043834725896886    -7.28e-08  6.57e-06  3.81e-04  4.20e-06    41.8
   17    -3422.1043834184547450     5.41e-08  1.24e-05  6.84e-04  1.10e-06    63.6
                  *** Gradient check signals convergence ***

               *****************************************************
               *                     SUCCESS                       *
               *           SCF CONVERGED AFTER  17 CYCLES          *
               *****************************************************

             **** ENERGY FILE WAS UPDATED (tddft.en.tmp) ****

----------------
TOTAL SCF ENERGY
----------------

Total Energy       :      -3422.10438336204061 Eh          -93120.19441 eV

Components:
Nuclear Repulsion  :       6447.09785751931486 Eh          175434.45162 eV
Electronic Energy  :      -9869.19184939592378 Eh         -268554.36326 eV
One Electron Energy:     -17531.42729541799781 Eh         -477054.38968 eV
Two Electron Energy:       7662.23544602207403 Eh          208500.02642 eV
CPCM Dielectric    :         -0.01039148543128 Eh              -0.28277 eV

Virial components:
Potential Energy   :      -6833.59798544759997 Eh         -185951.65478 eV
Kinetic Energy     :       3411.49360208555936 Eh           92831.46037 eV
Virial Ratio       :          2.00311030373031

DFT components:
N(Alpha)           :      173.999992509487 electrons
N(Beta)            :      173.999992509487 electrons
N(Total)           :      347.999985018973 electrons
E(X)               :     -329.131217615458 Eh       
E(C)               :      -12.133899591277 Eh       
E(XC)              :     -341.265117206736 Eh       

CPCM Solvation Model Properties:
Surface-charge          :         -0.04846045283829
Corrected charge        :         -0.00000000000000
Outlying charge corr.   :          0.00005367659482 Eh               0.00146 eV
Free-energy (cav+disp)  :  This term is not implemented in the current solvation scheme

---------------
SCF CONVERGENCE
---------------

  Last Energy change         ...   -5.4135e-08  Tolerance :   1.0000e-08
  Last MAX-Density change    ...    6.8420e-04  Tolerance :   1.0000e-07
  Last RMS-Density change    ...    1.2352e-05  Tolerance :   5.0000e-09
  Last DIIS Error            ...    2.0077e-03  Tolerance :   5.0000e-07
  Last Orbital Gradient      ...    1.0975e-06  Tolerance :   1.0000e-05
  Last Orbital Rotation      ...    7.9606e-06  Tolerance :   1.0000e-05


----------------
ORBITAL ENERGIES
----------------

  NO   OCC          E(Eh)            E(eV) 
   0   2.0000    -298.960787     -8135.1366 
   1   2.0000     -35.375756      -962.6233 
   2   2.0000     -30.823293      -838.7445 
   3   2.0000     -30.823290      -838.7444 
   4   2.0000     -30.796657      -838.0197 
   5   2.0000     -14.120995      -384.2518 
   6   2.0000     -14.120990      -384.2517 
   7   2.0000     -14.120986      -384.2516 
   8   2.0000     -14.120982      -384.2515 
   9   2.0000     -10.020683      -272.6766 
  10   2.0000     -10.020673      -272.6764 
  11   2.0000     -10.020662      -272.6761 
  12   2.0000     -10.020646      -272.6756 
  13   2.0000     -10.020374      -272.6682 
  14   2.0000     -10.020365      -272.6680 
  15   2.0000     -10.020364      -272.6680 
  16   2.0000     -10.020357      -272.6678 
  17   2.0000     -10.004666      -272.2408 
  18   2.0000     -10.004657      -272.2406 
  19   2.0000     -10.004635      -272.2399 
  20   2.0000     -10.004620      -272.2395 
  21   2.0000     -10.002273      -272.1757 
  22   2.0000     -10.002264      -272.1754 
  23   2.0000     -10.002255      -272.1752 
  24   2.0000     -10.002223      -272.1743 
  25   2.0000      -9.990518      -271.8558 
  26   2.0000      -9.990517      -271.8558 
  27   2.0000      -9.990490      -271.8551 
  28   2.0000      -9.990472      -271.8546 
  29   2.0000      -9.990355      -271.8514 
  30   2.0000      -9.990341      -271.8510 
  31   2.0000      -9.990336      -271.8509 
  32   2.0000      -9.990328      -271.8506 
  33   2.0000      -9.990029      -271.8425 
  34   2.0000      -9.990023      -271.8423 
  35   2.0000      -9.990006      -271.8419 
  36   2.0000      -9.989995      -271.8416 
  37   2.0000      -9.989839      -271.8373 
  38   2.0000      -9.989833      -271.8372 
  39   2.0000      -9.989815      -271.8367 
  40   2.0000      -9.989810      -271.8366 
  41   2.0000      -9.989426      -271.8261 
  42   2.0000      -9.989419      -271.8259 
  43   2.0000      -9.989406      -271.8255 
  44   2.0000      -9.989393      -271.8252 
  45   2.0000      -9.983852      -271.6744 
  46   2.0000      -9.983843      -271.6742 
  47   2.0000      -9.983834      -271.6739 
  48   2.0000      -9.983825      -271.6737 
  49   2.0000      -9.983282      -271.6589 
  50   2.0000      -9.983273      -271.6587 
  51   2.0000      -9.983264      -271.6584 
  52   2.0000      -9.983255      -271.6582 
  53   2.0000      -3.872996      -105.3896 
  54   2.0000      -2.496961       -67.9458 
  55   2.0000      -2.496956       -67.9456 
  56   2.0000      -2.445204       -66.5374 
  57   2.0000      -0.908301       -24.7161 
  58   2.0000      -0.897978       -24.4352 
  59   2.0000      -0.897970       -24.4350 
  60   2.0000      -0.887037       -24.1375 
  61   2.0000      -0.809747       -22.0343 
  62   2.0000      -0.805731       -21.9250 
  63   2.0000      -0.805729       -21.9250 
  64   2.0000      -0.804110       -21.8809 
  65   2.0000      -0.769316       -20.9342 
  66   2.0000      -0.751422       -20.4472 
  67   2.0000      -0.751414       -20.4470 
  68   2.0000      -0.734880       -19.9971 
  69   2.0000      -0.716850       -19.5065 
  70   2.0000      -0.716840       -19.5062 
  71   2.0000      -0.716023       -19.4840 
  72   2.0000      -0.710930       -19.3454 
  73   2.0000      -0.694068       -18.8865 
  74   2.0000      -0.693918       -18.8825 
  75   2.0000      -0.693913       -18.8823 
  76   2.0000      -0.693849       -18.8806 
  77   2.0000      -0.689049       -18.7500 
  78   2.0000      -0.682025       -18.5588 
  79   2.0000      -0.682023       -18.5588 
  80   2.0000      -0.663995       -18.0682 
  81   2.0000      -0.659042       -17.9334 
  82   2.0000      -0.608815       -16.5667 
  83   2.0000      -0.608807       -16.5665 
  84   2.0000      -0.572247       -15.5716 
  85   2.0000      -0.560912       -15.2632 
  86   2.0000      -0.560325       -15.2472 
  87   2.0000      -0.560319       -15.2471 
  88   2.0000      -0.559708       -15.2304 
  89   2.0000      -0.555404       -15.1133 
  90   2.0000      -0.555393       -15.1130 
  91   2.0000      -0.548768       -14.9327 
  92   2.0000      -0.548515       -14.9259 
  93   2.0000      -0.534899       -14.5554 
  94   2.0000      -0.518916       -14.1204 
  95   2.0000      -0.518909       -14.1202 
  96   2.0000      -0.508061       -13.8251 
  97   2.0000      -0.502575       -13.6758 
  98   2.0000      -0.501563       -13.6482 
  99   2.0000      -0.485357       -13.2072 
 100   2.0000      -0.485353       -13.2071 
 101   2.0000      -0.479303       -13.0425 
 102   2.0000      -0.473946       -12.8967 
 103   2.0000      -0.472857       -12.8671 
 104   2.0000      -0.472852       -12.8670 
 105   2.0000      -0.459621       -12.5069 
 106   2.0000      -0.447174       -12.1682 
 107   2.0000      -0.447167       -12.1680 
 108   2.0000      -0.423665       -11.5285 
 109   2.0000      -0.417558       -11.3623 
 110   2.0000      -0.414814       -11.2877 
 111   2.0000      -0.414811       -11.2876 
 112   2.0000      -0.413591       -11.2544 
 113   2.0000      -0.411350       -11.1934 
 114   2.0000      -0.411347       -11.1933 
 115   2.0000      -0.409824       -11.1519 
 116   2.0000      -0.401979       -10.9384 
 117   2.0000      -0.389411       -10.5964 
 118   2.0000      -0.386487       -10.5169 
 119   2.0000      -0.383691       -10.4408 
 120   2.0000      -0.383685       -10.4406 
 121   2.0000      -0.382041       -10.3959 
 122   2.0000      -0.381620       -10.3844 
 123   2.0000      -0.381619       -10.3844 
 124   2.0000      -0.381129       -10.3710 
 125   2.0000      -0.380620       -10.3572 
 126   2.0000      -0.376594       -10.2476 
 127   2.0000      -0.376591       -10.2475 
 128   2.0000      -0.370154       -10.0724 
 129   2.0000      -0.364523        -9.9192 
 130   2.0000      -0.364521        -9.9191 
 131   2.0000      -0.360132        -9.7997 
 132   2.0000      -0.357843        -9.7374 
 133   2.0000      -0.355084        -9.6623 
 134   2.0000      -0.353116        -9.6088 
 135   2.0000      -0.345553        -9.4030 
 136   2.0000      -0.339548        -9.2396 
 137   2.0000      -0.339542        -9.2394 
 138   2.0000      -0.336012        -9.1434 
 139   2.0000      -0.329429        -8.9642 
 140   2.0000      -0.329424        -8.9641 
 141   2.0000      -0.317310        -8.6345 
 142   2.0000      -0.314133        -8.5480 
 143   2.0000      -0.313891        -8.5414 
 144   2.0000      -0.312244        -8.4966 
 145   2.0000      -0.310371        -8.4456 
 146   2.0000      -0.310356        -8.4452 
 147   2.0000      -0.309281        -8.4160 
 148   2.0000      -0.309271        -8.4157 
 149   2.0000      -0.308527        -8.3954 
 150   2.0000      -0.303775        -8.2661 
 151   2.0000      -0.289726        -7.8838 
 152   2.0000      -0.289721        -7.8837 
 153   2.0000      -0.287974        -7.8362 
 154   2.0000      -0.257410        -7.0045 
 155   2.0000      -0.257403        -7.0043 
 156   2.0000      -0.242792        -6.6067 
 157   2.0000      -0.242784        -6.6065 
 158   2.0000      -0.242134        -6.5888 
 159   2.0000      -0.235923        -6.4198 
 160   2.0000      -0.235707        -6.4139 
 161   2.0000      -0.234944        -6.3931 
 162   2.0000      -0.233983        -6.3670 
 163   2.0000      -0.233982        -6.3670 
 164   2.0000      -0.230533        -6.2731 
 165   2.0000      -0.230519        -6.2727 
 166   2.0000      -0.229427        -6.2430 
 167   2.0000      -0.226237        -6.1562 
 168   2.0000      -0.223282        -6.0758 
 169   2.0000      -0.186227        -5.0675 
 170   2.0000      -0.182529        -4.9669 
 171   2.0000      -0.182527        -4.9668 
 172   2.0000      -0.181298        -4.9334 
 173   2.0000      -0.179483        -4.8840 
 174   0.0000      -0.109007        -2.9662 
 175   0.0000      -0.103347        -2.8122 
 176   0.0000      -0.103343        -2.8121 
 177   0.0000      -0.054291        -1.4773 
 178   0.0000      -0.041867        -1.1393 
 179   0.0000      -0.040723        -1.1081 
 180   0.0000      -0.040713        -1.1079 
 181   0.0000      -0.039100        -1.0640 
 182   0.0000      -0.038562        -1.0493 
 183   0.0000      -0.038449        -1.0462 
 184   0.0000      -0.037408        -1.0179 
*Only the first 10 virtual orbitals were printed.

                    ********************************
                    * MULLIKEN POPULATION ANALYSIS *
                    ********************************

-----------------------
MULLIKEN ATOMIC CHARGES
-----------------------
   0 N :   -0.120320
   1 H :    0.140297
   2 C :   -0.221170
   3 C :   -0.219972
   4 N :   -0.120034
   5 C :   -0.192295
   6 H :    0.140761
   7 C :    0.232614
   8 N :   -0.120070
   9 C :   -0.191171
  10 C :   -0.030808
  11 C :    0.195078
  12 N :   -0.119459
  13 C :   -0.191843
  14 C :    0.232902
  15 C :    0.195908
  16 C :    0.195215
  17 C :    0.233880
  18 C :   -0.191762
  19 C :   -0.030282
  20 C :   -0.028543
  21 C :   -0.220198
  22 C :    0.193348
  23 C :   -0.221355
  24 C :   -0.030135
  25 C :    0.234174
  26 H :    0.141043
  27 H :    0.140342
  28 H :    0.140703
  29 H :    0.140377
  30 H :    0.140928
  31 H :    0.140429
  32 Ni:   -0.198840
  33 C :    0.007441
  34 C :   -0.163956
  35 C :   -0.131820
  36 C :   -0.087478
  37 C :   -0.141465
  38 C :   -0.155132
  39 H :    0.111552
  40 H :    0.115835
  41 H :    0.118840
  42 H :    0.115760
  43 H :    0.113263
  44 C :    0.009123
  45 C :   -0.156109
  46 C :   -0.141132
  47 C :   -0.087583
  48 C :   -0.131275
  49 C :   -0.165632
  50 H :    0.113261
  51 H :    0.115837
  52 H :    0.118856
  53 H :    0.115839
  54 H :    0.111732
  55 C :    0.011519
  56 C :   -0.168830
  57 C :   -0.130120
  58 C :   -0.088318
  59 C :   -0.139549
  60 C :   -0.158580
  61 H :    0.112162
  62 H :    0.115854
  63 H :    0.118840
  64 H :    0.115884
  65 H :    0.113216
  66 C :    0.010464
  67 C :   -0.157730
  68 C :   -0.139950
  69 C :   -0.088268
  70 C :   -0.130474
  71 C :   -0.167401
  72 H :    0.113247
  73 H :    0.115829
  74 H :    0.118855
  75 H :    0.115862
  76 H :    0.111988
Sum of atomic charges:   -0.0000000

--------------------------------
MULLIKEN REDUCED ORBITAL CHARGES
--------------------------------
  0 N s       :     3.597182  s :     3.597182
      pz      :     1.356842  p :     3.450091
      px      :     1.053950
      py      :     1.039299
      dz2     :     0.004778  d :     0.069058
      dxz     :     0.009791
      dyz     :     0.014566
      dx2y2   :     0.019122
      dxy     :     0.020801
      f0      :     0.000674  f :     0.003990
      f+1     :     0.000425
      f-1     :     0.000443
      f+2     :     0.000172
      f-2     :     0.000629
      f+3     :     0.000664
      f-3     :     0.000984

  1 H s       :     0.839301  s :     0.839301
      pz      :     0.004942  p :     0.020402
      px      :     0.007740
      py      :     0.007720

  2 C s       :     3.304959  s :     3.304959
      pz      :     0.989205  p :     2.818155
      px      :     0.904334
      py      :     0.924615
      dz2     :     0.005718  d :     0.089937
      dxz     :     0.010433
      dyz     :     0.019623
      dx2y2   :     0.018622
      dxy     :     0.035541
      f0      :     0.001309  f :     0.008120
      f+1     :     0.000792
      f-1     :     0.000675
      f+2     :     0.001030
      f-2     :     0.000559
      f+3     :     0.002366
      f-3     :     0.001390

  3 C s       :     3.304567  s :     3.304567
      pz      :     0.991211  p :     2.817341
      px      :     0.925015
      py      :     0.901115
      dz2     :     0.007136  d :     0.089945
      dxz     :     0.018207
      dyz     :     0.010578
      dx2y2   :     0.018916
      dxy     :     0.035108
      f0      :     0.001153  f :     0.008119
      f+1     :     0.000875
      f-1     :     0.000821
      f+2     :     0.000913
      f-2     :     0.000630
      f+3     :     0.001460
      f-3     :     0.002268

  4 N s       :     3.597216  s :     3.597216
      pz      :     1.348159  p :     3.449761
      px      :     1.045889
      py      :     1.055713
      dz2     :     0.005387  d :     0.069066
      dxz     :     0.014142
      dyz     :     0.010094
      dx2y2   :     0.018927
      dxy     :     0.020516
      f0      :     0.000636  f :     0.003990
      f+1     :     0.000478
      f-1     :     0.000419
      f+2     :     0.000205
      f-2     :     0.000633
      f+3     :     0.000948
      f-3     :     0.000670

  5 C s       :     3.286493  s :     3.286493
      pz      :     0.988513  p :     2.807370
      px      :     0.921878
      py      :     0.896979
      dz2     :     0.006571  d :     0.090310
      dxz     :     0.016198
      dyz     :     0.013271
      dx2y2   :     0.019143
      dxy     :     0.035127
      f0      :     0.001188  f :     0.008122
      f+1     :     0.000965
      f-1     :     0.000678
      f+2     :     0.001238
      f-2     :     0.000350
      f+3     :     0.001561
      f-3     :     0.002142

  6 H s       :     0.838719  s :     0.838719
      pz      :     0.004810  p :     0.020521
      px      :     0.006320
      py      :     0.009391

  7 C s       :     3.164852  s :     3.164852
      pz      :     0.948974  p :     2.415459
      px      :     0.762359
      py      :     0.704126
      dz2     :     0.012594  d :     0.172116
      dxz     :     0.031976
      dyz     :     0.031401
      dx2y2   :     0.053310
      dxy     :     0.042835
      f0      :     0.001704  f :     0.014958
      f+1     :     0.001116
      f-1     :     0.001500
      f+2     :     0.001153
      f-2     :     0.002301
      f+3     :     0.003792
      f-3     :     0.003391

  8 N s       :     3.597024  s :     3.597024
      pz      :     1.343369  p :     3.449989
      px      :     1.049699
      py      :     1.056921
      dz2     :     0.006045  d :     0.069066
      dxz     :     0.014023
      dyz     :     0.010084
      dx2y2   :     0.018661
      dxy     :     0.020254
      f0      :     0.000594  f :     0.003990
      f+1     :     0.000494
      f-1     :     0.000447
      f+2     :     0.000249
      f-2     :     0.000631
      f+3     :     0.000938
      f-3     :     0.000639

  9 C s       :     3.285241  s :     3.285241
      pz      :     0.985087  p :     2.807508
      px      :     0.923485
      py      :     0.898937
      dz2     :     0.009464  d :     0.090299
      dxz     :     0.015045
      dyz     :     0.012094
      dx2y2   :     0.018214
      dxy     :     0.035483
      f0      :     0.000945  f :     0.008122
      f+1     :     0.001095
      f-1     :     0.000871
      f+2     :     0.001152
      f-2     :     0.000429
      f+3     :     0.001524
      f-3     :     0.002105

 10 C s       :     3.321811  s :     3.321811
      pz      :     0.933295  p :     2.568964
      px      :     0.807071
      py      :     0.828598
      dz2     :     0.006072  d :     0.130010
      dxz     :     0.025022
      dyz     :     0.024292
      dx2y2   :     0.030400
      dxy     :     0.044224
      f0      :     0.001345  f :     0.010022
      f+1     :     0.000810
      f-1     :     0.000934
      f+2     :     0.001063
      f-2     :     0.001234
      f+3     :     0.002750
      f-3     :     0.001887

 11 C s       :     3.195054  s :     3.195054
      pz      :     0.951331  p :     2.423137
      px      :     0.770874
      py      :     0.700932
      dz2     :     0.012823  d :     0.171748
      dxz     :     0.030630
      dyz     :     0.031709
      dx2y2   :     0.049456
      dxy     :     0.047129
      f0      :     0.001641  f :     0.014982
      f+1     :     0.001036
      f-1     :     0.001690
      f+2     :     0.001526
      f-2     :     0.001964
      f+3     :     0.002479
      f-3     :     0.004645

 12 N s       :     3.597011  s :     3.597011
      pz      :     1.334537  p :     3.449378
      px      :     1.053335
      py      :     1.061506
      dz2     :     0.006763  d :     0.069078
      dxz     :     0.010743
      dyz     :     0.013213
      dx2y2   :     0.018456
      dxy     :     0.019903
      f0      :     0.000550  f :     0.003991
      f+1     :     0.000437
      f-1     :     0.000540
      f+2     :     0.000290
      f-2     :     0.000636
      f+3     :     0.000645
      f-3     :     0.000892

 13 C s       :     3.286047  s :     3.286047
      pz      :     0.983014  p :     2.807365
      px      :     0.896891
      py      :     0.927460
      dz2     :     0.009339  d :     0.090307
      dxz     :     0.014077
      dyz     :     0.013995
      dx2y2   :     0.018607
      dxy     :     0.034288
      f0      :     0.000910  f :     0.008123
      f+1     :     0.000662
      f-1     :     0.001349
      f+2     :     0.001080
      f-2     :     0.000582
      f+3     :     0.001969
      f-3     :     0.001571

 14 C s       :     3.164671  s :     3.164671
      pz      :     0.953955  p :     2.415351
      px      :     0.699260
      py      :     0.762136
      dz2     :     0.007681  d :     0.172118
      dxz     :     0.035525
      dyz     :     0.031494
      dx2y2   :     0.053947
      dxy     :     0.043471
      f0      :     0.002014  f :     0.014957
      f+1     :     0.001138
      f-1     :     0.001009
      f+2     :     0.000841
      f-2     :     0.002354
      f+3     :     0.003627
      f-3     :     0.003973

 15 C s       :     3.194370  s :     3.194370
      pz      :     0.953854  p :     2.422997
      px      :     0.697343
      py      :     0.771801
      dz2     :     0.008444  d :     0.171746
      dxz     :     0.036241
      dyz     :     0.029919
      dx2y2   :     0.049123
      dxy     :     0.048019
      f0      :     0.001965  f :     0.014980
      f+1     :     0.001359
      f-1     :     0.000883
      f+2     :     0.001378
      f-2     :     0.001911
      f+3     :     0.004912
      f-3     :     0.002571

 16 C s       :     3.195106  s :     3.195106
      pz      :     0.953242  p :     2.422975
      px      :     0.771126
      py      :     0.698607
      dz2     :     0.006516  d :     0.171723
      dxz     :     0.029289
      dyz     :     0.038427
      dx2y2   :     0.049331
      dxy     :     0.048160
      f0      :     0.002094  f :     0.014981
      f+1     :     0.000920
      f-1     :     0.001121
      f+2     :     0.001185
      f-2     :     0.001970
      f+3     :     0.002660
      f-3     :     0.005030

 17 C s       :     3.164096  s :     3.164096
      pz      :     0.952548  p :     2.414927
      px      :     0.763062
      py      :     0.699317
      dz2     :     0.006967  d :     0.172139
      dxz     :     0.030739
      dyz     :     0.037370
      dx2y2   :     0.053247
      dxy     :     0.043816
      f0      :     0.002070  f :     0.014957
      f+1     :     0.000966
      f-1     :     0.001107
      f+2     :     0.000884
      f-2     :     0.002303
      f+3     :     0.003876
      f-3     :     0.003751

 18 C s       :     3.285949  s :     3.285949
      pz      :     0.991165  p :     2.807376
      px      :     0.897124
      py      :     0.919087
      dz2     :     0.006481  d :     0.090316
      dxz     :     0.012051
      dyz     :     0.016804
      dx2y2   :     0.018807
      dxy     :     0.036173
      f0      :     0.001263  f :     0.008122
      f+1     :     0.000795
      f-1     :     0.000765
      f+2     :     0.001303
      f-2     :     0.000207
      f+3     :     0.002253
      f-3     :     0.001536

 19 C s       :     3.321969  s :     3.321969
      pz      :     0.956551  p :     2.568282
      px      :     0.815837
      py      :     0.795894
      dz2     :     0.003569  d :     0.130009
      dxz     :     0.025542
      dyz     :     0.024266
      dx2y2   :     0.030707
      dxy     :     0.045924
      f0      :     0.001521  f :     0.010022
      f+1     :     0.000766
      f-1     :     0.000758
[...]
  0-1A  -> 26-1A    3.409414   27498.8   363.7   0.003428359   0.04104  -0.20161   0.01981   0.00214
  0-1A  -> 27-1A    3.409528   27499.7   363.6   0.003478577   0.04164  -0.01921  -0.20223   0.01947
  0-1A  -> 28-1A    3.427096   27641.4   361.8   0.000021817   0.00026  -0.01606   0.00136   0.00019
  0-1A  -> 29-1A    3.440120   27746.4   360.4   0.014035273   0.16653  -0.17606  -0.36600   0.03968
  0-1A  -> 30-1A    3.440256   27747.5   360.4   0.014065859   0.16689  -0.36763   0.17798  -0.00776

----------------------------------------------------------------------------------------------------
                     ABSORPTION SPECTRUM VIA TRANSITION VELOCITY DIPOLE MOMENTS    
----------------------------------------------------------------------------------------------------
     Transition      Energy     Energy  Wavelength fosc(P2)      P2        PX        PY        PZ   
                      (eV)      (cm-1)    (nm)                 (au**2)    (au)      (au)      (au)  
----------------------------------------------------------------------------------------------------
  0-1A  ->  1-1A    1.988286   16036.6   623.6   0.000000420   0.00000  -0.00012   0.00018  -0.00002
  0-1A  ->  2-1A    2.063379   16642.3   600.9   0.000000100   0.00000   0.00011  -0.00000   0.00001
  0-1A  ->  3-1A    2.063481   16643.1   600.8   0.000000102   0.00000   0.00000   0.00011   0.00000
  0-1A  ->  4-1A    2.105203   16979.6   588.9   0.000000203   0.00000   0.00012   0.00009  -0.00001
  0-1A  ->  5-1A    2.127917   17162.8   582.7   0.000000344   0.00000   0.00000   0.00010  -0.00018
  0-1A  ->  6-1A    2.176133   17551.7   569.7   0.000000034   0.00000  -0.00005  -0.00004   0.00000
  0-1A  ->  7-1A    2.228783   17976.4   556.3   0.000001326   0.00000  -0.00003   0.00019   0.00035
  0-1A  ->  8-1A    2.299998   18550.7   539.1   0.006430945   0.00082   0.02731  -0.00835   0.00021
  0-1A  ->  9-1A    2.300229   18552.6   539.0   0.006516622   0.00083  -0.00836  -0.02737   0.00270
  0-1A  -> 10-1A    2.326513   18764.6   532.9   0.000293059   0.00004   0.00612  -0.00033  -0.00013
  0-1A  -> 11-1A    2.327410   18771.8   532.7   0.000258369   0.00003   0.00019   0.00573  -0.00052
  0-1A  -> 12-1A    2.533364   20433.0   489.4   0.000000051   0.00000  -0.00001   0.00008   0.00001
  0-1A  -> 13-1A    2.552634   20588.4   485.7   0.000001034   0.00000   0.00001   0.00015   0.00035
  0-1A  -> 14-1A    2.908565   23459.2   426.3   1.049578614   0.16828  -0.40850   0.03741   0.00334
  0-1A  -> 15-1A    2.908647   23459.8   426.3   1.049260867   0.16823   0.03698   0.40658  -0.03944
  0-1A  -> 16-1A    3.078029   24826.0   402.8   0.000001095   0.00000  -0.00032  -0.00028   0.00002
  0-1A  -> 17-1A    3.143573   25354.6   394.4   0.000062411   0.00001  -0.00020  -0.00062  -0.00322
  0-1A  -> 18-1A    3.277977   26438.7   378.2   0.000004176   0.00000  -0.00069  -0.00014  -0.00050
  0-1A  -> 19-1A    3.309435   26692.4   374.6   0.002902747   0.00053   0.02163   0.00778  -0.00113
  0-1A  -> 20-1A    3.309832   26695.6   374.6   0.002866393   0.00052   0.00763  -0.02147   0.00199
  0-1A  -> 21-1A    3.366928   27156.1   368.2   0.001974859   0.00037  -0.01510   0.01175  -0.00081
  0-1A  -> 22-1A    3.367051   27157.1   368.2   0.001996416   0.00037  -0.01136  -0.01548   0.00135
  0-1A  -> 23-1A    3.377807   27243.9   367.1   0.031230943   0.00582   0.07423  -0.01747   0.00028
  0-1A  -> 24-1A    3.377858   27244.3   367.0   0.031147983   0.00580   0.01757   0.07375  -0.00719
  0-1A  -> 25-1A    3.406816   27477.8   363.9   0.000000038   0.00000  -0.00008   0.00002  -0.00000
  0-1A  -> 26-1A    3.409414   27498.8   363.7   0.003236550   0.00061   0.02455  -0.00238  -0.00026
  0-1A  -> 27-1A    3.409528   27499.7   363.6   0.003285583   0.00062   0.00231   0.02463  -0.00234
  0-1A  -> 28-1A    3.427096   27641.4   361.8   0.000020467   0.00000   0.00196  -0.00017  -0.00002
  0-1A  -> 29-1A    3.440120   27746.4   360.4   0.013342966   0.00253   0.02172   0.04510  -0.00495
  0-1A  -> 30-1A    3.440256   27747.5   360.4   0.013367324   0.00253   0.04530  -0.02195   0.00090

------------------------------------------------------------------------------------------
                     CD SPECTRUM VIA TRANSITION ELECTRIC DIPOLE MOMENTS    
------------------------------------------------------------------------------------------
     Transition      Energy     Energy  Wavelength    R        MX        MY        MZ   
                      (eV)      (cm-1)    (nm)   (1e40*cgs)   (au)      (au)      (au)  
------------------------------------------------------------------------------------------
  0-1A  ->  1-1A    1.988286   16036.6   623.6   -0.00065   0.00106   0.00400   0.04228
  0-1A  ->  2-1A    2.063379   16642.3   600.9    0.01735   0.01405  -0.07018   0.00770
  0-1A  ->  3-1A    2.063481   16643.1   600.8   -0.01622  -0.07060  -0.01343   0.00295
  0-1A  ->  4-1A    2.105203   16979.6   588.9   -0.00048   0.00123   0.00633   0.06633
  0-1A  ->  5-1A    2.127917   17162.8   582.7   -0.00085  -0.00089  -0.00213  -0.00128
  0-1A  ->  6-1A    2.176133   17551.7   569.7   -0.00679   0.01324   0.07557   0.77102
  0-1A  ->  7-1A    2.228783   17976.4   556.3   -0.00324   0.00415  -0.00265   0.00019
  0-1A  ->  8-1A    2.299998   18550.7   539.1   11.10510   0.10467   0.10810  -0.01214
  0-1A  ->  9-1A    2.300229   18552.6   539.0  -10.76616  -0.10465   0.10021  -0.00955
  0-1A  -> 10-1A    2.326513   18764.6   532.9   -8.31401  -0.25125  -0.22524   0.02919
  0-1A  -> 11-1A    2.327410   18771.8   532.7    7.99510  -0.22879   0.25200  -0.02159
  0-1A  -> 12-1A    2.533364   20433.0   489.4    0.00129   0.00059   0.00028   0.00879
  0-1A  -> 13-1A    2.552634   20588.4   485.7   -0.00007  -0.00108  -0.00183   0.00110
  0-1A  -> 14-1A    2.908565   23459.2   426.3  -318.25518   0.17684   0.04541  -0.00803
  0-1A  -> 15-1A    2.908647   23459.8   426.3  317.93696  -0.04745   0.17615  -0.01609
  0-1A  -> 16-1A    3.078029   24826.0   402.8   -0.00971   0.01191   0.07045   0.74034
  0-1A  -> 17-1A    3.143573   25354.6   394.4    0.01151   0.00004  -0.00021  -0.00049
  0-1A  -> 18-1A    3.277977   26438.7   378.2    0.00150  -0.00084   0.00180  -0.00010
  0-1A  -> 19-1A    3.309435   26692.4   374.6    0.16611   0.01832  -0.04516   0.00409
  0-1A  -> 20-1A    3.309832   26695.6   374.6   -0.23187   0.04593   0.01901   0.00005
  0-1A  -> 21-1A    3.366928   27156.1   368.2    2.28639   0.03769   0.09446  -0.00946
  0-1A  -> 22-1A    3.367051   27157.1   368.2   -1.89637   0.09357  -0.03873   0.00031
  0-1A  -> 23-1A    3.377807   27243.9   367.1  -43.54248  -0.16462  -0.06041   0.00907
  0-1A  -> 24-1A    3.377858   27244.3   367.0   43.09452  -0.06133   0.16316  -0.01287
  0-1A  -> 25-1A    3.406816   27477.8   363.9   -0.00001   0.00028  -0.00038  -0.00445
  0-1A  -> 26-1A    3.409414   27498.8   363.7   -1.02320  -0.01081   0.00003  -0.00405
  0-1A  -> 27-1A    3.409528   27499.7   363.6    1.01088   0.00049   0.01063   0.00075
  0-1A  -> 28-1A    3.427096   27641.4   361.8    0.00760   0.00225   0.00545   0.06584
  0-1A  -> 29-1A    3.440120   27746.4   360.4  -14.16308  -0.09119  -0.03801   0.00191
  0-1A  -> 30-1A    3.440256   27747.5   360.4   14.21777   0.03792  -0.09091   0.00486

------------------------------------------------------------------------------------------
                     CD SPECTRUM VIA TRANSITION VELOCITY DIPOLE MOMENTS    
------------------------------------------------------------------------------------------
     Transition      Energy     Energy  Wavelength    R        MX        MY        MZ   
                      (eV)      (cm-1)    (nm)   (1e40*cgs)   (au)      (au)      (au)  
------------------------------------------------------------------------------------------
  0-1A  ->  1-1A    1.988286   16036.6   623.6   -0.00049   0.00106   0.00400   0.04228
  0-1A  ->  2-1A    2.063379   16642.3   600.9    0.01058   0.01405  -0.07018   0.00770
  0-1A  ->  3-1A    2.063481   16643.1   600.8   -0.00921  -0.07060  -0.01343   0.00295
  0-1A  ->  4-1A    2.105203   16979.6   588.9    0.00002   0.00123   0.00633   0.06633
  0-1A  ->  5-1A    2.127917   17162.8   582.7    0.00011  -0.00089  -0.00213  -0.00128
  0-1A  ->  6-1A    2.176133   17551.7   569.7   -0.01550   0.01324   0.07557   0.77102
  0-1A  ->  7-1A    2.228783   17976.4   556.3   -0.00319   0.00415  -0.00265   0.00019
  0-1A  ->  8-1A    2.299998   18550.7   539.1   10.89148   0.10467   0.10810  -0.01214
  0-1A  ->  9-1A    2.300229   18552.6   539.0  -10.56039  -0.10465   0.10021  -0.00955
  0-1A  -> 10-1A    2.326513   18764.6   532.9   -8.09571  -0.25125  -0.22524   0.02919
  0-1A  -> 11-1A    2.327410   18771.8   532.7    7.78109  -0.22879   0.25200  -0.02159
  0-1A  -> 12-1A    2.533364   20433.0   489.4    0.00050   0.00059   0.00028   0.00879
  0-1A  -> 13-1A    2.552634   20588.4   485.7    0.00052  -0.00108  -0.00183   0.00110
  0-1A  -> 14-1A    2.908565   23459.2   426.3  -311.25118   0.17684   0.04541  -0.00803
  0-1A  -> 15-1A    2.908647   23459.8   426.3  310.94956  -0.04745   0.17615  -0.01609
  0-1A  -> 16-1A    3.078029   24826.0   402.8   -0.02404   0.01191   0.07045   0.74034
  0-1A  -> 17-1A    3.143573   25354.6   394.4    0.00698   0.00004  -0.00021  -0.00049
  0-1A  -> 18-1A    3.277977   26438.7   378.2    0.00146  -0.00084   0.00180  -0.00010
  0-1A  -> 19-1A    3.309435   26692.4   374.6    0.15726   0.01832  -0.04516   0.00409
  0-1A  -> 20-1A    3.309832   26695.6   374.6   -0.22347   0.04593   0.01901   0.00005
  0-1A  -> 21-1A    3.366928   27156.1   368.2    2.08856   0.03769   0.09446  -0.00946
  0-1A  -> 22-1A    3.367051   27157.1   368.2   -1.76244   0.09357  -0.03873   0.00031
  0-1A  -> 23-1A    3.377807   27243.9   367.1  -42.39331  -0.16462  -0.06041   0.00907
  0-1A  -> 24-1A    3.377858   27244.3   367.0   41.96012  -0.06133   0.16316  -0.01287
  0-1A  -> 25-1A    3.406816   27477.8   363.9   -0.00009   0.00028  -0.00038  -0.00445
  0-1A  -> 26-1A    3.409414   27498.8   363.7   -0.99423  -0.01081   0.00003  -0.00405
  0-1A  -> 27-1A    3.409528   27499.7   363.6    0.98270   0.00049   0.01063   0.00075
  0-1A  -> 28-1A    3.427096   27641.4   361.8    0.00937   0.00225   0.00545   0.06584
  0-1A  -> 29-1A    3.440120   27746.4   360.4  -13.81313  -0.09119  -0.03801   0.00191
  0-1A  -> 30-1A    3.440256   27747.5   360.4   13.86422   0.03792  -0.09091   0.00486

Total run time:     7920.866 sec

           *** ORCA-CIS/TD-DFT FINISHED WITHOUT ERROR ***
-----------------------
CIS/TD-DFT TOTAL ENERGY
-----------------------

    E(SCF)  =  -3422.104383362 Eh
    DE(CIS) =      0.073068167 Eh (Root  1)
    ----------------------------- ---------
    E(tot)  =  -3422.031315195 Eh


Maximum memory used throughout the entire CIS-calculation: 3000.8 MB
=> NOW LEAVING ORCA_CIS

-------------------------   --------------------
FINAL SINGLE POINT ENERGY     -3422.031315195144
-------------------------   --------------------



           ************************************************************
           *        Program running with 8 parallel MPI-processes     *
           *              working on a common directory               *
           ************************************************************

------------------------------------------------------------------------------
                              ORCA PROPERTY CALCULATIONS
------------------------------------------------------------------------------

GBWName                                 ... tddft.gbw
Number of atoms                         ...     77
Number of basis functions               ...   1701
Max core memory                         ...   3000 MB

Electric properties:
Dipole moment                           ... YES
Quadrupole moment                       ...  NO
Static polarizability (Dipole/Dipole)   ...  NO
Static polarizability (Dipole/Quad.)    ...  NO
Static polarizability (Quad./Quad.)     ...  NO
Static polarizability (Velocity)        ...  NO
Static hyperpolarizability              ...  NO

Atomic electric properties:
Dipole moment                           ...  NO
Quadrupole moment                       ...  NO
Static polarizability                   ...  NO

Choice of electric origin               ... Center of mass
Position of electric origin             ...    -0.159814     5.089039     6.549058

General magnetic properties:
Magnetizability                         ...  NO

EPR properties:
g-Tensor (aka g-matrix)                 ...  NO
Zero-Field splitting spin-orbit         ...  NO
Zero-field splitting spin-spin          ...  NO
Hyperfine couplings                     ...  NO (   0 nuclei)
Quadrupole couplings                    ...  NO (   0 nuclei)
Contact density                         ...  NO (   0 nuclei)

NMR properties:
Chemical shifts                         ...  NO (   0 nuclei)
Spin-rotation constants                 ...  NO (   0 nuclei)
Spin-spin couplings                     ...  NO (   0 nuclei,    0 pairs)

Choice of magnetic origin               ... GIAO
Position of magnetic origin             ...     0.000000     0.000000     0.000000

Properties with geometric perturbations:
SCF Hessian                             ...  NO
IR spectrum                             ...  NO
VCD spectrum                            ...  NO
X-ray spectroscopy properties:
SCF XES/XAS/RIXS spectra                ...  NO

SCF SOC stabilization energy            ...  NO
Diagonal Born-Oppenheimer correction    ...  NO

-------------
DIPOLE MOMENT
-------------

Method             : SCF
Type of density    : Electron Density
Multiplicity       :   1
Irrep              :   0
Energy             : -3422.1043833620406076 Eh
Basis              : AO
                                X                 Y                 Z
Electronic contribution:     -0.005727677       0.003358631       0.042147545
Nuclear contribution   :      0.005414661      -0.002778073      -0.045013959
                        -----------------------------------------
Total Dipole Moment    :     -0.000313016       0.000580558      -0.002866414
                        -----------------------------------------
Magnitude (a.u.)       :      0.002941319
Magnitude (Debye)      :      0.007476238



--------------------
Rotational spectrum 
--------------------
 
Rotational constants in cm-1:             0.001955             0.001954             0.001054 
Rotational constants in MHz :            58.611694            58.584940            31.604966 

Dipole components along the rotational axes: 
x,y,z [a.u.] :    -0.000599     0.000660    -0.002803 
x,y,z [Debye]:    -0.001522     0.001677    -0.007125 

 

Dipole moment calculation done in   0.3 sec 

Maximum memory used throughout the entire PROP-calculation: 235.5 MB

--------------------------------
SUGGESTED CITATIONS FOR THIS RUN
--------------------------------

Below you find a list of papers that are relevant to this ORCA run
We neither can nor want to force you to cite these papers, but we appreciate if you do
You receive ORCA, which is the product of decades of hard work by many enthusiastic individuals, for free
The only thing we kindly ask in return is that you cite our papers,
We deeply appreciate it, if you show your appreciation for ORCA by not just citing the generic ORCA reference.

Please note that relegating all ORCA citations to the supporting information does *not* help us.
SI sections are not indexed - citations you put there will not count into any citation statistics
But we need these citations in order to attract the funding resources that allow us to do what we are doing

Therefore, if you are a happy ORCA user, please consider citing a few of the papers listed below in the main body of your paper

In addition to the list printed below, the program has created the file tddft.bibtex that contains the list in bibtex format
You can import this file easily into all common literature databanks and citation aid programs

It goes without saying that in many instances, there are alternative algorithms to achieve similar
results as the ones you have gotten from ORCA. It is, of course, also the case that in some instances
ORCA just re-implements algorithms worked out by others. We are fully aware of that and we are also
fully appreciative of our colleagues work. Hence this citation list should not be read as indicating
that the listed papers, which are focused on our own work, are the only ones worth citing. It simply
meant to make it easier for users to cite ORCA specific papers. It is not a substitute for doing your
own literature research and citing the relevant literature in a scientifically appropriate manner.

List of essential papers. We consider these as the minimum necessary citations

  1. Neese, F.
     Software update: the ORCA program system, version 6.0
     WIRES Comput. Molec. Sci. 2025 15(1), e70019
     doi.org/10.1002/wcms.70019

List of papers to cite with high priority. The work reported in these papers was absolutely
necessary for this run to complete.
Our perspective: the developers of density functionals and basis sets usually get cited in chemistry papers
Good! But without the algorithms to do something with them, the functionals or basis sets would not do anything.
Hence, in our opinion, the algorithm design and method developments papers are equally worthy of getting cited

  1. Neese, F.; Olbrich, G.
     Efficient use of the resolution of the identity approximation in time-dependent density functional calculations with hybrid density functionals
     Chem. Phys. Lett. 2002 362 , 170-178
     doi.org/10.1016/s0009-2614(02)01053-9
  2. Neese, F.
     An improvement of the resolution of the identity approximation for the formation of the Coulomb matrix
     J. Comp. Chem. 2003 24(14), 1740-1747
     doi.org/10.1002/jcc.10318
  3. Garcia-Rates, M.; Neese, F.
     Effect of the Solute Cavity on the Solvation Energy and its Derivatives within the Framework of the Gaussian Charge Scheme
     J. Comput. Chem. 2020 41 , 922-939
     doi.org/10.1002/jcc.26139
  4. Neese, F.
     The SHARK Integral Generation and Digestion System
     J. Comp. Chem. 2022 44(3), 381
     doi.org/10.1002/jcc.26942

List of suggested additional citations. These are papers that are important in the 'surrounding' of 
of this run, or papers that preceded the highly important papers. If you like your results we are grateful for a citation.

  1. Neese, F.
     The ORCA program system
     WIRES Comput. Molec. Sci. 2012 2(1), 73-78
     doi.org/10.1002/wcms.81
  2. Neese, F.
     Software update: the ORCA program system, version 4.0
     WIRES Comput. Molec. Sci. 2018 8(1), 1-6
     doi.org/10.1002/wcms.1327
  3. Neese, F.; Wennmohs, F.; Becker, U.; Riplinger, C.
     The ORCA quantum chemistry program package
     J. Chem. Phys. 2020 152(22), 224108
     doi.org/10.1063/5.0004608
  4. Neese, F.
     Software update: The ORCA program system—Version 5.0
     WIRES Comput. Molec. Sci. 2022 12(1), e1606
     doi.org/10.1002/wcms.1606

List of optional additional citations

  1. Neese, F.
     Approximate second-order SCF convergence for spin unrestricted wavefunctions
     Chem. Phys. Lett. 2000 325(1-3), 93-98
     doi.org/10.1016/s0009-2614(00)00662-x

Timings for individual modules:

Sum of individual times          ...     9283.850 sec (= 154.731 min)
Startup calculation              ...       43.116 sec (=   0.719 min)   0.5 %
SCF iterations                   ...     1300.514 sec (=  21.675 min)  14.0 %
Property integrals               ...       11.063 sec (=   0.184 min)   0.1 %
Property calculations            ...        5.536 sec (=   0.092 min)   0.1 %
CIS module                       ...     7923.620 sec (= 132.060 min)  85.3 %
                             ****ORCA TERMINATED NORMALLY****
TOTAL RUN TIME: 0 days 2 hours 34 minutes 44 seconds 575 msec
