
                                 *****************
                                 * O   R   C   A *
                                 *****************

                                            #,                                       
                                            ###                                      
                                            ####                                     
                                            #####                                    
                                            ######                                   
                                           ########,                                 
                                     ,,################,,,,,                         
                               ,,#################################,,                 
                          ,,##########################################,,             
                       ,#########################################, ''#####,          
                    ,#############################################,,   '####,        
                  ,##################################################,,,,####,       
                ,###########''''           ''''###############################       
              ,#####''   ,,,,##########,,,,          '''####'''          '####       
            ,##' ,,,,###########################,,,                        '##       
           ' ,,###''''                  '''############,,,                           
         ,,##''                                '''############,,,,        ,,,,,,###''
      ,#''                                            '''#######################'''  
     '                                                          ''''####''''         
             ,#######,   #######,   ,#######,      ##                                
            ,#'     '#,  ##    ##  ,#'     '#,    #''#        ,####,    ,#,          
            ##       ##  ##   ,#'  ##            #'  '#       #'       ,# #          
            ##       ##  #######   ##           ,######,      #####,      #          
            '#,     ,#'  ##    ##  '#,     ,#' ,#      #,     #,   #      #          
             '#######'   ##     ##  '#######'  #'      '#     '####' #    #          



                #########################################################
                #                        -***-                          #
                #          Department of theory and spectroscopy        #
                #                                                       #
                #                      Frank Neese                      #
                #                                                       #
                #     Directorship, Architecture, Infrastructure        #
                #                    SHARK, DRIVERS                     #
                #        Core code/Algorithms in most modules           #
                #                                                       #
                #        Max Planck Institute fuer Kohlenforschung      #
                #                Kaiser Wilhelm Platz 1                 #
                #                 D-45470 Muelheim/Ruhr                 #
                #                      Germany                          #
                #                                                       #
                #                  All rights reserved                  #
                #                        -***-                          #
                #########################################################


                         Program Version 6.1.1  -  RELEASE   -
                                (GIT: $487d211c$)
                          ($2025-11-21 10:33:24 +0100$)


 With contributions from (in alphabetic order):
[Max-Planck-Institut fuer Kohlenforschung]                               
  Daniel Aravena         : Magnetic Suceptibility                        
  Michael Atanasov       : Ab Initio Ligand Field Theory (pilot matlab implementation)
  Alexander A. Auer      : GIAO ZORA, VPT2 properties, NMR spectrum      
  Ute Becker             : All parallelization in ORCA, NUMFREQ, NUMCALC 
  Giovanni Bistoni       : ED, misc. LED, open-shell LED, HFLD           
  Dmytro Bykov           : pre 5.0 version of the SCF Hessian            
  Marcos Casanova-Páez   : Triplet and SCS-CIS(D). UHF-(DLPNO)-IP/EA/STEOM-CCSD. UHF-CVS-IP/STEOM-CCSD   
  Vijay G. Chilkuri      : MRCI spin determinant printing, contributions to CSF-ICE 
  Pauline Colinet        : FMM embedding                                 
  Dipayan Datta          : RHF DLPNO-CCSD density                        
  Achintya Kumar Dutta   : EOM-CC, STEOM-CC                              
  Nicolas Foglia         : Exact transition moments, OPA infrastructure, MCD improvements    
  Dmitry Ganyushin       : Spin-Orbit,Spin-Spin,Magnetic field MRCI      
  Miquel Garcia-Rates    : C-PCM and meta-GGA Hessian, CCSD/C-PCM, Gaussian charge scheme 
  Tiago L. C. Gouveia    : GS-ROHF, GS-ROCIS                             
  Yang Guo               : DLPNO-NEVPT2, F12-NEVPT2, CIM, IAO-localization        
  Andreas Hansen         : Spin unrestricted coupled pair/coupled cluster methods 
  Ingolf Harden          : AUTO-CI MPn and infrastructure                
  Benjamin Helmich-Paris : MC-RPA, TRAH-(SCF,CASSCF), AVAS, COSX integrals, SCF dyn. polar., MC-PDFT, srDFT 
  Lee Huntington         : MR-EOM, pCC                                   
  Robert Izsak           : Overlap fitted RIJCOSX, COSX-SCS-MP3, EOM     
  Riya Kayal             : Wick's Theorem for AUTO-CI, AUTO-CI UHF-CCSDT 
  Emily Kempfer          : AUTO-CI RHF CISDT and CCSDT, approximate NEVPT4
  Christian Kollmar      : KDIIS, OOCD, Brueckner-CCSD(T), CCSD density, CASPT2, CASPT2-K, improved NEVPT2 
  Axel Koslowski         : Symmetry handling                             
  Simone Kossmann        : meta-GGA functionals, TD-DFT gradient, OOMP2, (MP2 Hessian; deprecated post 5.0) 
  Lucas Lang             : DCDCAS, Hyperfine gauge corrections, ICE-SOC+SSC
  Marvin Lechner         : AUTO-CI (C++ implementation), FIC-MRCC        
  Spencer Leger          : CASSCF response                               
  Dagmar Lenk            : GEPOL surface, SMD, ORCA-2-JSON               
  Dimitrios Liakos       : Extrapolation schemes; Compound Job, Property file
  Dimitrios Manganas     : Further ROCIS development; embedding schemes. LFT, Crystal Embedding 
  Dimitrios Pantazis     : SARC Basis sets                               
  Anastasios Papadopoulos: AUTO-CI, single reference methods and gradients 
  Taras Petrenko         : pre 6.0 DFT Hessian and TD-DFT gradient,  ECA, NRVS 
  Petra Pikulova         : Analytic Raman intensities                    
  Peter Pinski           : DLPNO-MP2, DLPNO-MP2 Gradient                 
  Shashank Vittal Rao    : ES-AILFT, MagRelax                            
  Christoph Reimann      : Effective Core Potentials                     
  Marius Retegan         : Local ZFS, SOC                                
  Christoph Riplinger    : Optimizer, TS searches, QM/MM, DLPNO-CCSD(T), (RO)-DLPNO pert. Triples 
  Michael Roemelt        : Original ROCIS implementation, recursive CI coupling coefficients
  Masaaki Saitow         : Open-shell DLPNO-CCSD energy and density      
  Barbara Sandhoefer     : DKH picture change effects                    
  Yorick L. A. Schmerwitz: GMF and freeze-and-release deltaSCF, NEB S-IDPP initial path                    
  Kantharuban Sivalingam : CASSCF convergence/infrastructure, NEVPT2, NEVPT3, NEVPT4(SD), FIC-MRCI and CEPA variants
  Bernardo de Souza      : ESD, SOC TD-DFT                               
  Georgi L. Stoychev     : AutoAux, RI-MP2 NMR, DLPNO-MP2 response, X2C  
  Van Anh Tran           : RI-MP2 g-tensors                              
  Willem Van den Heuvel  : Paramagnetic NMR                              
  Zikuan Wang            : NOTCH, Electric field optimization            
  Frank Wennmohs         : Technical directorship and infrastructure     
  Hang Xu                : AUTO-CI-Response properties                   
                                                                         
[FACCTs GmbH]                                                            
  Markus Bursch, Nicolas Foglia, Miquel Garcia-Rates, Ingolf Harden, Hagen Neugebauer, Anastasios Papadopoulos, 
  Christoph Riplinger, Bernardo de Souza, Georgi L. Stoychev                                                    
                                                                 
  APM, various basis sets, CI-OPT, improved COSX, DLPNO-Multilevel,           
  DOCKER, DRACO, updates on ESD, Fragmentator, GOAT, IRC, LR-CPCM, L-BFGS, MBIS, meta-GGA TD-DFT gradient, ML-optimized integration grids, 
  MM, NACMEs, nearIR, NEB, NEB-TS, NL-DFT gradient (VV10), 2- and 3-layer-ONIOM, interface openCOSMO-RS, QMMM,   
  Crystal-QMMM, RESP, rigid body optimization, SF, symmetry and pop. for TD-DFT, various functionals, SOLVATOR                                   
                                                                         
[Other institutions]                                                     
  V. Asgeirsson          : NEB                                           
  Christoph Bannwarth    : sTDA-DFT, sTD-DFT, PBEh-3c, B97-3c, D3        
  Giovanni Bistoni       : ETS/NOCV, ADLD/ADEX, COVALED                  
  Martin Brehm           : Molecular dynamics                            
  Ronald Cardenas        : ETS/NOCV                                      
  Martina Colucci        : COVALED                                       
  Sebastian Ehlert       : rSCAN, r2SCAN, r2SCAN-3c, D4, dhf basis sets  
  Marvin Friede          : D4 for Fr, Ra, Ac-Lr                          
  Lars Goerigk           : TD-DFT with DH, B97 family of functionals     
  Stefan Grimme          : VdW corrections, initial TS optimization, DFT functionals, gCP, sTDA/sTD-DF 
  Waldemar Hujo          : DFT-NL                                        
  H. Jonsson             : NEB                                           
  Holger Kruse           : gCP                                           
  Marcel Mueller         : wB97X-3c, vDZP basis set                      
  Hagen Neugebauer       : wr2SCAN, Native XTB                           
  Gianluca Regni         : ADLD/ADEX                                     
  Tobias Risthaus        : pre 6.0 range-separated hybrid DFT and stability analysis
  Lukas Wittmann         : regularized MP2, r2SCAN double-hybrids, wr2SCAN        
                                                                         
We gratefully acknowledge several colleagues who have allowed us to      
interface, adapt or use parts of their codes:                            
  Ed Valeev, F. Pavosevic, A. Kumar             : LibInt (2-el integral package), F12 methods 
  Garnet Chan, S. Sharma, J. Yang, R. Olivares  : DMRG                   
  Ulf Ekstrom                                   : XCFun DFT Library      
  Mihaly Kallay                                 : mrcc  (arbitrary order and MRCC methods)
  Frank Weinhold                                : gennbo (NPA and NBO analysis)           
  Simon Mueller                                 : openCOSMO-RS                            
  Christopher J. Cramer and Donald G. Truhlar   : smd solvation model                     
  S Lehtola, MJT Oliveira, MAL Marques          : LibXC Library                           
  Liviu Ungur et al                             : ANISO software                          


 Your calculation uses the libint2 library for the computation of 2-el integrals
 For citations please refer to: http://libint.valeyev.net

 Your ORCA version has been built with support for libXC version: 7.0.0
 For citations please refer to: https://libxc.gitlab.io

 This ORCA versions uses:
   CBLAS   interface :  Fast vector & matrix operations
   LAPACKE interface :  Fast linear algebra routines
   SCALAPACK package :  Parallel linear algebra routines
   Shared memory     :  Shared parallel matrices
   BLAS/LAPACK       :  OpenBLAS 0.3.29  USE64BITINT DYNAMIC_ARCH NO_AFFINITY Haswell SINGLE_THREADED
        Core in use  :  Haswell
   Copyright (c) 2011-2014, The OpenBLAS Project


  ***********************************
  * Starting time: Thu Jun 18 17:59:36 2026
  * Host name:     steezy
  * Process ID:    4038804
  * Working dir.:  /home/jannes/metaltpp/nitpp/02_tddft_tda_comparison/runs/tdaon_m062x
  ***********************************

NOTE: MaxCore=3000 MB was set to SCF,MP2,MDCI,CIPSI,MRCI,RASCI and CIS
      => If you want to overwrite this, your respective input block should be placed after the MaxCore statement


***************************************
The coordinates will be read from file: /home/jannes/metaltpp/nitpp/01_opt/nitpp_opt_b3lyp_tzvp.xyz
***************************************


XCFun DFT library Copyright 2009-2010 Ulf Ekstrom and contributors.
See http://admol.org/xcfun for more information.
This is free software; see the source code for copying conditions.
There is ABSOLUTELY NO WARRANTY; not even for MERCHANTABILITY or FITNESS FOR A PARTICULAR PURPOSE.
For details see the documentation.
Scientific users of this library should cite U. Ekstrom, L. Visscher, R. Bast, A. J. Thorvaldsen and K. Ruud;
J.Chem.Theor.Comp. 2010, DOI: 10.1021/ct100117s
XCFun Version 0.99 

================================================================================

----- Orbital basis set information -----
Your calculation utilizes the basis: def2-TZVP
   F. Weigend and R. Ahlrichs, Phys. Chem. Chem. Phys. 7, 3297 (2005).

----- AuxJ basis set information -----
Your calculation utilizes the auxiliary basis: def2/J
   H-Rn: F. Weigend, Phys. Chem. Chem. Phys. 8, 1057 (2006).
   Fr-Lr: K. Eichkorn, F. Weigend, O. Treutler, R. Ahlrichs; Theor. Chem. Acc. 97, 119 (1997).

================================================================================
                                        WARNINGS
                       Please study these warnings very carefully!
================================================================================

WARNING: Functional chosen is sensitive to the integration grid.
         DEFGRID3 seems to be a minimum grid for robust results!

WARNING: CIS/ROCIS methods need fully converged wavefunctions
  ===> : Setting SCFConvForced true
         You can overwrite this default with %scf ConvForced false 


================================================================================
                                       INPUT FILE
================================================================================
NAME = tddft.inp
|  1> %pal nprocs 8 end
|  2> %maxcore 3000
|  3> ! M062X def2-TZVP def2/J RIJCOSX DefGrid3 TightSCF CPCM(Toluene)
|  4> %tddft
|  5>   nroots 30
|  6>   triplets false
|  7> end
|  8> * xyzfile 0 1 /home/jannes/metaltpp/nitpp/01_opt/nitpp_opt_b3lyp_tzvp.xyz
|  9> 
| 10>                          ****END OF INPUT****
================================================================================

                       ****************************
                       * Single Point Calculation *
                       ****************************

---------------------------------
CARTESIAN COORDINATES (ANGSTROEM)
---------------------------------
  N     -2.033380    2.525664    3.519664
  H      1.686682   -2.144824    4.059556
  C     -4.280853    2.993931    3.766152
  C     -0.360844   -1.512596    3.618564
  N      0.086819    0.752407    3.646252
  C      0.955283   -1.371831    3.895622
  H     -0.924554   -2.424161    3.518230
  C      2.790429    1.898765    3.753177
  N     -0.256609    4.633140    3.280862
  C     -1.124474    6.767732    3.145003
  C      2.515097    0.563846    4.020529
  C      2.595196    3.981672    3.108447
  N      1.863822    2.861301    3.423752
  C      4.000691    3.716250    3.247168
  C     -0.906551   -0.188363    3.499145
  C      1.235093    0.037765    3.892254
  C     -2.771027    1.368021    3.446422
  C     -2.951776    3.535875    3.691852
  C     -4.172038    1.658978    3.579646
  C     -2.262901    0.077270    3.360352
  C     -2.672389    4.896557    3.690839
  C      4.119748    2.439875    3.677935
  C     -1.398943    5.384572    3.422037
  C      0.181889    6.849504    2.805013
  C      2.080619    5.234553    2.796373
  C      0.728480    5.525740    2.925114
  H     -5.175347    3.571462    3.924441
  H     -4.958431    0.923724    3.562914
  H      5.020850    1.899007    3.910910
  H      4.783899    4.432208    3.064773
  H      0.738578    7.723314    2.512963
  H     -1.853252    7.559573    3.179091
  Ni    -0.084553    2.693124    3.467765
  C      3.637637   -0.358335    4.375634
  C      4.515453   -0.838049    3.400447
  C      5.551851   -1.701041    3.739387
  C      5.727802   -2.097196    5.060877
  C      4.859729   -1.626700    6.039832
  C      3.822009   -0.765690    5.698863
  H      4.379479   -0.535160    2.369482
  H      6.220173   -2.065920    2.969070
  H      6.535147   -2.768694    5.325475
  H      4.989489   -1.928550    7.071899
  H      3.147911   -0.401093    6.464260
  C     -3.219097   -1.060724    3.195776
  C     -3.774925   -1.336143    1.944255
  C     -4.668917   -2.388641    1.778904
  C     -5.024319   -3.180592    2.865070
  C     -4.480038   -2.913588    4.116750
  C     -3.584179   -1.862614    4.279968
  H     -3.500016   -0.721577    1.095800
  H     -5.086426   -2.589558    0.799907
  H     -5.721351   -3.999503    2.737569
  H     -4.754659   -3.522074    4.969686
  H     -3.166023   -1.655401    5.257388
  C     -3.785095    5.873238    3.900709
  C     -4.710474    6.144049    2.889664
  C     -5.737047    7.059821    3.092564
  C     -5.855551    7.718743    4.311586
  C     -4.939830    7.457879    5.324828
  C     -3.911925    6.543768    5.119470
  H     -4.619010    5.636359    1.937324
  H     -6.442728    7.260305    2.295698
  H     -6.655395    8.431370    4.470125
  H     -5.024812    7.964904    6.278142
  H     -3.200748    6.342684    5.911260
  C      3.027914    6.317709    2.389853
  C      3.552570    6.344247    1.095590
  C      4.438292    7.343878    0.707557
  C      4.816783    8.331488    1.610143
  C      4.303897    8.313067    2.902733
  C      3.416318    7.314509    3.288450
  H      3.260167    5.576770    0.389452
  H      4.831396    7.350425   -0.301672
  H      5.507439    9.109363    1.309081
  H      4.596592    9.075150    3.614585
  H      3.022811    7.301348    4.297447

----------------------------
CARTESIAN COORDINATES (A.U.)
----------------------------
  NO LB      ZA    FRAG     MASS         X           Y           Z
   0 N     7.0000    0    14.007   -3.842532    4.772813    6.651201
   1 H     1.0000    0     1.008    3.187367   -4.053130    7.671449
   2 C     6.0000    0    12.011   -8.089639    5.657709    7.116996
   3 C     6.0000    0    12.011   -0.681896   -2.858392    6.838095
   4 N     7.0000    0    14.007    0.164063    1.421843    6.890418
   5 C     6.0000    0    12.011    1.805223   -2.592385    7.361658
   6 H     1.0000    0     1.008   -1.747154   -4.581000    6.648492
   7 C     6.0000    0    12.011    5.273146    3.588147    7.092476
   8 N     7.0000    0    14.007   -0.484921    8.755365    6.199930
   9 C     6.0000    0    12.011   -2.124949   12.789160    5.943194
  10 C     6.0000    0    12.011    4.752845    1.065515    7.597698
  11 C     6.0000    0    12.011    4.904209    7.524269    5.874113
  12 N     7.0000    0    14.007    3.522113    5.407074    6.469953
  13 C     6.0000    0    12.011    7.560210    7.022695    6.136257
  14 C     6.0000    0    12.011   -1.713133   -0.355954    6.612426
  15 C     6.0000    0    12.011    2.333987    0.071365    7.355294
  16 C     6.0000    0    12.011   -5.236483    2.585186    6.512794
  17 C     6.0000    0    12.011   -5.578048    6.681834    6.976589
  18 C     6.0000    0    12.011   -7.884009    3.135014    6.764550
  19 C     6.0000    0    12.011   -4.276263    0.146020    6.350144
  20 C     6.0000    0    12.011   -5.050083    9.253152    6.974675
  21 C     6.0000    0    12.011    7.785195    4.610696    6.950290
  22 C     6.0000    0    12.011   -2.643618   10.175366    6.466712
  23 C     6.0000    0    12.011    0.343720   12.943687    5.300707
  24 C     6.0000    0    12.011    3.931801    9.891872    5.284379
  25 C     6.0000    0    12.011    1.376627   10.442135    5.527664
  26 H     1.0000    0     1.008   -9.779989    6.749085    7.416119
  27 H     1.0000    0     1.008   -9.370077    1.745585    6.732932
  28 H     1.0000    0     1.008    9.488032    3.588603    7.390549
  29 H     1.0000    0     1.008    9.040260    8.375660    5.791581
  30 H     1.0000    0     1.008    1.395710   14.594948    4.748811
  31 H     1.0000    0     1.008   -3.502139   14.285522    6.007611
  32 Ni   28.0000    0    58.700   -0.159781    5.089267    6.553126
  33 C     6.0000    0    12.011    6.874137   -0.677156    8.268751
  34 C     6.0000    0    12.011    8.532970   -1.583683    6.425913
  35 C     6.0000    0    12.011   10.491478   -3.214502    7.066417
  36 C     6.0000    0    12.011   10.823978   -3.963126    9.563671
  37 C     6.0000    0    12.011    9.183557   -3.074017   11.413627
  38 C     6.0000    0    12.011    7.222551   -1.446944   10.769290
  39 H     1.0000    0     1.008    8.276016   -1.011305    4.477672
  40 H     1.0000    0     1.008   11.754423   -3.904022    5.610729
  41 H     1.0000    0     1.008   12.349639   -5.232073   10.063689
  42 H     1.0000    0     1.008    9.428767   -3.644431   13.363952
  43 H     1.0000    0     1.008    5.948689   -0.757957   12.215682
  44 C     6.0000    0    12.011   -6.083213   -2.004477    6.039142
  45 C     6.0000    0    12.011   -7.133575   -2.524945    3.674110
  46 C     6.0000    0    12.011   -8.822975   -4.513878    3.361641
  47 C     6.0000    0    12.011   -9.494587   -6.010447    5.414198
  48 C     6.0000    0    12.011   -8.466046   -5.505884    7.779530
  49 C     6.0000    0    12.011   -6.773117   -3.519830    8.087967
  50 H     1.0000    0     1.008   -6.614072   -1.363584    2.070762
  51 H     1.0000    0     1.008   -9.611953   -4.893555    1.511605
  52 H     1.0000    0     1.008  -10.811787   -7.557965    5.173256
  53 H     1.0000    0     1.008   -8.985003   -6.655756    9.391346
  54 H     1.0000    0     1.008   -5.982916   -3.128255    9.935023
  55 C     6.0000    0    12.011   -7.152794   11.098812    7.371271
  56 C     6.0000    0    12.011   -8.901506   11.610570    5.460674
  57 C     6.0000    0    12.011  -10.841448   13.341128    5.844098
  58 C     6.0000    0    12.011  -11.065388   14.586310    8.147717
  59 C     6.0000    0    12.011   -9.334925   14.093349   10.062468
  60 C     6.0000    0    12.011   -7.392467   12.365929    9.674396
  61 H     1.0000    0     1.008   -8.728664   10.651175    3.661012
  62 H     1.0000    0     1.008  -12.174991   13.719987    4.338240
  63 H     1.0000    0     1.008  -12.576875   15.932979    8.447313
  64 H     1.0000    0     1.008   -9.495519   15.051486   11.863968
  65 H     1.0000    0     1.008   -6.048537   11.985936   11.170663
  66 C     6.0000    0    12.011    5.721928   11.938740    4.516167
  67 C     6.0000    0    12.011    6.713385   11.988890    2.070366
  68 C     6.0000    0    12.011    8.387156   13.877918    1.337089
  69 C     6.0000    0    12.011    9.102400   15.744232    3.042730
  70 C     6.0000    0    12.011    8.133186   15.709419    5.485371
  71 C     6.0000    0    12.011    6.455905   13.822419    6.214270
  72 H     1.0000    0     1.008    6.160823   10.538569    0.735958
  73 H     1.0000    0     1.008    9.130015   13.890290   -0.570077
  74 H     1.0000    0     1.008   10.407551   17.214201    2.473805
  75 H     1.0000    0     1.008    8.686300   17.149548    6.830575
  76 H     1.0000    0     1.008    5.712286   13.797549    8.120998

--------------------------------
INTERNAL COORDINATES (ANGSTROEM)
--------------------------------
 N      0   0   0     0.000000000000     0.00000000     0.00000000
 H      1   0   0     5.995315508272     0.00000000     0.00000000
 C      1   2   0     2.308931053632   138.79490074     0.00000000
 C      2   1   3     2.187818188686    34.51509210    28.46924667
 N      4   2   1     2.308984119046    95.71664910     5.98864078
 C      2   1   3     1.076725224652     6.02819997    52.25655203
 H      4   2   1     1.076469392692   105.31736084   185.45002408
 C      5   4   2     2.938550259804   124.15914566     9.70481593
 N      1   2   6     2.766838542197   101.69406723   220.83270345
 C      9   1   2     2.308274917556   117.90564310   183.06361943
 C      8   5   4     1.388990351357    56.61266624   345.83057752
 C      8   5   4     2.189130085284   106.16542615   162.07924345
 N     12   8   5     1.374611031908    37.28790363     6.92173381
 C     12   8   5     1.437048640156    73.05872554   186.73902979
 C      5   4   2     1.376034679274    35.71766369   182.17661476
 C      5   4   2     1.374686742588    69.76546214     0.50482964
 C      1   2   6     1.374635800842    71.44065023    31.85219035
 C      1   2   6     1.376090255474   167.09468947   110.00158307
 C      3   1   2     1.352303524528    72.94721570   338.48386433
 C     15   5   4     1.389068096567   125.79197284   175.25282973
 C     18   1  17     1.389070099609   125.78801284   186.46122822
 C     14  12   8     1.352356762283   106.92822134   358.48861660
 C      9   1   2     1.374592940041    82.75329166   189.59583980
 C     10   9   1     1.352355187234    72.99353251   192.52396603
 C     12   8   5     1.389924806705   163.09861065    19.30569027
 C      9   1   2     1.376114871863   167.43960178    57.81503606
 H      3   1   2     1.076437679752   158.96571893   157.28957730
 H     19   3   1     1.076704678754   128.13275166   178.88841852
 H     22  14  12     1.076476315094   128.08611064   181.29236595
 H     14  12   8     1.076698543151   124.90904816   180.27164158
 H     24  10   9     1.076447951058   128.08708021   179.44762224
 H     10   9   1     1.076703725167   158.86233423    10.09357501
 Ni    13  12   8     1.956114472265   127.24235614   177.68225425
 C     11   8   5     1.495531305817   119.31017380   179.63325557
 C     34  11   8     1.397024631342   121.17310164   284.14277619
 C     35  34  11     1.390596223836   120.74789176   180.35613056
 C     36  35  34     1.390766856568   120.17606850   359.92820901
 C     37  36  35     1.390421039675   119.57923292     0.10802008
 C     38  37  36     1.390848751208   120.17782263     0.00000000
 H     35  34  11     1.083106389568   119.30984913     0.03868797
 H     36  35  34     1.083133441564   119.70800478   179.75204590
 H     37  36  35     1.082925437203   120.20606687   180.04209715
 H     38  37  36     1.083103658351   120.11879178   180.08077482
 H     39  38  37     1.083130922690   119.96640067   180.01249711
 C     20  15   5     1.495468770539   119.32822483   179.40348951
 C     45  20  15     1.396819993284   120.20372965   255.08308869
 C     46  45  20     1.390796214797   120.76509329   180.22391711
 C     47  46  45     1.390414536414   120.16305511     0.18979337
 C     48  47  46     1.390767593618   119.58240669     0.00000000
 C     49  48  47     1.390593935200   120.18876464   359.88265423
 H     46  45  20     1.083116914282   119.27384816     0.43888253
 H     47  46  45     1.083104909446   119.71070159   180.25760523
 H     48  47  46     1.082924786729   120.21639631   179.91827796
 H     49  48  47     1.083130703668   120.10870655   179.70289983
 H     50  49  48     1.083116288322   119.94861527   179.72962536
 C     21  18   1     1.495348347558   119.34261113   180.38498785
 C     56  21  18     1.397095241345   121.19198743   285.28729172
 C     57  56  21     1.390560604769   120.73343996   180.37007467
 C     58  57  56     1.390768524184   120.18627328   359.92130629
 C     59  58  57     1.390415757456   119.58642194     0.11985065
 C     60  59  58     1.390812861998   120.16266210     0.00000000
 H     57  56  21     1.083082093641   119.30926447     0.00000000
 H     58  57  56     1.083131474444   119.70466233   179.73268150
 H     59  58  57     1.082922981887   120.20075292   180.04931472
 H     60  59  58     1.083098134837   120.12636600   180.09629411
 H     61  60  59     1.083115937023   119.95732438   180.03344245
 C     25  12   8     1.495276696795   118.65022734   174.73502472
 C     67  25  12     1.396812072688   120.24048279    78.17496294
 C     68  67  25     1.390803495918   120.75550273   180.23851252
 C     69  68  67     1.390428723910   120.18297614     0.19574417
 C     70  69  68     1.390747857322   119.57289456     0.00000000
 C     71  70  69     1.390572401932   120.17902480   359.87683128
 H     68  67  25     1.083121130040   119.28934076     0.43782496
 H     69  68  67     1.083104771231   119.69946611   180.26296706
 H     70  69  68     1.082927967106   120.22179297   179.91687317
 H     71  70  69     1.083131490943   120.12271330   179.69080096
 H     72  71  70     1.083094820246   119.93571331   179.72106476

---------------------------
INTERNAL COORDINATES (A.U.)
---------------------------
 N      0   0   0     0.000000000000     0.00000000     0.00000000
 H      1   0   0    11.329504397085     0.00000000     0.00000000
 C      1   2   0     4.363247353470   138.79490074     0.00000000
 C      2   1   3     4.134377207428    34.51509210    28.46924667
 N      4   2   1     4.363347632570    95.71664910     5.98864078
 C      2   1   3     2.034715796077     6.02819997    52.25655203
 H      4   2   1     2.034232343736   105.31736084   185.45002408
 C      5   4   2     5.553055221792   124.15914566     9.70481593
 N      1   2   6     5.228567101529   101.69406723   220.83270345
 C      9   1   2     4.362007435980   117.90564310   183.06361943
 C      8   5   4     2.624811366724    56.61266624   345.83057752
 C      8   5   4     4.136856332714   106.16542615   162.07924345
 N     12   8   5     2.597638390974    37.28790363     6.92173381
 C     12   8   5     2.715628371019    73.05872554   186.73902979
 C      5   4   2     2.600328694607    35.71766369   182.17661476
 C      5   4   2     2.597781463424    69.76546214     0.50482964
 C      1   2   6     2.597685197476    71.44065023    31.85219035
 C      1   2   6     2.600433718404   167.09468947   110.00158307
 C      3   1   2     2.555483311295    72.94721570   338.48386433
 C     15   5   4     2.624958283879   125.79197284   175.25282973
 C     18   1  17     2.624962069080   125.78801284   186.46122822
 C     14  12   8     2.555583916071   106.92822134   358.48861660
 C      9   1   2     2.597604202299    82.75329166   189.59583980
 C     10   9   1     2.555580939660    72.99353251   192.52396603
 C     12   8   5     2.626577231415   163.09861065    19.30569027
 C      9   1   2     2.600480236636   167.43960178    57.81503606
 H      3   1   2     2.034172414964   158.96571893   157.28957730
 H     19   3   1     2.034676969956   128.13275166   178.88841852
 H     22  14  12     2.034245425180   128.08611064   181.29236595
 H     14  12   8     2.034665375347   124.90904816   180.27164158
 H     24  10   9     2.034191824920   128.08708021   179.44762224
 H     10   9   1     2.034675167939   158.86233423    10.09357501
 Ni    13  12   8     3.696520639181   127.24235614   177.68225425
 C     11   8   5     2.826144592700   119.31017380   179.63325557
 C     34  11   8     2.639993955579   121.17310164   284.14277619
 C     35  34  11     2.627846025916   120.74789176   180.35613056
 C     36  35  34     2.628168475048   120.17606850   359.92820901
 C     37  36  35     2.627514975828   119.57923292     0.10802008
 C     38  37  36     2.628323233489   120.17782263     0.00000000
 H     35  34  11     2.046774450184   119.30984913     0.03868797
 H     36  35  34     2.046825571048   119.70800478   179.75204590
 H     37  36  35     2.046432499770   120.20606687   180.04209715
 H     38  37  36     2.046769288932   120.11879178   180.08077482
 H     39  38  37     2.046820811066   119.96640067   180.01249711
 C     20  15   5     2.826026418150   119.32822483   179.40348951
 C     45  20  15     2.639607245693   120.20372965   255.08308869
 C     46  45  20     2.628223954061   120.76509329   180.22391711
 C     47  46  45     2.627502686445   120.16305511     0.18979337
 C     48  47  46     2.628169867870   119.58240669     0.00000000
 C     49  48  47     2.627841701019   120.18876464   359.88265423
 H     46  45  20     2.046794339011   119.27384816     0.43888253
 H     47  46  45     2.046771653159   119.71070159   180.25760523
 H     48  47  46     2.046431270554   120.21639631   179.91827796
 H     49  48  47     2.046820397174   120.10870655   179.70289983
 H     50  49  48     2.046793156117   119.94861527   179.72962536
 C     21  18   1     2.825798851696   119.34261113   180.38498785
 C     56  21  18     2.640127389147   121.19198743   285.28729172
 C     57  56  21     2.627778715634   120.73343996   180.37007467
 C     58  57  56     2.628171626385   120.18627328   359.92130629
 C     59  58  57     2.627504993881   119.58642194     0.11985065
 C     60  59  58     2.628255412712   120.16266210     0.00000000
 H     57  56  21     2.046728537535   119.30926447     0.00000000
 H     58  57  56     2.046821853730   119.70466233   179.73268150
 H     59  58  57     2.046427859896   120.20075292   180.04931472
 H     60  59  58     2.046758851002   120.12636600   180.09629411
 H     61  60  59     2.046792492258   119.95732438   180.03344245
 C     25  12   8     2.825663451376   118.65022734   174.73502472
 C     67  25  12     2.639592277935   120.24048279    78.17496294
 C     68  67  25     2.628237713384   120.75550273   180.23851252
 C     69  68  67     2.627529496928   120.18297614     0.19574417
 C     70  69  68     2.628132571676   119.57289456     0.00000000
 C     71  70  69     2.627801009040   120.17902480   359.87683128
 H     68  67  25     2.046802305638   119.28934076     0.43782496
 H     69  68  67     2.046771391970   119.69946611   180.26296706
 H     70  69  68     2.046437280595   120.22179297   179.91687317
 H     71  70  69     2.046821884909   120.12271330   179.69080096
 H     72  71  70     2.046752587333   119.93571331   179.72106476

---------------------
BASIS SET INFORMATION
---------------------
There are 4 groups of distinct atoms

 Group   1 Type N   : 11s6p2d1f contracted to 5s3p2d1f pattern {62111/411/11/1}
 Group   2 Type H   : 5s1p contracted to 3s1p pattern {311/1}
 Group   3 Type C   : 11s6p2d1f contracted to 5s3p2d1f pattern {62111/411/11/1}
 Group   4 Type Ni  : 17s11p7d1f contracted to 6s4p4d1f pattern {842111/6311/4111/1}

Atom   0N    basis set group =>   1
Atom   1H    basis set group =>   2
Atom   2C    basis set group =>   3
Atom   3C    basis set group =>   3
Atom   4N    basis set group =>   1
Atom   5C    basis set group =>   3
Atom   6H    basis set group =>   2
Atom   7C    basis set group =>   3
Atom   8N    basis set group =>   1
Atom   9C    basis set group =>   3
Atom  10C    basis set group =>   3
Atom  11C    basis set group =>   3
Atom  12N    basis set group =>   1
Atom  13C    basis set group =>   3
Atom  14C    basis set group =>   3
Atom  15C    basis set group =>   3
Atom  16C    basis set group =>   3
Atom  17C    basis set group =>   3
Atom  18C    basis set group =>   3
Atom  19C    basis set group =>   3
Atom  20C    basis set group =>   3
Atom  21C    basis set group =>   3
Atom  22C    basis set group =>   3
Atom  23C    basis set group =>   3
Atom  24C    basis set group =>   3
Atom  25C    basis set group =>   3
Atom  26H    basis set group =>   2
Atom  27H    basis set group =>   2
Atom  28H    basis set group =>   2
Atom  29H    basis set group =>   2
Atom  30H    basis set group =>   2
Atom  31H    basis set group =>   2
Atom  32Ni   basis set group =>   4
Atom  33C    basis set group =>   3
Atom  34C    basis set group =>   3
Atom  35C    basis set group =>   3
Atom  36C    basis set group =>   3
Atom  37C    basis set group =>   3
Atom  38C    basis set group =>   3
Atom  39H    basis set group =>   2
Atom  40H    basis set group =>   2
Atom  41H    basis set group =>   2
Atom  42H    basis set group =>   2
Atom  43H    basis set group =>   2
Atom  44C    basis set group =>   3
Atom  45C    basis set group =>   3
Atom  46C    basis set group =>   3
Atom  47C    basis set group =>   3
Atom  48C    basis set group =>   3
Atom  49C    basis set group =>   3
Atom  50H    basis set group =>   2
Atom  51H    basis set group =>   2
Atom  52H    basis set group =>   2
Atom  53H    basis set group =>   2
Atom  54H    basis set group =>   2
Atom  55C    basis set group =>   3
Atom  56C    basis set group =>   3
Atom  57C    basis set group =>   3
Atom  58C    basis set group =>   3
Atom  59C    basis set group =>   3
Atom  60C    basis set group =>   3
Atom  61H    basis set group =>   2
Atom  62H    basis set group =>   2
Atom  63H    basis set group =>   2
Atom  64H    basis set group =>   2
Atom  65H    basis set group =>   2
Atom  66C    basis set group =>   3
Atom  67C    basis set group =>   3
Atom  68C    basis set group =>   3
Atom  69C    basis set group =>   3
Atom  70C    basis set group =>   3
Atom  71C    basis set group =>   3
Atom  72H    basis set group =>   2
Atom  73H    basis set group =>   2
Atom  74H    basis set group =>   2
Atom  75H    basis set group =>   2
Atom  76H    basis set group =>   2
---------------------------------
AUXILIARY/J BASIS SET INFORMATION
---------------------------------
There are 4 groups of distinct atoms

 Group   1 Type N   : 12s5p4d2f1g contracted to 6s4p3d1f1g pattern {711111/2111/211/2/1}
 Group   2 Type H   : 5s2p1d contracted to 3s1p1d pattern {311/2/1}
 Group   3 Type C   : 12s5p4d2f1g contracted to 6s4p3d1f1g pattern {711111/2111/211/2/1}
 Group   4 Type Ni  : 19s5p5d3f3g contracted to 8s5p5d2f3g pattern {121111111/11111/11111/21/111}

Atom   0N    basis set group =>   1
Atom   1H    basis set group =>   2
Atom   2C    basis set group =>   3
Atom   3C    basis set group =>   3
Atom   4N    basis set group =>   1
Atom   5C    basis set group =>   3
Atom   6H    basis set group =>   2
Atom   7C    basis set group =>   3
Atom   8N    basis set group =>   1
Atom   9C    basis set group =>   3
Atom  10C    basis set group =>   3
Atom  11C    basis set group =>   3
Atom  12N    basis set group =>   1
Atom  13C    basis set group =>   3
Atom  14C    basis set group =>   3
Atom  15C    basis set group =>   3
Atom  16C    basis set group =>   3
Atom  17C    basis set group =>   3
Atom  18C    basis set group =>   3
Atom  19C    basis set group =>   3
Atom  20C    basis set group =>   3
Atom  21C    basis set group =>   3
Atom  22C    basis set group =>   3
Atom  23C    basis set group =>   3
Atom  24C    basis set group =>   3
Atom  25C    basis set group =>   3
Atom  26H    basis set group =>   2
Atom  27H    basis set group =>   2
Atom  28H    basis set group =>   2
Atom  29H    basis set group =>   2
Atom  30H    basis set group =>   2
Atom  31H    basis set group =>   2
Atom  32Ni   basis set group =>   4
Atom  33C    basis set group =>   3
Atom  34C    basis set group =>   3
Atom  35C    basis set group =>   3
Atom  36C    basis set group =>   3
Atom  37C    basis set group =>   3
Atom  38C    basis set group =>   3
Atom  39H    basis set group =>   2
Atom  40H    basis set group =>   2
Atom  41H    basis set group =>   2
Atom  42H    basis set group =>   2
Atom  43H    basis set group =>   2
Atom  44C    basis set group =>   3
Atom  45C    basis set group =>   3
Atom  46C    basis set group =>   3
Atom  47C    basis set group =>   3
Atom  48C    basis set group =>   3
Atom  49C    basis set group =>   3
Atom  50H    basis set group =>   2
Atom  51H    basis set group =>   2
Atom  52H    basis set group =>   2
Atom  53H    basis set group =>   2
Atom  54H    basis set group =>   2
Atom  55C    basis set group =>   3
Atom  56C    basis set group =>   3
Atom  57C    basis set group =>   3
Atom  58C    basis set group =>   3
Atom  59C    basis set group =>   3
Atom  60C    basis set group =>   3
Atom  61H    basis set group =>   2
Atom  62H    basis set group =>   2
Atom  63H    basis set group =>   2
Atom  64H    basis set group =>   2
Atom  65H    basis set group =>   2
Atom  66C    basis set group =>   3
Atom  67C    basis set group =>   3
Atom  68C    basis set group =>   3
Atom  69C    basis set group =>   3
Atom  70C    basis set group =>   3
Atom  71C    basis set group =>   3
Atom  72H    basis set group =>   2
Atom  73H    basis set group =>   2
Atom  74H    basis set group =>   2
Atom  75H    basis set group =>   2
Atom  76H    basis set group =>   2


           ************************************************************
           *        Program running with 8 parallel MPI-processes     *
           *              working on a common directory               *
           ************************************************************
------------------------------------------------------------------------------
                             ORCA STARTUP CALCULATIONS
                           -- RI-GTO INTEGRALS CHOSEN --
------------------------------------------------------------------------------
------------------------------------------------------------------------------
                   ___                                                        
                  /   \      - P O W E R E D   B Y -                         
                 /     \                                                     
                 |  |  |   _    _      __       _____    __    __             
                 |  |  |  | |  | |    /  \     |  _  \  |  |  /  |          
                  \  \/   | |  | |   /    \    | | | |  |  | /  /          
                 / \  \   | |__| |  /  /\  \   | |_| |  |  |/  /          
                |  |  |   |  __  | /  /__\  \  |    /   |      \           
                |  |  |   | |  | | |   __   |  |    \   |  |\   \          
                \     /   | |  | | |  |  |  |  | |\  \  |  | \   \       
                 \___/    |_|  |_| |__|  |__|  |_| \__\ |__|  \__/        
                                                                              
                      - O R C A' S   B I G   F R I E N D -                    
                                      &                                       
                       - I N T E G R A L  F E E D E R -                       
                                                                              
 v1 FN, 2020, v2 2021, v3 2022-2024                                           
------------------------------------------------------------------------------


----------------------
SHARK INTEGRAL PACKAGE
----------------------

Number of atoms                             ...     77
Number of basis functions                   ...   1701
Number of shells                            ...    655
Maximum angular momentum                    ...      3
Integral batch strategy                     ... SHARK/LIBINT Hybrid
RI-J (if used) integral strategy            ... SPLIT-RIJ (Revised 2003 algorithm where possible)
Printlevel                                  ...      1
Contraction scheme used                     ... SEGMENTED contraction
Prescreening option                         ... SCHWARTZ
   Thresh                                   ... 2.500e-11
   Tcut                                     ... 2.500e-12
   Tpresel                                  ... 2.500e-12 
Coulomb Range Separation                    ... NOT USED
Exchange Range Separation                   ... NOT USED
Multipole approximations                    ... NOT USED
Finite Nucleus Model                        ... NOT USED
CABS basis                                  ... NOT available
Auxiliary Coulomb fitting basis             ... AVAILABLE
   # of basis functions in Aux-J            ...   2749
   # of shells in Aux-J                     ...    883
   Maximum angular momentum in Aux-J        ...      4
Auxiliary J/K fitting basis                 ... NOT available
Auxiliary Correlation fitting basis         ... NOT available
Auxiliary 'external' fitting basis          ... NOT available

Checking pre-screening integrals            ... done (  0.0 sec) Dimension = 655
   => SHARK Basis and OBASIS are compatible. Storing Pre-screening
Shell pair information
Shell pair cut-off parameter TPreSel        ...   2.5e-12
Total number of shell pairs                 ...    214840
Shell pairs after pre-screening             ...    105048
Total number of primitive shell pairs       ...    679229
Primitive shell pairs kept                  ...    203967
          la=0 lb=0:  25003 shell pairs
          la=1 lb=0:  30718 shell pairs
          la=1 lb=1:   9306 shell pairs
          la=2 lb=0:  15053 shell pairs
          la=2 lb=1:   9379 shell pairs
          la=2 lb=2:   2279 shell pairs
          la=3 lb=0:   6683 shell pairs
          la=3 lb=1:   4245 shell pairs
          la=3 lb=2:   1936 shell pairs
          la=3 lb=3:    446 shell pairs

Checking whether 4 symmetric matrices of dimension 1701 fit in memory
:Max Core in MB      =   3000.00
 MB in use           =    128.45
 MB left             =   2871.55
 MB needed           =     44.18
 Data fit in memory  = YES
Calculating RI/J V-Matrix + Cholesky decomp.... done (  0.6 sec)
Calculating Nuclear repulsion               ... done (  0.0 sec) ENN=   6447.097857519315 Eh

Diagonalization of the overlap matrix:
Smallest eigenvalue                        ... 3.792e-06
Time for diagonalization                   ...    0.621 sec
Threshold for overlap eigenvalues          ... 1.000e-07
Number of eigenvalues below threshold      ... 0
Time for construction of square roots      ...    0.522 sec
Total time needed                          ...    1.190 sec

-------------------
DFT GRID GENERATION
-------------------

General Integration Accuracy     IntAcc      ... 4.959
Radial Grid Type                 RadialGrid  ... OptM3 with GC (2021)
Angular Grid (max. ang.)         AngularGrid ... 6 (Lebedev-590)
Angular grid pruning method      GridPruning ... 4 (adaptive)
Weight generation scheme         WeightScheme... mBecke (2022)
Basis function cutoff            BFCut       ... 1.0000e-11
Integration weight cutoff        WCut        ... 1.0000e-14
Partially contracted basis set               ... off
Rotationally invariant grid construction     ... off
Angular grids for H and He will be reduced by one unit
Core-polarized basis detected: some atoms will have their core
                               angular grid increased.

Total number of grid points                  ...   938894
Total number of batches                      ...    14707
Average number of points per batch           ...       63
Average number of grid points per atom       ...    12193

--------------------
COSX GRID GENERATION
--------------------

GRIDX 1
-------
General Integration Accuracy     IntAcc      ... 4.020
Radial Grid Type                 RadialGrid  ... OptM3 with GC (2021)
Angular Grid (max. ang.)         AngularGrid ... 2 (Lebedev-110)
Angular grid pruning method      GridPruning ... 4 (adaptive)
Weight generation scheme         WeightScheme... mBecke (2022)
Basis function cutoff            BFCut       ... 1.0000e-11
Integration weight cutoff        WCut        ... 1.0000e-14
Partially contracted basis set               ... on
Rotationally invariant grid construction     ... off
Angular grids for H and He will be reduced by one unit
Core-polarized basis detected: some atoms will have their core
                               angular grid increased.

Total number of grid points                  ...   108337
Total number of batches                      ...      887
Average number of points per batch           ...      122
Average number of grid points per atom       ...     1407
UseSFitting                                  ... on

GRIDX 2
-------
General Integration Accuracy     IntAcc      ... 4.338
Radial Grid Type                 RadialGrid  ... OptM3 with GC (2021)
Angular Grid (max. ang.)         AngularGrid ... 3 (Lebedev-194)
Angular grid pruning method      GridPruning ... 4 (adaptive)
Weight generation scheme         WeightScheme... mBecke (2022)
Basis function cutoff            BFCut       ... 1.0000e-11
Integration weight cutoff        WCut        ... 1.0000e-14
Partially contracted basis set               ... on
Rotationally invariant grid construction     ... off
Angular grids for H and He will be reduced by one unit
Core-polarized basis detected: some atoms will have their core
                               angular grid increased.

Total number of grid points                  ...   230341
Total number of batches                      ...     1835
Average number of points per batch           ...      125
Average number of grid points per atom       ...     2991
UseSFitting                                  ... on

GRIDX 3
-------
General Integration Accuracy     IntAcc      ... 4.871
Radial Grid Type                 RadialGrid  ... OptM3 with GC (2021)
Angular Grid (max. ang.)         AngularGrid ... 4 (Lebedev-302)
Angular grid pruning method      GridPruning ... 4 (adaptive)
Weight generation scheme         WeightScheme... mBecke (2022)
Basis function cutoff            BFCut       ... 1.0000e-11
Integration weight cutoff        WCut        ... 1.0000e-14
Partially contracted basis set               ... on
Rotationally invariant grid construction     ... off
Angular grids for H and He will be reduced by one unit
Core-polarized basis detected: some atoms will have their core
                               angular grid increased.

Total number of grid points                  ...   424165
Total number of batches                      ...     3350
Average number of points per batch           ...      126
Average number of grid points per atom       ...     5509
UseSFitting                                  ... on
Grids setup in  52.1 sec
Initializing property integral containers    ... done (  0.0 sec)

SHARK setup successfully completed in  57.6 seconds

Maximum memory used throughout the entire STARTUP-calculation: 341.5 MB


           ************************************************************
           *        Program running with 8 parallel MPI-processes     *
           *              working on a common directory               *
           ************************************************************
-------------------------------------------------------------------------------
                                 ORCA GUESS
                   Start orbitals & Density for SCF / CASSCF
-------------------------------------------------------------------------------

------------
SCF SETTINGS
------------
Hamiltonian:
 Density Functional     Method          .... DFT(GTOs)
 Exchange Functional    Exchange        .... M062X
 Correlation Functional Correlation     .... M062X
 Gradients option       PostSCFGGA      .... off
 Hybrid DFT is turned on
   Fraction HF Exchange ScalHFX         ....  0.540000
   Scaling of DF-GGA-X  ScalDFX         ....  0.460000
   Scaling of DF-GGA-C  ScalDFC         ....  1.000000
   Scaling of DF-LDA-C  ScalLDAC        ....  1.000000
   Perturbative correction              ....  0.000000
 RI-approximation to the Coulomb term is turned on
   Number of AuxJ basis functions       .... 2749
   RIJ-COSX (HFX calculated with COS-X)).... on


General Settings:
 Integral files         IntName         .... tddft
 Hartree-Fock type      HFTyp           .... RHF
 Total Charge           Charge          ....    0
 Multiplicity           Mult            ....    1
 Number of Electrons    NEL             ....  348
 Basis Dimension        Dim             .... 1701
 Nuclear Repulsion      ENuc            ....   6447.0978575193 Eh

Convergence Acceleration:
 AO-DIIS                CNVDIIS         .... on
   Start iteration      DIISMaxIt       ....    12
   Startup error        DIISStart       ....  0.200000
   # of expansion vecs  DIISMaxEq       ....     5
   Bias factor          DIISBfac        ....   1.050
   Max. coefficient     DIISMaxC        ....  10.000
 MO-DIIS                CNVKDIIS        .... off
 Trust-Rad. Augm. Hess. CNVTRAH         .... auto
   Auto Start mean grad. ratio tolernc. ....  1.125000
   Auto Start start iteration           ....    50
   Auto Start num. interpolation iter.  ....    10
   Max. Number of Micro iterations      ....    24
   Max. Number of Macro iterations      .... Maxiter - #DIIS iter
   Number of Davidson start vectors     ....     2
   Converg. threshold    (grad. norm)   ....   1.000e-05
   Grad. Scal. Fac. for Micro threshold ....   0.100
   Minimum threshold for Micro iter.    ....   1.000e-02
   NR start threshold (gradient norm)   ....   1.000e-04
   Initial trust radius                 ....   0.400
   Minimum AH scaling param. (alpha)    ....   1.000
   Maximum AH scaling param. (alpha)    .... 1000.000
   Quad. conv. algorithm                .... NR
   White noise on init. David. guess    .... on
   Maximum white noise                  ....   0.010
   Pseudo random numbers                .... off
   Inactive MOs                         .... canonical
   Orbital update algorithm             .... Taylor
   Preconditioner                       .... Diag
   Full preconditioner red. dimension   ....   250
 SOSCF                 CNVSOSCF           .... on
   Start iteration     SOSCFMaxIt         ....   150
   Startup grad/error  SOSCFStart         ....  0.003300
   Hessian update      SOSCFHessUp        .... L-BFGS
   Autom. constraints  SOSCFAutoConstrain .... off
 Level Shifting         CNVShift        .... on
   Level shift para.    LevelShift      ....    0.2500
   Turn off err/grad.   ShiftErr        ....    0.0010
 Zerner damping         CNVZerner       .... off
 Static damping         CNVDamp         .... on
   Fraction old density DampFac         ....    0.7000
   Max. Damping (<1)    DampMax         ....    0.9800
   Min. Damping (>=0)   DampMin         ....    0.0000
   Turn off err/grad.   DampErr         ....    0.1000

SCF Procedure:
 Maximum # iterations   MaxIter         ....   125
 SCF integral mode      SCFMode         .... Direct
   Integral package                     .... SHARK and LIBINT hybrid scheme
 Reset frequency        DirectResetFreq ....    20
 Integral Threshold     Thresh          ....  2.500e-11 Eh
 Primitive CutOff       TCut            ....  2.500e-12 Eh

Convergence Tolerance:
 Convergence Check Mode ConvCheckMode   .... Total+1el-Energy
 Convergence forced     ConvForced      .... 1
 Energy Change          TolE            ....  1.000e-08 Eh
 1-El. energy change                    ....  1.000e-05 Eh
 Orbital Gradient       TolG            ....  1.000e-05
 Orbital Rotation angle TolX            ....  1.000e-05
 DIIS Error             TolErr          ....  5.000e-07

------------------------------
INITIAL GUESS: MODEL POTENTIAL
------------------------------
Loading Hartree-Fock densities                     ... done
Calculating cut-offs                               ... done
Initializing the effective Hamiltonian             ... done
Setting up the integral package (SHARK)            ... done
Starting the Coulomb interaction                   ... done (   7.6 sec)
Making the grid                                    ... done (   2.4 sec)
Mapping shells                                     ... done
Starting the XC term evaluation                    ... done (   6.7 sec)
  promolecular density results
     # of electrons  =    347.985252055
     EX              =   -321.303608677
     EC              =    -12.119400197
     EX+EC           =   -333.423008875
Transforming the Hamiltonian                       ... done (   0.8 sec)
Diagonalizing the Hamiltonian                      ... done (   1.2 sec)
Back transforming the eigenvectors                 ... done (   0.4 sec)
Now organizing SCF variables                       ... done
                      ------------------
                      INITIAL GUESS DONE (  19.6 sec)
                      ------------------
             **** ENERGY FILE WAS UPDATED (tddft.en.tmp) ****
Finished Guess after  22.9 sec
Maximum memory used throughout the entire GUESS-calculation: 209.6 MB


           ************************************************************
           *        Program running with 8 parallel MPI-processes     *
           *              working on a common directory               *
           ************************************************************

-------------------------------------------------------------------------------------------
                                      ORCA LEAN-SCF
                              memory conserving SCF solver
-------------------------------------------------------------------------------------------

--------------------
CPCM SOLVATION MODEL
--------------------
CPCM parameters:
  Epsilon                                         ...       2.3870
  Refrac                                          ...       1.4961
  Rsolv                                           ...       1.3000
  Surface type                                    ... GAUSSIAN VDW
  Discretization scheme                           ... Constant charge density
    Threshold for H atoms                         ...       5.0000 (charges/Ang^2)
    Threshold for non-H atoms                     ...       5.0000 (charges/Ang^2)
  Epsilon function type                           ...         CPCM
Solvent:                                          ... TOLUENE
Radii:
  Scheme                                          ... Element-dependent radii
  Radius for N  used is    3.5149 Bohr (=   1.8600 Ang.)
  Radius for H  used is    2.4944 Bohr (=   1.3200 Ang.)
  Radius for C  used is    3.8550 Bohr (=   2.0400 Ang.)
  Radius for Ni used is    3.6963 Bohr (=   1.9560 Ang.)
Calculating surface                               ...        done! (  0.1s)
Cavity surface points                             ...         6764
Cavity Volume                                     ...    4905.5904
Cavity Surface-area                               ...    2270.8420
Calculating surface distance matrix               ...        done! (  5.0s)
Performing Cholesky decomposition & store         ...        done! (  4.0s)
Overall time for CPCM initialization              ...                 9.1s

----------------------------------------D-I-I-S--------------------------------------------
Iteration    Energy (Eh)           Delta-E    RMSDP     MaxDP     DIISErr   Damp  Time(sec)
-------------------------------------------------------------------------------------------
               ***  Starting incremental Fock matrix formation  ***
    1    -3419.8596643394721468     0.00e+00  2.77e-03  5.95e-02  1.92e-01  0.700 329.7
    2    -3420.2596754904916452    -4.00e-01  2.62e-03  5.72e-02  9.97e-02  0.700 170.9
                               ***Turning on AO-DIIS***
    3    -3420.4676431716852676    -2.08e-01  1.88e-03  5.65e-02  6.16e-02  0.700 181.3
    4    -3420.5930482823223429    -1.25e-01  3.92e-03  1.09e-01  5.34e-02  0.000 182.5
    5    -3420.8668504028264579    -2.74e-01  6.45e-04  1.37e-02  2.88e-02  0.000 190.5
    6    -3420.8681678572011151    -1.32e-03  2.87e-04  8.94e-03  3.41e-02  0.000 188.5
    7    -3420.8693354394417838    -1.17e-03  8.21e-05  4.26e-03  1.07e-02  0.000 174.4
    8    -3420.8695776681324787    -2.42e-04  5.83e-05  2.51e-03  3.63e-03  0.000 136.5
                              *** Initializing SOSCF ***
---------------------------------------S-O-S-C-F--------------------------------------
Iteration    Energy (Eh)           Delta-E    RMSDP     MaxDP     MaxGrad    Time(sec)
--------------------------------------------------------------------------------------
    9    -3420.8696745591405488    -9.69e-05  4.01e-05  1.52e-03  1.75e-03   133.3
               *** Restarting incremental Fock matrix formation ***
   10    -3420.8697174180542788    -4.29e-05  3.04e-04  6.41e-03  5.21e-04   321.5
   11    -3420.8697241281079187    -6.71e-06  1.50e-04  3.02e-03  2.34e-04   261.9
   12    -3420.8697245873281645    -4.59e-07  1.18e-04  2.52e-03  1.69e-04   284.6
   13    -3420.8697254733488080    -8.86e-07  2.83e-05  5.55e-04  5.41e-05   276.2
   14    -3420.8697255734641658    -1.00e-07  2.25e-05  4.69e-04  8.07e-05   278.3
   15    -3420.8697255891202076    -1.57e-08  9.71e-06  2.72e-04  1.66e-05   248.3
   16    -3420.8697255410934304     4.80e-08  3.39e-06  6.55e-05  1.15e-05   212.3
   17    -3420.8697257099702256    -1.69e-07  6.79e-06  2.58e-04  7.35e-06   190.0
   18    -3420.8697257020303368     7.94e-09  1.30e-05  5.06e-04  5.96e-06   179.8
                 **** Energy Check signals convergence ****

               *****************************************************
               *                     SUCCESS                       *
               *           SCF CONVERGED AFTER  18 CYCLES          *
               *****************************************************

Recomputing exchange energy using gridx3       ... done (  532.495 sec)
Old exchange energy                            :   -176.357853759 Eh
New exchange energy                            :   -176.357856624 Eh
Exchange energy change after final integration :     -0.000002865 Eh
Total energy after final integration           :  -3420.869728502 Eh
             **** ENERGY FILE WAS UPDATED (tddft.en.tmp) ****

----------------
TOTAL SCF ENERGY
----------------

Total Energy       :      -3420.86972850219763 Eh          -93086.59774 eV

Components:
Nuclear Repulsion  :       6447.09785751931486 Eh          175434.45162 eV
Electronic Energy  :      -9867.95528834287325 Eh         -268520.71473 eV
One Electron Energy:     -17529.31789170306365 Eh         -476996.98989 eV
Two Electron Energy:       7661.36260336019041 Eh          208476.27517 eV
CPCM Dielectric    :         -0.01229481326583 Eh              -0.33456 eV

Virial components:
Potential Energy   :      -6830.00466795634384 Eh         -185853.87564 eV
Kinetic Energy     :       3409.13493945414575 Eh           92767.27790 eV
Virial Ratio       :          2.00344216032995

DFT components:
N(Alpha)           :      173.999991597775 electrons
N(Beta)            :      173.999991597775 electrons
N(Total)           :      347.999983195549 electrons
E(XC)              :     -163.483698313803 Eh       

CPCM Solvation Model Properties:
Surface-charge          :         -0.04904764012580
Corrected charge        :          0.00000000000000
Outlying charge corr.   :          0.00005498525632 Eh               0.00150 eV
Free-energy (cav+disp)  :  This term is not implemented in the current solvation scheme

---------------
SCF CONVERGENCE
---------------

  Last Energy change         ...   -7.9399e-09  Tolerance :   1.0000e-08
  Last MAX-Density change    ...    5.0611e-04  Tolerance :   1.0000e-07
  Last RMS-Density change    ...    1.3029e-05  Tolerance :   5.0000e-09
  Last DIIS Error            ...    1.7473e-03  Tolerance :   5.0000e-07
  Last Orbital Gradient      ...    5.9650e-06  Tolerance :   1.0000e-05
  Last Orbital Rotation      ...    4.6318e-05  Tolerance :   1.0000e-05


----------------
ORBITAL ENERGIES
----------------

  NO   OCC          E(Eh)            E(eV) 
   0   2.0000    -301.847121     -8213.6777 
   1   2.0000     -36.427554      -991.2441 
   2   2.0000     -31.861756      -867.0025 
   3   2.0000     -31.861753      -867.0024 
   4   2.0000     -31.832264      -866.2000 
   5   2.0000     -14.760806      -401.6620 
   6   2.0000     -14.760802      -401.6618 
   7   2.0000     -14.760798      -401.6617 
   8   2.0000     -14.760792      -401.6616 
   9   2.0000     -10.579226      -287.8754 
  10   2.0000     -10.579220      -287.8752 
  11   2.0000     -10.579198      -287.8746 
  12   2.0000     -10.579180      -287.8741 
  13   2.0000     -10.578925      -287.8672 
  14   2.0000     -10.578921      -287.8671 
  15   2.0000     -10.578916      -287.8669 
  16   2.0000     -10.578903      -287.8666 
  17   2.0000     -10.562339      -287.4159 
  18   2.0000     -10.562334      -287.4157 
  19   2.0000     -10.562304      -287.4149 
  20   2.0000     -10.562287      -287.4144 
  21   2.0000     -10.558516      -287.3118 
  22   2.0000     -10.558506      -287.3115 
  23   2.0000     -10.558494      -287.3112 
  24   2.0000     -10.558460      -287.3103 
  25   2.0000     -10.545691      -286.9628 
  26   2.0000     -10.545690      -286.9628 
  27   2.0000     -10.545662      -286.9620 
  28   2.0000     -10.545648      -286.9617 
  29   2.0000     -10.545516      -286.9581 
  30   2.0000     -10.545507      -286.9578 
  31   2.0000     -10.545495      -286.9575 
  32   2.0000     -10.545491      -286.9574 
  33   2.0000     -10.544992      -286.9438 
  34   2.0000     -10.544989      -286.9437 
  35   2.0000     -10.544969      -286.9432 
  36   2.0000     -10.544961      -286.9430 
  37   2.0000     -10.544634      -286.9341 
  38   2.0000     -10.544633      -286.9341 
  39   2.0000     -10.544611      -286.9335 
  40   2.0000     -10.544609      -286.9334 
  41   2.0000     -10.543984      -286.9164 
  42   2.0000     -10.543981      -286.9163 
  43   2.0000     -10.543964      -286.9158 
  44   2.0000     -10.543959      -286.9157 
  45   2.0000     -10.539787      -286.8022 
  46   2.0000     -10.539780      -286.8020 
  47   2.0000     -10.539760      -286.8015 
  48   2.0000     -10.539753      -286.8013 
  49   2.0000     -10.538773      -286.7746 
  50   2.0000     -10.538766      -286.7744 
  51   2.0000     -10.538747      -286.7739 
  52   2.0000     -10.538740      -286.7737 
  53   2.0000      -4.266280      -116.0914 
  54   2.0000      -2.845495       -77.4299 
  55   2.0000      -2.845491       -77.4297 
  56   2.0000      -2.787581       -75.8539 
  57   2.0000      -1.084052       -29.4986 
  58   2.0000      -1.072279       -29.1782 
  59   2.0000      -1.072271       -29.1780 
  60   2.0000      -1.059590       -28.8329 
  61   2.0000      -0.977435       -26.5974 
  62   2.0000      -0.972593       -26.4656 
  63   2.0000      -0.972591       -26.4655 
  64   2.0000      -0.970700       -26.4141 
  65   2.0000      -0.932340       -25.3702 
  66   2.0000      -0.911701       -24.8086 
  67   2.0000      -0.911692       -24.8084 
  68   2.0000      -0.892063       -24.2743 
  69   2.0000      -0.872675       -23.7467 
  70   2.0000      -0.872665       -23.7464 
  71   2.0000      -0.872564       -23.7437 
  72   2.0000      -0.865754       -23.5584 
  73   2.0000      -0.847142       -23.0519 
  74   2.0000      -0.846974       -23.0473 
  75   2.0000      -0.846968       -23.0472 
  76   2.0000      -0.846897       -23.0452 
  77   2.0000      -0.841485       -22.8980 
  78   2.0000      -0.833604       -22.6835 
  79   2.0000      -0.833601       -22.6834 
  80   2.0000      -0.813754       -22.1434 
  81   2.0000      -0.806755       -21.9529 
  82   2.0000      -0.749882       -20.4053 
  83   2.0000      -0.749872       -20.4050 
  84   2.0000      -0.706848       -19.2343 
  85   2.0000      -0.693821       -18.8798 
  86   2.0000      -0.693054       -18.8590 
  87   2.0000      -0.693047       -18.8588 
  88   2.0000      -0.692395       -18.8410 
  89   2.0000      -0.687354       -18.7039 
  90   2.0000      -0.687342       -18.7035 
  91   2.0000      -0.680793       -18.5253 
  92   2.0000      -0.680134       -18.5074 
  93   2.0000      -0.665491       -18.1089 
  94   2.0000      -0.645813       -17.5735 
  95   2.0000      -0.645805       -17.5733 
  96   2.0000      -0.632822       -17.2200 
  97   2.0000      -0.629603       -17.1324 
  98   2.0000      -0.625150       -17.0112 
  99   2.0000      -0.607614       -16.5340 
 100   2.0000      -0.607611       -16.5339 
 101   2.0000      -0.599407       -16.3107 
 102   2.0000      -0.594829       -16.1861 
 103   2.0000      -0.593533       -16.1509 
 104   2.0000      -0.593528       -16.1507 
 105   2.0000      -0.577693       -15.7198 
 106   2.0000      -0.563606       -15.3365 
 107   2.0000      -0.563597       -15.3363 
 108   2.0000      -0.537046       -14.6138 
 109   2.0000      -0.533820       -14.5260 
 110   2.0000      -0.529431       -14.4065 
 111   2.0000      -0.529426       -14.4064 
 112   2.0000      -0.527177       -14.3452 
 113   2.0000      -0.522897       -14.2287 
 114   2.0000      -0.522894       -14.2287 
 115   2.0000      -0.521670       -14.1954 
 116   2.0000      -0.510865       -13.9014 
 117   2.0000      -0.503676       -13.7057 
 118   2.0000      -0.496425       -13.5084 
 119   2.0000      -0.496419       -13.5082 
 120   2.0000      -0.495245       -13.4763 
 121   2.0000      -0.491729       -13.3806 
 122   2.0000      -0.490017       -13.3341 
 123   2.0000      -0.490013       -13.3339 
 124   2.0000      -0.489343       -13.3157 
 125   2.0000      -0.488753       -13.2997 
 126   2.0000      -0.487591       -13.2680 
 127   2.0000      -0.487583       -13.2678 
 128   2.0000      -0.477431       -12.9916 
 129   2.0000      -0.474503       -12.9119 
 130   2.0000      -0.469980       -12.7888 
 131   2.0000      -0.469975       -12.7887 
 132   2.0000      -0.469413       -12.7734 
 133   2.0000      -0.463331       -12.6079 
 134   2.0000      -0.457133       -12.4392 
 135   2.0000      -0.452242       -12.3061 
 136   2.0000      -0.445403       -12.1200 
 137   2.0000      -0.445395       -12.1198 
 138   2.0000      -0.441247       -12.0069 
 139   2.0000      -0.440027       -11.9737 
 140   2.0000      -0.432761       -11.7760 
 141   2.0000      -0.432755       -11.7759 
 142   2.0000      -0.418056       -11.3759 
 143   2.0000      -0.412374       -11.2213 
 144   2.0000      -0.410454       -11.1690 
 145   2.0000      -0.410246       -11.1634 
 146   2.0000      -0.410241       -11.1632 
 147   2.0000      -0.408263       -11.1094 
 148   2.0000      -0.408250       -11.1090 
 149   2.0000      -0.405996       -11.0477 
 150   2.0000      -0.404858       -11.0167 
 151   2.0000      -0.404852       -11.0166 
 152   2.0000      -0.401750       -10.9322 
 153   2.0000      -0.395610       -10.7651 
 154   2.0000      -0.387337       -10.5400 
 155   2.0000      -0.387334       -10.5399 
 156   2.0000      -0.382912       -10.4196 
 157   2.0000      -0.365684        -9.9508 
 158   2.0000      -0.341793        -9.3007 
 159   2.0000      -0.341784        -9.3004 
 160   2.0000      -0.327255        -8.9051 
 161   2.0000      -0.316980        -8.6255 
 162   2.0000      -0.315020        -8.5721 
 163   2.0000      -0.314052        -8.5458 
 164   2.0000      -0.314017        -8.5448 
 165   2.0000      -0.313882        -8.5412 
 166   2.0000      -0.309173        -8.4130 
 167   2.0000      -0.309150        -8.4124 
 168   2.0000      -0.307905        -8.3785 
 169   2.0000      -0.306212        -8.3325 
 170   2.0000      -0.303185        -8.2501 
 171   2.0000      -0.303176        -8.2498 
 172   2.0000      -0.236940        -6.4475 
 173   2.0000      -0.235650        -6.4124 
 174   0.0000      -0.072842        -1.9821 
 175   0.0000      -0.072836        -1.9820 
 176   0.0000       0.000322         0.0088 
 177   0.0000       0.013763         0.3745 
 178   0.0000       0.014882         0.4050 
 179   0.0000       0.014896         0.4053 
 180   0.0000       0.015575         0.4238 
 181   0.0000       0.016458         0.4479 
 182   0.0000       0.017162         0.4670 
 183   0.0000       0.018200         0.4952 
 184   0.0000       0.018207         0.4954 
*Only the first 10 virtual orbitals were printed.

                    ********************************
                    * MULLIKEN POPULATION ANALYSIS *
                    ********************************

-----------------------
MULLIKEN ATOMIC CHARGES
-----------------------
   0 N :   -0.341366
   1 H :    0.199675
   2 C :   -0.250728
   3 C :   -0.250170
   4 N :   -0.341862
   5 C :   -0.218529
   6 H :    0.200952
   7 C :    0.239940
   8 N :   -0.341933
   9 C :   -0.217382
  10 C :   -0.047616
  11 C :    0.172126
  12 N :   -0.341373
  13 C :   -0.218274
  14 C :    0.238390
  15 C :    0.174295
  16 C :    0.174564
  17 C :    0.239900
  18 C :   -0.218954
  19 C :   -0.045299
  20 C :   -0.043228
  21 C :   -0.250145
  22 C :    0.171059
  23 C :   -0.251401
  24 C :   -0.044465
  25 C :    0.240377
  26 H :    0.201416
  27 H :    0.199587
  28 H :    0.200890
  29 H :    0.199733
  30 H :    0.201250
  31 H :    0.199673
  32 Ni:    0.474935
  33 C :   -0.108670
  34 C :   -0.188996
  35 C :   -0.154209
  36 C :   -0.154336
  37 C :   -0.164129
  38 C :   -0.151667
  39 H :    0.181924
  40 H :    0.163370
  41 H :    0.163117
  42 H :    0.163074
  43 H :    0.174673
  44 C :   -0.107262
  45 C :   -0.153266
  46 C :   -0.163760
  47 C :   -0.154811
  48 C :   -0.153652
  49 C :   -0.190230
  50 H :    0.174852
  51 H :    0.163081
  52 H :    0.163142
  53 H :    0.163378
  54 H :    0.182127
  55 C :   -0.104579
  56 C :   -0.192298
  57 C :   -0.153554
  58 C :   -0.155256
  59 C :   -0.162906
  60 C :   -0.155735
  61 H :    0.182651
  62 H :    0.163265
  63 H :    0.163108
  64 H :    0.163147
  65 H :    0.175209
  66 C :   -0.105819
  67 C :   -0.154773
  68 C :   -0.163338
  69 C :   -0.155137
  70 C :   -0.153944
  71 C :   -0.191024
  72 H :    0.175028
  73 H :    0.163172
  74 H :    0.163177
  75 H :    0.163368
  76 H :    0.182452
Sum of atomic charges:   -0.0000000

--------------------------------
MULLIKEN REDUCED ORBITAL CHARGES
--------------------------------
  0 N s       :     3.680924  s :     3.680924
      pz      :     1.379773  p :     3.599433
      px      :     1.192556
      py      :     1.027103
      dz2     :     0.004674  d :     0.057291
      dxz     :     0.007873
      dyz     :     0.013232
      dx2y2   :     0.015823
      dxy     :     0.015690
      f0      :     0.000718  f :     0.003718
      f+1     :     0.000469
      f-1     :     0.000513
      f+2     :     0.000147
      f-2     :     0.000527
      f+3     :     0.000573
      f-3     :     0.000772

  1 H s       :     0.779659  s :     0.779659
      pz      :     0.004139  p :     0.020666
      px      :     0.008129
      py      :     0.008398

  2 C s       :     3.221242  s :     3.221242
      pz      :     0.990177  p :     2.958459
      px      :     0.981922
      py      :     0.986361
      dz2     :     0.005568  d :     0.064095
      dxz     :     0.009020
      dyz     :     0.019238
      dx2y2   :     0.010293
      dxy     :     0.019976
      f0      :     0.001219  f :     0.006932
      f+1     :     0.000837
      f-1     :     0.000765
      f+2     :     0.000767
      f-2     :     0.000467
      f+3     :     0.001866
      f-3     :     0.001011

  3 C s       :     3.221403  s :     3.221403
      pz      :     0.986739  p :     2.957732
      px      :     0.983292
      py      :     0.987701
      dz2     :     0.007042  d :     0.064101
      dxz     :     0.017558
      dyz     :     0.009068
      dx2y2   :     0.010425
      dxy     :     0.020008
      f0      :     0.001096  f :     0.006933
      f+1     :     0.000919
      f-1     :     0.000855
      f+2     :     0.000674
      f-2     :     0.000527
      f+3     :     0.001074
      f-3     :     0.001789

  4 N s       :     3.680910  s :     3.680910
      pz      :     1.371437  p :     3.599937
      px      :     1.034935
      py      :     1.193565
      dz2     :     0.005252  d :     0.057296
      dxz     :     0.012714
      dyz     :     0.008123
      dx2y2   :     0.015688
      dxy     :     0.015518
      f0      :     0.000680  f :     0.003719
      f+1     :     0.000544
      f-1     :     0.000456
      f+2     :     0.000179
      f-2     :     0.000541
      f+3     :     0.000744
      f-3     :     0.000575

  5 C s       :     3.198944  s :     3.198944
      pz      :     0.985630  p :     2.948244
      px      :     1.019896
      py      :     0.942718
      dz2     :     0.006460  d :     0.064397
      dxz     :     0.015936
      dyz     :     0.011331
      dx2y2   :     0.014125
      dxy     :     0.016544
      f0      :     0.001128  f :     0.006944
      f+1     :     0.000990
      f-1     :     0.000739
      f+2     :     0.000962
      f-2     :     0.000297
      f+3     :     0.001077
      f-3     :     0.001751

  6 H s       :     0.778260  s :     0.778260
      pz      :     0.003967  p :     0.020788
      px      :     0.006132
      py      :     0.010689

  7 C s       :     3.134746  s :     3.134746
      pz      :     0.924365  p :     2.484681
      px      :     0.813045
      py      :     0.747271
      dz2     :     0.009896  d :     0.127354
      dxz     :     0.030207
      dyz     :     0.028470
      dx2y2   :     0.031082
      dxy     :     0.027699
      f0      :     0.001705  f :     0.013280
      f+1     :     0.001191
      f-1     :     0.001578
      f+2     :     0.001010
      f-2     :     0.001963
      f+3     :     0.003016
      f-3     :     0.002815

  8 N s       :     3.681106  s :     3.681106
      pz      :     1.365813  p :     3.599809
      px      :     1.039036
      py      :     1.194961
      dz2     :     0.005822  d :     0.057299
      dxz     :     0.012550
      dyz     :     0.008102
      dx2y2   :     0.015503
      dxy     :     0.015322
      f0      :     0.000638  f :     0.003719
      f+1     :     0.000553
      f-1     :     0.000470
      f+2     :     0.000223
      f-2     :     0.000551
      f+3     :     0.000735
      f-3     :     0.000549

  9 C s       :     3.198284  s :     3.198284
      pz      :     0.973178  p :     2.947774
      px      :     1.020615
      py      :     0.953980
      dz2     :     0.009102  d :     0.064380
      dxz     :     0.014129
      dyz     :     0.010240
      dx2y2   :     0.013300
      dxy     :     0.017610
      f0      :     0.000943  f :     0.006945
      f+1     :     0.001083
      f-1     :     0.000858
      f+2     :     0.000908
      f-2     :     0.000355
      f+3     :     0.001063
      f-3     :     0.001734

 10 C s       :     3.297315  s :     3.297315
      pz      :     0.914246  p :     2.651034
      px      :     0.854358
      py      :     0.882429
      dz2     :     0.005743  d :     0.090898
      dxz     :     0.020898
      dyz     :     0.020971
      dx2y2   :     0.021417
      dxy     :     0.021870
      f0      :     0.001301  f :     0.008369
      f+1     :     0.000883
      f-1     :     0.000969
      f+2     :     0.000816
      f-2     :     0.000951
      f+3     :     0.002023
      f-3     :     0.001426

 11 C s       :     3.180981  s :     3.180981
      pz      :     0.960503  p :     2.506334
      px      :     0.838412
      py      :     0.707419
      dz2     :     0.010181  d :     0.127247
      dxz     :     0.028757
      dyz     :     0.028269
      dx2y2   :     0.027760
      dxy     :     0.032279
      f0      :     0.001648  f :     0.013312
      f+1     :     0.001096
      f-1     :     0.001752
      f+2     :     0.001365
      f-2     :     0.001664
      f+3     :     0.001653
      f-3     :     0.004135

 12 N s       :     3.680695  s :     3.680695
      pz      :     1.354741  p :     3.599648
      px      :     1.192330
      py      :     1.052577
[...]
  0-1A  ->  1-1A    1.532365   12359.4   809.1   0.000010241   0.00000   0.00034  -0.00013   0.00086
  0-1A  ->  2-1A    1.560535   12586.6   794.5   0.000017526   0.00000  -0.00005   0.00123   0.00004
  0-1A  ->  3-1A    1.572634   12684.2   788.4   0.000017756   0.00000   0.00121   0.00008  -0.00028
  0-1A  ->  4-1A    1.834869   14799.2   675.7   0.000000008   0.00000  -0.00003   0.00001  -0.00001
  0-1A  ->  5-1A    2.502798   20186.4   495.4   0.012706837   0.00175   0.03471  -0.02336   0.00160
  0-1A  ->  6-1A    2.503026   20188.3   495.3   0.012734670   0.00176  -0.02335  -0.03460   0.00383
  0-1A  ->  7-1A    3.589597   28952.1   345.4   0.410240954   0.08118  -0.28350  -0.02737   0.00721
  0-1A  ->  8-1A    3.589911   28954.6   345.4   0.409494225   0.08103  -0.02800   0.28203  -0.02670
  0-1A  ->  9-1A    4.085803   32954.2   303.5   0.000001457   0.00000  -0.00047  -0.00032  -0.00001
  0-1A  -> 10-1A    4.174203   33667.2   297.0   0.000089598   0.00002   0.00000   0.00015   0.00454
  0-1A  -> 11-1A    4.398659   35477.6   281.9   0.000130351   0.00003   0.00089   0.00005   0.00555
  0-1A  -> 12-1A    4.429959   35730.0   279.9   0.023870481   0.00583   0.07632   0.00139  -0.00163
  0-1A  -> 13-1A    4.430071   35730.9   279.9   0.023959388   0.00585   0.00172  -0.07614   0.00713
  0-1A  -> 14-1A    4.588257   37006.8   270.2   0.000001179   0.00000   0.00012  -0.00052   0.00013
  0-1A  -> 15-1A    4.762629   38413.2   260.3   0.000029812   0.00001   0.00025  -0.00253   0.00118
  0-1A  -> 16-1A    4.775121   38514.0   259.6   0.009048226   0.00238  -0.00579   0.00488   0.04821
  0-1A  -> 17-1A    4.783794   38583.9   259.2   0.012168882   0.00321  -0.01996  -0.05292   0.00319
  0-1A  -> 18-1A    4.783912   38584.9   259.2   0.012015654   0.00317   0.05256  -0.01974   0.00403
  0-1A  -> 19-1A    4.841778   39051.6   256.1   0.000002765   0.00000  -0.00056   0.00065  -0.00001
  0-1A  -> 20-1A    4.843472   39065.2   256.0   0.000001633   0.00000   0.00042  -0.00016  -0.00048
  0-1A  -> 21-1A    4.875232   39321.4   254.3   0.002447810   0.00066   0.00087   0.00267   0.02549
  0-1A  -> 22-1A    4.913038   39626.3   252.4   0.000000684   0.00000   0.00038   0.00020  -0.00007
  0-1A  -> 23-1A    5.027195   40547.1   246.6   0.000045967   0.00001   0.00012  -0.00024  -0.00356
  0-1A  -> 24-1A    5.053075   40755.8   245.4   0.013167909   0.00367  -0.05970  -0.01001   0.00185
  0-1A  -> 25-1A    5.053425   40758.6   245.3   0.013186414   0.00367  -0.01015   0.05950  -0.00552
  0-1A  -> 26-1A    5.090673   41059.1   243.6   0.001107937   0.00031   0.01563  -0.00809   0.00117
  0-1A  -> 27-1A    5.090858   41060.5   243.5   0.001106066   0.00031   0.00828   0.01547  -0.00155
  0-1A  -> 28-1A    5.097690   41115.6   243.2   0.000063581   0.00002   0.00143  -0.00302  -0.00258
  0-1A  -> 29-1A    5.125518   41340.1   241.9   0.000001606   0.00000   0.00040  -0.00054   0.00001
  0-1A  -> 30-1A    5.153761   41567.9   240.6   0.000000419   0.00000  -0.00028   0.00020  -0.00004

------------------------------------------------------------------------------------------
                     CD SPECTRUM VIA TRANSITION ELECTRIC DIPOLE MOMENTS    
------------------------------------------------------------------------------------------
     Transition      Energy     Energy  Wavelength    R        MX        MY        MZ   
                      (eV)      (cm-1)    (nm)   (1e40*cgs)   (au)      (au)      (au)  
------------------------------------------------------------------------------------------
  0-1A  ->  1-1A    1.532365   12359.4   809.1   -0.05728   0.04472  -0.16233  -0.00039
  0-1A  ->  2-1A    1.560535   12586.6   794.5   -0.35367  -0.50368   0.19533   0.00057
  0-1A  ->  3-1A    1.572634   12684.2   788.4    0.39608  -0.21572  -0.48668   0.03876
  0-1A  ->  4-1A    1.834869   14799.2   675.7    0.00478  -0.02095  -0.09316  -1.07297
  0-1A  ->  5-1A    2.502798   20186.4   495.4   -0.65875   0.00494  -0.00879   0.00274
  0-1A  ->  6-1A    2.503026   20188.3   495.3    0.66187   0.00933   0.00470   0.00058
  0-1A  ->  7-1A    3.589597   28952.1   345.4  -407.12327   0.14591   0.05763  -0.00955
  0-1A  ->  8-1A    3.589911   28954.6   345.4  406.55827  -0.06116   0.14509  -0.01080
  0-1A  ->  9-1A    4.085803   32954.2   303.5   -0.06255   0.01825   0.10434   1.09252
  0-1A  -> 10-1A    4.174203   33667.2   297.0    0.00089   0.00001  -0.00094   0.00048
  0-1A  -> 11-1A    4.398659   35477.6   281.9    0.00089  -0.00035  -0.00169   0.00004
  0-1A  -> 12-1A    4.429959   35730.0   279.9  -57.43198  -0.15012  -0.05214   0.00810
  0-1A  -> 13-1A    4.430071   35730.9   279.9   57.59593   0.05292  -0.14963   0.01525
  0-1A  -> 14-1A    4.588257   37006.8   270.2    0.00154   0.00098   0.00020   0.00495
  0-1A  -> 15-1A    4.762629   38413.2   260.3    0.01618   0.00129   0.00085   0.00415
  0-1A  -> 16-1A    4.775121   38514.0   259.6   -0.41771  -0.00080   0.00410  -0.00225
  0-1A  -> 17-1A    4.783794   38583.9   259.2   -3.39541   0.03800   0.01531  -0.00490
  0-1A  -> 18-1A    4.783912   38584.9   259.2    3.45920   0.01596  -0.03711   0.00496
  0-1A  -> 19-1A    4.841778   39051.6   256.1   -0.07268   0.00135   0.00694   0.07156
  0-1A  -> 20-1A    4.843472   39065.2   256.0    0.09531   0.00037  -0.00002   0.00244
  0-1A  -> 21-1A    4.875232   39321.4   254.3    0.13709  -0.00067   0.00063   0.00116
  0-1A  -> 22-1A    4.913038   39626.3   252.4   -0.00723   0.00536   0.03286   0.35088
  0-1A  -> 23-1A    5.027195   40547.1   246.6   -0.08358   0.00028  -0.00138   0.00103
  0-1A  -> 24-1A    5.053075   40755.8   245.4  -35.55345   0.07315  -0.04404   0.00210
  0-1A  -> 25-1A    5.053425   40758.6   245.3   35.76310   0.04337   0.07303  -0.00726
  0-1A  -> 26-1A    5.090673   41059.1   243.6    5.22471   0.02473  -0.05399   0.01239
  0-1A  -> 27-1A    5.090858   41060.5   243.5   -5.38859  -0.05538  -0.02422   0.01091
  0-1A  -> 28-1A    5.097690   41115.6   243.2    0.11359   0.00513  -0.00442   0.00009
  0-1A  -> 29-1A    5.125518   41340.1   241.9    0.07932  -0.00474  -0.03128  -0.29773
  0-1A  -> 30-1A    5.153761   41567.9   240.6   -0.00670   0.00093   0.00639   0.06501

------------------------------------------------------------------------------------------
                     CD SPECTRUM VIA TRANSITION VELOCITY DIPOLE MOMENTS    
------------------------------------------------------------------------------------------
     Transition      Energy     Energy  Wavelength    R        MX        MY        MZ   
                      (eV)      (cm-1)    (nm)   (1e40*cgs)   (au)      (au)      (au)  
------------------------------------------------------------------------------------------
  0-1A  ->  1-1A    1.532365   12359.4   809.1    0.30000   0.04472  -0.16233  -0.00039
  0-1A  ->  2-1A    1.560535   12586.6   794.5    2.18695  -0.50368   0.19533   0.00057
  0-1A  ->  3-1A    1.572634   12684.2   788.4   -2.51438  -0.21572  -0.48668   0.03876
  0-1A  ->  4-1A    1.834869   14799.2   675.7    0.04462  -0.02095  -0.09316  -1.07297
  0-1A  ->  5-1A    2.502798   20186.4   495.4    1.95338   0.00494  -0.00879   0.00274
  0-1A  ->  6-1A    2.503026   20188.3   495.3   -1.93912   0.00933   0.00470   0.00058
  0-1A  ->  7-1A    3.589597   28952.1   345.4  -153.71652   0.14591   0.05763  -0.00955
  0-1A  ->  8-1A    3.589911   28954.6   345.4  153.37468  -0.06116   0.14509  -0.01080
  0-1A  ->  9-1A    4.085803   32954.2   303.5   -0.16108   0.01825   0.10434   1.09252
  0-1A  -> 10-1A    4.174203   33667.2   297.0    0.00621   0.00001  -0.00094   0.00048
  0-1A  -> 11-1A    4.398659   35477.6   281.9   -0.00047  -0.00035  -0.00169   0.00004
  0-1A  -> 12-1A    4.429959   35730.0   279.9  -33.42613  -0.15012  -0.05214   0.00810
  0-1A  -> 13-1A    4.430071   35730.9   279.9   33.57013   0.05292  -0.14963   0.01525
  0-1A  -> 14-1A    4.588257   37006.8   270.2    0.00182   0.00098   0.00020   0.00495
  0-1A  -> 15-1A    4.762629   38413.2   260.3    0.00827   0.00129   0.00085   0.00415
  0-1A  -> 16-1A    4.775121   38514.0   259.6   -0.22540  -0.00080   0.00410  -0.00225
  0-1A  -> 17-1A    4.783794   38583.9   259.2   -4.24812   0.03800   0.01531  -0.00490
  0-1A  -> 18-1A    4.783912   38584.9   259.2    4.26805   0.01596  -0.03711   0.00496
  0-1A  -> 19-1A    4.841778   39051.6   256.1    0.00886   0.00135   0.00694   0.07156
  0-1A  -> 20-1A    4.843472   39065.2   256.0   -0.00270   0.00037  -0.00002   0.00244
  0-1A  -> 21-1A    4.875232   39321.4   254.3    0.08088  -0.00067   0.00063   0.00116
  0-1A  -> 22-1A    4.913038   39626.3   252.4   -0.03960   0.00536   0.03286   0.35088
  0-1A  -> 23-1A    5.027195   40547.1   246.6   -0.00845   0.00028  -0.00138   0.00103
  0-1A  -> 24-1A    5.053075   40755.8   245.4   -9.95753   0.07315  -0.04404   0.00210
  0-1A  -> 25-1A    5.053425   40758.6   245.3   10.01399   0.04337   0.07303  -0.00726
  0-1A  -> 26-1A    5.090673   41059.1   243.6    2.11033   0.02473  -0.05399   0.01239
  0-1A  -> 27-1A    5.090858   41060.5   243.5   -2.14245  -0.05538  -0.02422   0.01091
  0-1A  -> 28-1A    5.097690   41115.6   243.2    0.05153   0.00513  -0.00442   0.00009
  0-1A  -> 29-1A    5.125518   41340.1   241.9    0.02733  -0.00474  -0.03128  -0.29773
  0-1A  -> 30-1A    5.153761   41567.9   240.6   -0.00342   0.00093   0.00639   0.06501

Total run time:    27703.556 sec

           *** ORCA-CIS/TD-DFT FINISHED WITHOUT ERROR ***
-----------------------
CIS/TD-DFT TOTAL ENERGY
-----------------------

    E(SCF)  =  -3420.869728502 Eh
    DE(CIS) =      0.056313376 Eh (Root  1)
    ----------------------------- ---------
    E(tot)  =  -3420.813415127 Eh


Maximum memory used throughout the entire CIS-calculation: 2456.3 MB
=> NOW LEAVING ORCA_CIS

-------------------------   --------------------
FINAL SINGLE POINT ENERGY     -3420.813415126551
-------------------------   --------------------



           ************************************************************
           *        Program running with 8 parallel MPI-processes     *
           *              working on a common directory               *
           ************************************************************

------------------------------------------------------------------------------
                              ORCA PROPERTY CALCULATIONS
------------------------------------------------------------------------------

GBWName                                 ... tddft.gbw
Number of atoms                         ...     77
Number of basis functions               ...   1701
Max core memory                         ...   3000 MB

Electric properties:
Dipole moment                           ... YES
Quadrupole moment                       ...  NO
Static polarizability (Dipole/Dipole)   ...  NO
Static polarizability (Dipole/Quad.)    ...  NO
Static polarizability (Quad./Quad.)     ...  NO
Static polarizability (Velocity)        ...  NO
Static hyperpolarizability              ...  NO

Atomic electric properties:
Dipole moment                           ...  NO
Quadrupole moment                       ...  NO
Static polarizability                   ...  NO

Choice of electric origin               ... Center of mass
Position of electric origin             ...    -0.159814     5.089039     6.549058

General magnetic properties:
Magnetizability                         ...  NO

EPR properties:
g-Tensor (aka g-matrix)                 ...  NO
Zero-Field splitting spin-orbit         ...  NO
Zero-field splitting spin-spin          ...  NO
Hyperfine couplings                     ...  NO (   0 nuclei)
Quadrupole couplings                    ...  NO (   0 nuclei)
Contact density                         ...  NO (   0 nuclei)

NMR properties:
Chemical shifts                         ...  NO (   0 nuclei)
Spin-rotation constants                 ...  NO (   0 nuclei)
Spin-spin couplings                     ...  NO (   0 nuclei,    0 pairs)

Choice of magnetic origin               ... GIAO
Position of magnetic origin             ...     0.000000     0.000000     0.000000

Properties with geometric perturbations:
SCF Hessian                             ...  NO
IR spectrum                             ...  NO
VCD spectrum                            ...  NO
X-ray spectroscopy properties:
SCF XES/XAS/RIXS spectra                ...  NO

SCF SOC stabilization energy            ...  NO
Diagonal Born-Oppenheimer correction    ...  NO

-------------
DIPOLE MOMENT
-------------

Method             : SCF
Type of density    : Electron Density
Multiplicity       :   1
Irrep              :   0
Energy             : -3420.8697285021976313 Eh
Basis              : AO
                                X                 Y                 Z
Electronic contribution:     -0.005744598       0.003252384       0.042089633
Nuclear contribution   :      0.005414661      -0.002778073      -0.045013959
                        -----------------------------------------
Total Dipole Moment    :     -0.000329937       0.000474311      -0.002924326
                        -----------------------------------------
Magnitude (a.u.)       :      0.002980858
Magnitude (Debye)      :      0.007576738



--------------------
Rotational spectrum 
--------------------
 
Rotational constants in cm-1:             0.001955             0.001954             0.001054 
Rotational constants in MHz :            58.611694            58.584940            31.604966 

Dipole components along the rotational axes: 
x,y,z [a.u.] :    -0.000571     0.000562    -0.002871 
x,y,z [Debye]:    -0.001452     0.001429    -0.007298 

 

Dipole moment calculation done in   0.2 sec 

Maximum memory used throughout the entire PROP-calculation: 235.5 MB

--------------------------------
SUGGESTED CITATIONS FOR THIS RUN
--------------------------------

Below you find a list of papers that are relevant to this ORCA run
We neither can nor want to force you to cite these papers, but we appreciate if you do
You receive ORCA, which is the product of decades of hard work by many enthusiastic individuals, for free
The only thing we kindly ask in return is that you cite our papers,
We deeply appreciate it, if you show your appreciation for ORCA by not just citing the generic ORCA reference.

Please note that relegating all ORCA citations to the supporting information does *not* help us.
SI sections are not indexed - citations you put there will not count into any citation statistics
But we need these citations in order to attract the funding resources that allow us to do what we are doing

Therefore, if you are a happy ORCA user, please consider citing a few of the papers listed below in the main body of your paper

In addition to the list printed below, the program has created the file tddft.bibtex that contains the list in bibtex format
You can import this file easily into all common literature databanks and citation aid programs

It goes without saying that in many instances, there are alternative algorithms to achieve similar
results as the ones you have gotten from ORCA. It is, of course, also the case that in some instances
ORCA just re-implements algorithms worked out by others. We are fully aware of that and we are also
fully appreciative of our colleagues work. Hence this citation list should not be read as indicating
that the listed papers, which are focused on our own work, are the only ones worth citing. It simply
meant to make it easier for users to cite ORCA specific papers. It is not a substitute for doing your
own literature research and citing the relevant literature in a scientifically appropriate manner.

List of essential papers. We consider these as the minimum necessary citations

  1. Neese, F.
     Software update: the ORCA program system, version 6.0
     WIRES Comput. Molec. Sci. 2025 15(1), e70019
     doi.org/10.1002/wcms.70019

List of papers to cite with high priority. The work reported in these papers was absolutely
necessary for this run to complete.
Our perspective: the developers of density functionals and basis sets usually get cited in chemistry papers
Good! But without the algorithms to do something with them, the functionals or basis sets would not do anything.
Hence, in our opinion, the algorithm design and method developments papers are equally worthy of getting cited

  1. Neese, F.; Olbrich, G.
     Efficient use of the resolution of the identity approximation in time-dependent density functional calculations with hybrid density functionals
     Chem. Phys. Lett. 2002 362 , 170-178
     doi.org/10.1016/s0009-2614(02)01053-9
  2. Neese, F.
     An improvement of the resolution of the identity approximation for the formation of the Coulomb matrix
     J. Comp. Chem. 2003 24(14), 1740-1747
     doi.org/10.1002/jcc.10318
  3. Neese, F.; Wennmohs, F.; Hansen, A.; Becker, U.
     Efficient, approximate and parallel Hartree-Fock and hybrid DFT calculations. A 'chain-of-spheres' algorithm for the Hartree-Fock exchange
     Chem. Phys. 2009 356(1-3), 98-109
     doi.org/10.1016/j.chemphys.2008.10.036
  4. Garcia-Rates, M.; Neese, F.
     Effect of the Solute Cavity on the Solvation Energy and its Derivatives within the Framework of the Gaussian Charge Scheme
     J. Comput. Chem. 2020 41 , 922-939
     doi.org/10.1002/jcc.26139
  5. Helmich-Paris, B.; de Souza, B.; Neese, F.; Izsák, R.
     An improved chain of spheres for exchange algorithm
     J. Chem. Phys. 2021 155(10), 104109
     doi.org/10.1063/5.0058766
  6. Neese, F.
     The SHARK Integral Generation and Digestion System
     J. Comp. Chem. 2022 44(3), 381
     doi.org/10.1002/jcc.26942

List of suggested additional citations. These are papers that are important in the 'surrounding' of 
of this run, or papers that preceded the highly important papers. If you like your results we are grateful for a citation.

  1. Izsak, R.; Neese, F.
     An overlap fitted chain of spheres exchange method
     J. Chem. Phys. 2011 135 , 144105
     doi.org/10.1063/1.3646921
  2. Izsak, R.; Hansen, A.; Neese, F.
     The resolution of identity and chain of spheres approximations for the LPNO-CCSD singles Fock term
     Molec. Phys. 2012 110 , 2413-2417
     doi.org/10.1080/00268976.2012.687466
  3. Neese, F.
     The ORCA program system
     WIRES Comput. Molec. Sci. 2012 2(1), 73-78
     doi.org/10.1002/wcms.81
  4. Izsak, R.; Neese, F.; Klopper, W.
     Robust fitting techniques in the chain of spheres approximation to the Fock exchange: The role of the complementary space
     J. Chem. Phys. 2013 139 , 
     doi.org/10.1063/1.4819264
  5. Neese, F.
     Software update: the ORCA program system, version 4.0
     WIRES Comput. Molec. Sci. 2018 8(1), 1-6
     doi.org/10.1002/wcms.1327
  6. Neese, F.; Wennmohs, F.; Becker, U.; Riplinger, C.
     The ORCA quantum chemistry program package
     J. Chem. Phys. 2020 152(22), 224108
     doi.org/10.1063/5.0004608
  7. Neese, F.
     Software update: The ORCA program system—Version 5.0
     WIRES Comput. Molec. Sci. 2022 12(1), e1606
     doi.org/10.1002/wcms.1606

List of optional additional citations

  1. Neese, F.
     Approximate second-order SCF convergence for spin unrestricted wavefunctions
     Chem. Phys. Lett. 2000 325(1-3), 93-98
     doi.org/10.1016/s0009-2614(00)00662-x

Timings for individual modules:

Sum of individual times          ...    32499.732 sec (= 541.662 min)
Startup calculation              ...       58.465 sec (=   0.974 min)   0.2 %
SCF iterations                   ...     4728.927 sec (=  78.815 min)  14.6 %
Property integrals               ...        6.605 sec (=   0.110 min)   0.0 %
Property calculations            ...        1.354 sec (=   0.023 min)   0.0 %
CIS module                       ...    27704.381 sec (= 461.740 min)  85.2 %
                             ****ORCA TERMINATED NORMALLY****
TOTAL RUN TIME: 0 days 9 hours 1 minutes 40 seconds 491 msec
