
                                 *****************
                                 * O   R   C   A *
                                 *****************

                                            #,                                       
                                            ###                                      
                                            ####                                     
                                            #####                                    
                                            ######                                   
                                           ########,                                 
                                     ,,################,,,,,                         
                               ,,#################################,,                 
                          ,,##########################################,,             
                       ,#########################################, ''#####,          
                    ,#############################################,,   '####,        
                  ,##################################################,,,,####,       
                ,###########''''           ''''###############################       
              ,#####''   ,,,,##########,,,,          '''####'''          '####       
            ,##' ,,,,###########################,,,                        '##       
           ' ,,###''''                  '''############,,,                           
         ,,##''                                '''############,,,,        ,,,,,,###''
      ,#''                                            '''#######################'''  
     '                                                          ''''####''''         
             ,#######,   #######,   ,#######,      ##                                
            ,#'     '#,  ##    ##  ,#'     '#,    #''#        ,####,    ,#,          
            ##       ##  ##   ,#'  ##            #'  '#       #'       ,# #          
            ##       ##  #######   ##           ,######,      #####,      #          
            '#,     ,#'  ##    ##  '#,     ,#' ,#      #,     #,   #      #          
             '#######'   ##     ##  '#######'  #'      '#     '####' #    #          



                #########################################################
                #                        -***-                          #
                #          Department of theory and spectroscopy        #
                #                                                       #
                #                      Frank Neese                      #
                #                                                       #
                #     Directorship, Architecture, Infrastructure        #
                #                    SHARK, DRIVERS                     #
                #        Core code/Algorithms in most modules           #
                #                                                       #
                #        Max Planck Institute fuer Kohlenforschung      #
                #                Kaiser Wilhelm Platz 1                 #
                #                 D-45470 Muelheim/Ruhr                 #
                #                      Germany                          #
                #                                                       #
                #                  All rights reserved                  #
                #                        -***-                          #
                #########################################################


                         Program Version 6.1.1  -  RELEASE   -
                                (GIT: $487d211c$)
                          ($2025-11-21 10:33:24 +0100$)


 With contributions from (in alphabetic order):
[Max-Planck-Institut fuer Kohlenforschung]                               
  Daniel Aravena         : Magnetic Suceptibility                        
  Michael Atanasov       : Ab Initio Ligand Field Theory (pilot matlab implementation)
  Alexander A. Auer      : GIAO ZORA, VPT2 properties, NMR spectrum      
  Ute Becker             : All parallelization in ORCA, NUMFREQ, NUMCALC 
  Giovanni Bistoni       : ED, misc. LED, open-shell LED, HFLD           
  Dmytro Bykov           : pre 5.0 version of the SCF Hessian            
  Marcos Casanova-Páez   : Triplet and SCS-CIS(D). UHF-(DLPNO)-IP/EA/STEOM-CCSD. UHF-CVS-IP/STEOM-CCSD   
  Vijay G. Chilkuri      : MRCI spin determinant printing, contributions to CSF-ICE 
  Pauline Colinet        : FMM embedding                                 
  Dipayan Datta          : RHF DLPNO-CCSD density                        
  Achintya Kumar Dutta   : EOM-CC, STEOM-CC                              
  Nicolas Foglia         : Exact transition moments, OPA infrastructure, MCD improvements    
  Dmitry Ganyushin       : Spin-Orbit,Spin-Spin,Magnetic field MRCI      
  Miquel Garcia-Rates    : C-PCM and meta-GGA Hessian, CCSD/C-PCM, Gaussian charge scheme 
  Tiago L. C. Gouveia    : GS-ROHF, GS-ROCIS                             
  Yang Guo               : DLPNO-NEVPT2, F12-NEVPT2, CIM, IAO-localization        
  Andreas Hansen         : Spin unrestricted coupled pair/coupled cluster methods 
  Ingolf Harden          : AUTO-CI MPn and infrastructure                
  Benjamin Helmich-Paris : MC-RPA, TRAH-(SCF,CASSCF), AVAS, COSX integrals, SCF dyn. polar., MC-PDFT, srDFT 
  Lee Huntington         : MR-EOM, pCC                                   
  Robert Izsak           : Overlap fitted RIJCOSX, COSX-SCS-MP3, EOM     
  Riya Kayal             : Wick's Theorem for AUTO-CI, AUTO-CI UHF-CCSDT 
  Emily Kempfer          : AUTO-CI RHF CISDT and CCSDT, approximate NEVPT4
  Christian Kollmar      : KDIIS, OOCD, Brueckner-CCSD(T), CCSD density, CASPT2, CASPT2-K, improved NEVPT2 
  Axel Koslowski         : Symmetry handling                             
  Simone Kossmann        : meta-GGA functionals, TD-DFT gradient, OOMP2, (MP2 Hessian; deprecated post 5.0) 
  Lucas Lang             : DCDCAS, Hyperfine gauge corrections, ICE-SOC+SSC
  Marvin Lechner         : AUTO-CI (C++ implementation), FIC-MRCC        
  Spencer Leger          : CASSCF response                               
  Dagmar Lenk            : GEPOL surface, SMD, ORCA-2-JSON               
  Dimitrios Liakos       : Extrapolation schemes; Compound Job, Property file
  Dimitrios Manganas     : Further ROCIS development; embedding schemes. LFT, Crystal Embedding 
  Dimitrios Pantazis     : SARC Basis sets                               
  Anastasios Papadopoulos: AUTO-CI, single reference methods and gradients 
  Taras Petrenko         : pre 6.0 DFT Hessian and TD-DFT gradient,  ECA, NRVS 
  Petra Pikulova         : Analytic Raman intensities                    
  Peter Pinski           : DLPNO-MP2, DLPNO-MP2 Gradient                 
  Shashank Vittal Rao    : ES-AILFT, MagRelax                            
  Christoph Reimann      : Effective Core Potentials                     
  Marius Retegan         : Local ZFS, SOC                                
  Christoph Riplinger    : Optimizer, TS searches, QM/MM, DLPNO-CCSD(T), (RO)-DLPNO pert. Triples 
  Michael Roemelt        : Original ROCIS implementation, recursive CI coupling coefficients
  Masaaki Saitow         : Open-shell DLPNO-CCSD energy and density      
  Barbara Sandhoefer     : DKH picture change effects                    
  Yorick L. A. Schmerwitz: GMF and freeze-and-release deltaSCF, NEB S-IDPP initial path                    
  Kantharuban Sivalingam : CASSCF convergence/infrastructure, NEVPT2, NEVPT3, NEVPT4(SD), FIC-MRCI and CEPA variants
  Bernardo de Souza      : ESD, SOC TD-DFT                               
  Georgi L. Stoychev     : AutoAux, RI-MP2 NMR, DLPNO-MP2 response, X2C  
  Van Anh Tran           : RI-MP2 g-tensors                              
  Willem Van den Heuvel  : Paramagnetic NMR                              
  Zikuan Wang            : NOTCH, Electric field optimization            
  Frank Wennmohs         : Technical directorship and infrastructure     
  Hang Xu                : AUTO-CI-Response properties                   
                                                                         
[FACCTs GmbH]                                                            
  Markus Bursch, Nicolas Foglia, Miquel Garcia-Rates, Ingolf Harden, Hagen Neugebauer, Anastasios Papadopoulos, 
  Christoph Riplinger, Bernardo de Souza, Georgi L. Stoychev                                                    
                                                                 
  APM, various basis sets, CI-OPT, improved COSX, DLPNO-Multilevel,           
  DOCKER, DRACO, updates on ESD, Fragmentator, GOAT, IRC, LR-CPCM, L-BFGS, MBIS, meta-GGA TD-DFT gradient, ML-optimized integration grids, 
  MM, NACMEs, nearIR, NEB, NEB-TS, NL-DFT gradient (VV10), 2- and 3-layer-ONIOM, interface openCOSMO-RS, QMMM,   
  Crystal-QMMM, RESP, rigid body optimization, SF, symmetry and pop. for TD-DFT, various functionals, SOLVATOR                                   
                                                                         
[Other institutions]                                                     
  V. Asgeirsson          : NEB                                           
  Christoph Bannwarth    : sTDA-DFT, sTD-DFT, PBEh-3c, B97-3c, D3        
  Giovanni Bistoni       : ETS/NOCV, ADLD/ADEX, COVALED                  
  Martin Brehm           : Molecular dynamics                            
  Ronald Cardenas        : ETS/NOCV                                      
  Martina Colucci        : COVALED                                       
  Sebastian Ehlert       : rSCAN, r2SCAN, r2SCAN-3c, D4, dhf basis sets  
  Marvin Friede          : D4 for Fr, Ra, Ac-Lr                          
  Lars Goerigk           : TD-DFT with DH, B97 family of functionals     
  Stefan Grimme          : VdW corrections, initial TS optimization, DFT functionals, gCP, sTDA/sTD-DF 
  Waldemar Hujo          : DFT-NL                                        
  H. Jonsson             : NEB                                           
  Holger Kruse           : gCP                                           
  Marcel Mueller         : wB97X-3c, vDZP basis set                      
  Hagen Neugebauer       : wr2SCAN, Native XTB                           
  Gianluca Regni         : ADLD/ADEX                                     
  Tobias Risthaus        : pre 6.0 range-separated hybrid DFT and stability analysis
  Lukas Wittmann         : regularized MP2, r2SCAN double-hybrids, wr2SCAN        
                                                                         
We gratefully acknowledge several colleagues who have allowed us to      
interface, adapt or use parts of their codes:                            
  Ed Valeev, F. Pavosevic, A. Kumar             : LibInt (2-el integral package), F12 methods 
  Garnet Chan, S. Sharma, J. Yang, R. Olivares  : DMRG                   
  Ulf Ekstrom                                   : XCFun DFT Library      
  Mihaly Kallay                                 : mrcc  (arbitrary order and MRCC methods)
  Frank Weinhold                                : gennbo (NPA and NBO analysis)           
  Simon Mueller                                 : openCOSMO-RS                            
  Christopher J. Cramer and Donald G. Truhlar   : smd solvation model                     
  S Lehtola, MJT Oliveira, MAL Marques          : LibXC Library                           
  Liviu Ungur et al                             : ANISO software                          


 Your calculation uses the libint2 library for the computation of 2-el integrals
 For citations please refer to: http://libint.valeyev.net

 Your ORCA version has been built with support for libXC version: 7.0.0
 For citations please refer to: https://libxc.gitlab.io

 This ORCA versions uses:
   CBLAS   interface :  Fast vector & matrix operations
   LAPACKE interface :  Fast linear algebra routines
   SCALAPACK package :  Parallel linear algebra routines
   Shared memory     :  Shared parallel matrices
   BLAS/LAPACK       :  OpenBLAS 0.3.29  USE64BITINT DYNAMIC_ARCH NO_AFFINITY Haswell SINGLE_THREADED
        Core in use  :  Haswell
   Copyright (c) 2011-2014, The OpenBLAS Project


  ***********************************
  * Starting time: Fri Jun 19 11:37:23 2026
  * Host name:     steezy
  * Process ID:    4163514
  * Working dir.:  /home/jannes/metaltpp/pdtpp/02_tddft_tda_comparison/runs/tdaon_m062x
  ***********************************

NOTE: MaxCore=3000 MB was set to SCF,MP2,MDCI,CIPSI,MRCI,RASCI and CIS
      => If you want to overwrite this, your respective input block should be placed after the MaxCore statement


***************************************
The coordinates will be read from file: /home/jannes/metaltpp/pdtpp/01_opt/pdtpp_opt_b3lyp_tzvp.xyz
***************************************


XCFun DFT library Copyright 2009-2010 Ulf Ekstrom and contributors.
See http://admol.org/xcfun for more information.
This is free software; see the source code for copying conditions.
There is ABSOLUTELY NO WARRANTY; not even for MERCHANTABILITY or FITNESS FOR A PARTICULAR PURPOSE.
For details see the documentation.
Scientific users of this library should cite U. Ekstrom, L. Visscher, R. Bast, A. J. Thorvaldsen and K. Ruud;
J.Chem.Theor.Comp. 2010, DOI: 10.1021/ct100117s
XCFun Version 0.99 

================================================================================

cite the ECPs for Pd [Def2-ECP] as follows:
Ce-Yb(ecp-28): M. Dolg, H. Stoll, H.Preuss, J. Chem. Phys., 1989, 90, 1730-1734.
Y-Cd(ecp-28), Hf-Hg(ecp-46): D. Andrae,U. Haeussermann, M. Dolg, H. Stoll, H. Preuss, Theor. Chim. Acta, 1990, 77, 123-141.
In-Sb(ecp-28), Tl-Bi(ecp-46): B. Metz, H. Stoll, M. Dolg, J. Chem. Phys., 2000, 113, 2563-2569.
Te-Xe(ecp-28), Po-Rn(ecp-46): K. A. Peterson, D. Figgen, E. Goll, H. Stoll, M. Dolg, J. Chem. Phys., 2003, 119, 11113-11123.
Rb(ecp-28), Cs(ecp-46): T. Leininger, A. Nicklass, W. Kuechle, H. Stoll, M. Dolg, A. Bergner, Chem. Phys. Lett., 1996, 255, 274-280.
Sr(ecp-28), Ba(ecp-46): M. Kaupp, P. V. Schleyer, H. Stoll and H. Preuss, J. Chem. Phys., 1991, 94, 1360-1366.
La(ecp-46): M. Dolg, H. Stoll, A. Savin, H. Preuss, Theor. Chim. Acta, 1989, 75, 173-194.
Lu(ecp-28): X. Cao, M. Dolg, J. Chem. Phys., 2001, 115, 7348-7355.

ECP parameters for Pd [Def2-ECP] have been obtained from:
TURBOMOLE (7.0.2)

----- Orbital basis set information -----
Your calculation utilizes the basis: def2-TZVP
   F. Weigend and R. Ahlrichs, Phys. Chem. Chem. Phys. 7, 3297 (2005).

----- AuxJ basis set information -----
Your calculation utilizes the auxiliary basis: def2/J
   H-Rn: F. Weigend, Phys. Chem. Chem. Phys. 8, 1057 (2006).
   Fr-Lr: K. Eichkorn, F. Weigend, O. Treutler, R. Ahlrichs; Theor. Chem. Acc. 97, 119 (1997).

================================================================================
                                        WARNINGS
                       Please study these warnings very carefully!
================================================================================

WARNING: Functional chosen is sensitive to the integration grid.
         DEFGRID3 seems to be a minimum grid for robust results!

WARNING: CIS/ROCIS methods need fully converged wavefunctions
  ===> : Setting SCFConvForced true
         You can overwrite this default with %scf ConvForced false 


================================================================================
                                       INPUT FILE
================================================================================
NAME = tddft.inp
|  1> %pal nprocs 8 end
|  2> %maxcore 3000
|  3> ! M062X def2-TZVP def2/J RIJCOSX DefGrid3 TightSCF CPCM(Toluene)
|  4> %tddft
|  5>   nroots 30
|  6>   triplets false
|  7> end
|  8> * xyzfile 0 1 /home/jannes/metaltpp/pdtpp/01_opt/pdtpp_opt_b3lyp_tzvp.xyz
|  9> 
| 10>                          ****END OF INPUT****
================================================================================

                       ****************************
                       * Single Point Calculation *
                       ****************************

---------------------------------
CARTESIAN COORDINATES (ANGSTROEM)
---------------------------------
  N     -2.110111    2.523986    3.526306
  H      1.680708   -2.231879    3.875943
  C     -4.350164    3.014180    3.528684
  C     -0.398700   -1.555848    3.857345
  N      0.088372    0.674508    3.642372
  C      0.949750   -1.443294    3.818760
  H     -0.984444   -2.454130    3.954075
  C      2.846209    1.835215    3.486172
  N     -0.257514    4.711523    3.290563
  C     -1.119661    6.826869    3.090611
  C      2.549230    0.478205    3.615278
  C      2.658674    4.024328    3.288459
  N      1.940905    2.861709    3.403183
  C      4.066237    3.716718    3.304558
  C     -0.940811   -0.225622    3.745087
  C      1.256652   -0.041925    3.685527
  C     -2.827643    1.361920    3.647811
  C     -3.015449    3.550925    3.450264
  C     -4.235016    1.670650    3.647688
  C     -2.303720    0.072859    3.750245
  C     -2.718588    4.907514    3.316718
  C      4.181200    2.373289    3.424687
  C     -1.426068    5.427219    3.241348
  C      0.228751    6.939530    3.051533
  C      2.134675    5.313015    3.179589
  C      0.771452    5.610948    3.179597
  H     -5.253072    3.599850    3.494400
  H     -5.025746    0.944187    3.727651
  H      5.084270    1.788820    3.472387
  H      4.857333    4.443914    3.236243
  H      0.813904    7.836710    2.942245
  H     -1.850874    7.614165    3.020414
  Pd    -0.084580    2.692939    3.465620
  C      3.695443   -0.484867    3.685036
  C      4.258932   -1.006943    2.519126
  C      5.323036   -1.900436    2.583197
  C      5.839686   -2.284575    3.815767
  C      5.286069   -1.770214    4.983115
  C      4.221669   -0.877211    4.917385
  H      3.858687   -0.709905    1.557428
  H      5.747577   -2.296217    1.668734
  H      6.668315   -2.979959    3.866242
  H      5.682559   -2.062933    5.947603
  H      3.793063   -0.478014    5.828574
  C     -3.268878   -1.066687    3.874522
  C     -3.667918   -1.788375    2.747750
  C     -4.564234   -2.845791    2.862457
  C     -5.074526   -3.197454    4.107322
  C     -4.683635   -2.485348    5.235983
  C     -3.787778   -1.427761    5.119547
  H     -3.273041   -1.516543    1.776417
  H     -4.864104   -3.393742    1.977602
  H     -5.772141   -4.020854    4.197211
  H     -5.074971   -2.752745    6.209880
  H     -3.484718   -0.875694    6.000826
  C     -3.864733    5.870703    3.247417
  C     -4.478147    6.160659    2.027095
  C     -5.541818    7.054544    1.961680
  C     -6.007913    7.671692    3.117385
  C     -5.403930    7.390113    4.337892
  C     -4.339974    6.496389    4.401583
  H     -4.117079    5.682037    1.124963
  H     -6.005261    7.268689    1.006429
  H     -6.836146    8.367565    3.067198
  H     -5.760543    7.865684    5.243313
  H     -3.871962    6.279023    5.353961
  C      3.099664    6.452146    3.053442
  C      3.661497    6.775794    1.816635
  C      4.557159    7.833246    1.698146
  C      4.905551    8.582603    2.816561
  C      4.352538    8.268463    4.053191
  C      3.455949    7.211546    4.169835
  H      3.391367    6.195061    0.943123
  H      4.981312    8.071697    0.730485
  H      5.603197    9.405802    2.725123
  H      4.619446    8.845223    4.930252
  H      3.028116    6.968877    5.134904

----------------------------
CARTESIAN COORDINATES (A.U.)
----------------------------
  NO LB      ZA    FRAG     MASS         X           Y           Z
   0 N     7.0000    0    14.007   -3.987532    4.769643    6.663752
   1 H     1.0000    0     1.008    3.176078   -4.217640    7.324470
   2 C     6.0000    0    12.011   -8.220618    5.695974    6.668247
   3 C     6.0000    0    12.011   -0.753433   -2.940127    7.289325
   4 N     7.0000    0    14.007    0.167000    1.274636    6.883085
   5 C     6.0000    0    12.011    1.794768   -2.727430    7.216410
   6 H     1.0000    0     1.008   -1.860330   -4.637633    7.472119
   7 C     6.0000    0    12.011    5.378556    3.468053    6.587911
   8 N     7.0000    0    14.007   -0.486630    8.903488    6.218263
   9 C     6.0000    0    12.011   -2.115853   12.900913    5.840409
  10 C     6.0000    0    12.011    4.817346    0.903677    6.831886
  11 C     6.0000    0    12.011    5.024166    7.604878    6.214287
  12 N     7.0000    0    14.007    3.667778    5.407845    6.431083
  13 C     6.0000    0    12.011    7.684074    7.023580    6.244710
  14 C     6.0000    0    12.011   -1.777875   -0.426364    7.077189
  15 C     6.0000    0    12.011    2.374728   -0.079226    6.964637
  16 C     6.0000    0    12.011   -5.343471    2.573656    6.893365
  17 C     6.0000    0    12.011   -5.698373    6.710275    6.520053
  18 C     6.0000    0    12.011   -8.003020    3.157071    6.893131
  19 C     6.0000    0    12.011   -4.353399    0.137684    7.086935
  20 C     6.0000    0    12.011   -5.137387    9.273858    6.267689
  21 C     6.0000    0    12.011    7.901322    4.484867    6.471720
  22 C     6.0000    0    12.011   -2.694878   10.255957    6.125260
  23 C     6.0000    0    12.011    0.432276   13.113811    5.766562
  24 C     6.0000    0    12.011    4.033951   10.040142    6.008552
  25 C     6.0000    0    12.011    1.457834   10.603155    6.008567
  26 H     1.0000    0     1.008   -9.926868    6.802731    6.603459
  27 H     1.0000    0     1.008   -9.497284    1.784254    7.044239
  28 H     1.0000    0     1.008    9.607878    3.380380    6.561861
  29 H     1.0000    0     1.008    9.179030    8.397781    6.115613
  30 H     1.0000    0     1.008    1.538055   14.809236    5.560037
  31 H     1.0000    0     1.008   -3.497646   14.388686    5.707755
  32 Pd   18.0000*   0   106.400   -0.159833    5.088918    6.549072
  33 C     6.0000    0    12.011    6.983374   -0.916266    6.963708
  34 C     6.0000    0    12.011    8.048215   -1.902846    4.760457
  35 C     6.0000    0    12.011   10.059080   -3.591304    4.881536
  36 C     6.0000    0    12.011   11.035408   -4.317220    7.210756
  37 C     6.0000    0    12.011    9.989222   -3.345220    9.416722
  38 C     6.0000    0    12.011    7.977797   -1.657689    9.292512
  39 H     1.0000    0     1.008    7.291861   -1.341526    2.943112
  40 H     1.0000    0     1.008   10.861347   -4.339222    3.153449
  41 H     1.0000    0     1.008   12.601290   -5.631306    7.306139
  42 H     1.0000    0     1.008   10.738480   -3.898379   11.239342
  43 H     1.0000    0     1.008    7.167849   -0.903316   11.014408
  44 C     6.0000    0    12.011   -6.177283   -2.015746    7.321785
  45 C     6.0000    0    12.011   -6.931360   -3.379539    5.192495
  46 C     6.0000    0    12.011   -8.625153   -5.377765    5.409260
  47 C     6.0000    0    12.011   -9.589465   -6.042312    7.761714
  48 C     6.0000    0    12.011   -8.850788   -4.696626    9.894574
  49 C     6.0000    0    12.011   -7.157863   -2.698078    9.674541
  50 H     1.0000    0     1.008   -6.185151   -2.865852    3.356941
  51 H     1.0000    0     1.008   -9.191825   -6.413243    3.737127
  52 H     1.0000    0     1.008  -10.907766   -7.598313    7.931580
  53 H     1.0000    0     1.008   -9.590305   -5.201934   11.734973
  54 H     1.0000    0     1.008   -6.585162   -1.654821   11.339918
  55 C     6.0000    0    12.011   -7.303287   11.094021    6.136729
  56 C     6.0000    0    12.011   -8.462472   11.641958    3.830655
  57 C     6.0000    0    12.011  -10.472518   13.331156    3.707038
  58 C     6.0000    0    12.011  -11.353310   14.497398    5.891003
  59 C     6.0000    0    12.011  -10.211947   13.965290    8.197428
  60 C     6.0000    0    12.011   -8.201361   12.276396    8.317786
  61 H     1.0000    0     1.008   -7.780152   10.737494    2.125873
  62 H     1.0000    0     1.008  -11.348298   13.735832    1.901875
  63 H     1.0000    0     1.008  -12.918444   15.812406    5.796164
  64 H     1.0000    0     1.008  -10.885848   14.863989    9.908426
  65 H     1.0000    0     1.008   -7.316948   11.865634   10.117519
  66 C     6.0000    0    12.011    5.857516   12.192790    5.770169
  67 C     6.0000    0    12.011    6.919226   12.804394    3.432943
  68 C     6.0000    0    12.011    8.611782   14.802689    3.209031
  69 C     6.0000    0    12.011    9.270147   16.218769    5.322530
  70 C     6.0000    0    12.011    8.225105   15.625130    7.659421
  71 C     6.0000    0    12.011    6.530797   13.627847    7.879847
  72 H     1.0000    0     1.008    6.408756   11.706968    1.782244
  73 H     1.0000    0     1.008    9.413315   15.253296    1.380417
  74 H     1.0000    0     1.008   10.588507   17.774390    5.149736
  75 H     1.0000    0     1.008    8.729487   16.715049    9.316826
  76 H     1.0000    0     1.008    5.722310   13.169268    9.703562
* core charge reduced due to ECP

--------------------------------
INTERNAL COORDINATES (ANGSTROEM)
--------------------------------
 N      0   0   0     0.000000000000     0.00000000     0.00000000
 H      1   0   0     6.091864519695     0.00000000     0.00000000
 C      1   2   0     2.293061668774   140.77976632     0.00000000
 C      2   1   3     2.186618710776    33.52783143     0.04252703
 N      4   2   1     2.293020439396    95.71126238     0.13201848
 C      2   1   3     1.076771071192     4.27097730     0.95018847
 H      4   2   1     1.076737357735   104.98917044   180.24197510
 C      5   4   2     2.996214647055   125.25434724   359.81268877
 N      1   2   6     2.876283733654   101.39950918   180.95456890
 C      9   1   2     2.293026306020   117.81294611   179.23280037
 C      8   5   4     1.395112866777    54.72016910     0.08516652
 C      8   5   4     2.206009583477   108.11038933   180.04091611
 N     12   8   5     1.371145497004    36.44556594   359.65156690
 C     12   8   5     1.440873091928    72.78845772   179.45502588
 C      5   4   2     1.371131839070    36.38876957   179.89822507
 C      5   4   2     1.371136533824    70.71949993   359.92072186
 C      1   2   6     1.371135984783    70.05647476     1.03551285
 C      1   2   6     1.371138730284   177.16104147   358.97779031
 C      3   1   2     1.353695948585    72.83217491     0.00000000
 C     15   5   4     1.395219876198   126.37442169   179.66696349
 C     18   1  17     1.395097281961   126.37748330   180.13749834
 C     14  12   8     1.353679735100   107.20709609     0.05323370
 C      9   1   2     1.371190110672    81.43098556   179.61880543
 C     10   9   1     1.353674188183    72.82860588   180.60441881
 C     12   8   5     1.395399661196   162.81723884     0.00000000
 C      9   1   2     1.371149126465   171.44610486     2.37032993
 H      3   1   2     1.076767616977   159.29162586   180.04288983
 H     19   3   1     1.076753670965   127.85564321   180.14471152
 H     22  14  12     1.076761799141   127.86843687   180.16669300
 H     14  12   8     1.076714671126   124.94922907   180.29620946
 H     24  10   9     1.076699071888   127.85290957   179.65835995
 H     10   9   1     1.076770499221   159.31197649     0.00000000
 Pd    13  12   8     2.033462073962   126.46781400   179.19972923
 C     11   8   5     1.498725461683   117.81049574   180.12635065
 C     34  11   8     1.396219767790   120.66842979   272.82165428
 C     35  34  11     1.390953825264   120.69543613   179.97740510
 C     36  35  34     1.390582364320   120.16603241   359.97529885
 C     37  36  35     1.390596386896   119.60239487     0.00000000
 C     38  37  36     1.390943109850   120.16249836     0.00000000
 H     35  34  11     1.083185124941   119.32249910   359.94042574
 H     36  35  34     1.083107498935   119.71566789   179.95479444
 H     37  36  35     1.082927975900   120.19786101   180.01705479
 H     38  37  36     1.083110082999   120.12050429   180.06128569
 H     39  38  37     1.083201384917   119.97650792   180.03150919
 C     20  15   5     1.498512414292   117.82573721   180.08675936
 C     45  20  15     1.396309957761   120.67602934   275.47228008
 C     46  45  20     1.390923913888   120.69950293   180.03028757
 C     47  46  45     1.390594937017   120.16864752   359.97146212
 C     48  47  46     1.390599546684   119.59914676     0.02391936
 C     49  48  47     1.390901187040   120.16385760     0.00000000
 H     46  45  20     1.083193415161   119.32361907   359.94790795
 H     47  46  45     1.083116076579   119.71172485   179.90374148
 H     48  47  46     1.082928541119   120.19742760   180.02050545
 H     49  48  47     1.083106931738   120.12000129   180.06956091
 H     50  49  48     1.083179315867   119.97573915   180.05227748
 C     21  18   1     1.498727198128   117.81570509   179.80364232
 C     56  21  18     1.396258338985   120.65372407   273.45074291
 C     57  56  21     1.390936594620   120.69852576   180.00777400
 C     58  57  56     1.390600697335   120.16129999     0.00000000
 C     59  58  57     1.390582904429   119.60335106     0.02620359
 C     60  59  58     1.390971536282   120.16672006     0.00000000
 H     57  56  21     1.083185608742   119.32096230   359.95749120
 H     58  57  56     1.083116967127   119.71873647   179.93453949
 H     59  58  57     1.082925507565   120.19933745   180.01377371
 H     60  59  58     1.083110391607   120.11852907   180.03003533
 H     61  60  59     1.083192681126   119.97900133   180.02036021
 C     25  12   8     1.498245128282   117.83135176   180.16993308
 C     67  25  12     1.396457852924   120.65804047    81.98986846
 C     68  67  25     1.390846818110   120.71358375   179.98302436
 C     69  68  67     1.390599469242   120.16689149     0.06630908
 C     70  69  68     1.390596912200   119.59423432   359.96944806
 C     71  70  69     1.390881522349   120.17162991   359.96512984
 H     68  67  25     1.083164020706   119.31777031     0.12948246
 H     69  68  67     1.083112177416   119.71424993   180.15314058
 H     70  69  68     1.082925280805   120.20670543   179.97266556
 H     71  70  69     1.083110359360   120.11990499   179.87743042
 H     72  71  70     1.083183646087   119.97152232   179.92136023

---------------------------
INTERNAL COORDINATES (A.U.)
---------------------------
 N      0   0   0     0.000000000000     0.00000000     0.00000000
 H      1   0   0    11.511955587176     0.00000000     0.00000000
 C      1   2   0     4.333258562175   140.77976632     0.00000000
 C      2   1   3     4.132110522674    33.52783143     0.04252703
 N      4   2   1     4.333180649942    95.71126238     0.13201848
 C      2   1   3     2.034802433482     4.27097730     0.95018847
 H      4   2   1     2.034738724282   104.98917044   180.24197510
 C      5   4   2     5.662025121378   125.25434724   359.81268877
 N      1   2   6     5.435388540058   101.39950918   180.95456890
 C      9   1   2     4.333191736256   117.81294611   179.23280037
 C      8   5   4     2.636381244118    54.72016910     0.08516652
 C      8   5   4     4.168753961577   108.11038933   180.04091611
 N     12   8   5     2.591089479096    36.44556594   359.65156690
 C     12   8   5     2.722855537480    72.78845772   179.45502588
 C      5   4   2     2.591063669343    36.38876957   179.89822507
 C      5   4   2     2.591072541142    70.71949993   359.92072186
 C      1   2   6     2.591071503605    70.05647476     1.03551285
 C      1   2   6     2.591076691848   177.16104147   358.97779031
 C      3   1   2     2.558114611425    72.83217491     0.00000000
 C     15   5   4     2.636583462617   126.37442169   179.66696349
 C     18   1  17     2.636351793084   126.37748330   180.13749834
 C     14  12   8     2.558083972379   107.20709609     0.05323370
 C      9   1   2     2.591173786711    81.43098556   179.61880543
 C     10   9   1     2.558073490223    72.82860588   180.60441881
 C     12   8   5     2.636923207027   162.81723884     0.00000000
 C      9   1   2     2.591096337784   171.44610486     2.37032993
 H      3   1   2     2.034795905961   159.29162586   180.04288983
 H     19   3   1     2.034769551817   127.85564321   180.14471152
 H     22  14  12     2.034784911844   127.86843687   180.16669300
 H     14  12   8     2.034695852804   124.94922907   180.29620946
 H     24  10   9     2.034666374516   127.85290957   179.65835995
 H     10   9   1     2.034801352614   159.31197649     0.00000000
 Pd    13  12   8     3.842686423504   126.46781400   179.19972923
 C     11   8   5     2.832180672516   117.81049574   180.12635065
 C     34  11   8     2.638472983890   120.66842979   272.82165428
 C     35  34  11     2.628521794680   120.69543613   179.97740510
 C     36  35  34     2.627819835225   120.16603241   359.97529885
 C     37  36  35     2.627846334053   119.60239487     0.00000000
 C     38  37  36     2.628501545482   120.16249836     0.00000000
 H     35  34  11     2.046923238475   119.32249910   359.94042574
 H     36  35  34     2.046776546584   119.71566789   179.95479444
 H     37  36  35     2.046437297212   120.19786101   180.01705479
 H     38  37  36     2.046781429757   120.12050429   180.06128569
 H     39  38  37     2.046953965378   119.97650792   180.03150919
 C     20  15   5     2.831778071293   117.82573721   180.08675936
 C     45  20  15     2.638643418236   120.67602934   275.47228008
 C     46  45  20     2.628465270371   120.69950293   180.03028757
 C     47  46  45     2.627843594180   120.16864752   359.97146212
 C     48  47  46     2.627852305189   119.59914676     0.02391936
 C     49  48  47     2.628422322851   120.16385760     0.00000000
 H     46  45  20     2.046938904722   119.32361907   359.94790795
 H     47  46  45     2.046792755981   119.71172485   179.90374148
 H     48  47  46     2.046438365321   120.19742760   180.02050545
 H     49  48  47     2.046775474736   120.12000129   180.06956091
 H     50  49  48     2.046912260916   119.97573915   180.05227748
 C     21  18   1     2.832183953921   117.81570509   179.80364232
 C     56  21  18     2.638545872886   120.65372407   273.45074291
 C     57  56  21     2.628489233481   120.69852576   180.00777400
 C     58  57  56     2.627854479604   120.16129999     0.00000000
 C     59  58  57     2.627820855884   119.60335106     0.02620359
 C     60  59  58     2.628555263654   120.16672006     0.00000000
 H     57  56  21     2.046924152727   119.32096230   359.95749120
 H     58  57  56     2.046794438874   119.71873647   179.93453949
 H     59  58  57     2.046432632736   120.19933745   180.01377371
 H     60  59  58     2.046782012941   120.11852907   180.03003533
 H     61  60  59     2.046937517595   119.97900133   180.02036021
 C     25  12   8     2.831272973935   117.83135176   180.16993308
 C     67  25  12     2.638922899590   120.65804047    81.98986846
 C     68  67  25     2.628319580464   120.71358375   179.98302436
 C     69  68  67     2.627852158844   120.16689149     0.06630908
 C     70  69  68     2.627847326735   119.59423432   359.96944806
 C     71  70  69     2.628385161970   120.17162991   359.96512984
 H     68  67  25     2.046883357251   119.31777031     0.12948246
 H     69  68  67     2.046785387631   119.71424993   180.15314058
 H     70  69  68     2.046432204220   120.20670543   179.97266556
 H     71  70  69     2.046781952003   120.11990499   179.87743042
 H     72  71  70     2.046920443847   119.97152232   179.92136023

---------------------
BASIS SET INFORMATION
---------------------
There are 4 groups of distinct atoms

 Group   1 Type N   : 11s6p2d1f contracted to 5s3p2d1f pattern {62111/411/11/1}
 Group   2 Type H   : 5s1p contracted to 3s1p pattern {311/1}
 Group   3 Type C   : 11s6p2d1f contracted to 5s3p2d1f pattern {62111/411/11/1}
 Group   4 Type Pd  : 7s7p6d1f contracted to 6s4p3d1f pattern {211111/4111/411/1}

Atom   0N    basis set group =>   1
Atom   1H    basis set group =>   2
Atom   2C    basis set group =>   3
Atom   3C    basis set group =>   3
Atom   4N    basis set group =>   1
Atom   5C    basis set group =>   3
Atom   6H    basis set group =>   2
Atom   7C    basis set group =>   3
Atom   8N    basis set group =>   1
Atom   9C    basis set group =>   3
Atom  10C    basis set group =>   3
Atom  11C    basis set group =>   3
Atom  12N    basis set group =>   1
Atom  13C    basis set group =>   3
Atom  14C    basis set group =>   3
Atom  15C    basis set group =>   3
Atom  16C    basis set group =>   3
Atom  17C    basis set group =>   3
Atom  18C    basis set group =>   3
Atom  19C    basis set group =>   3
Atom  20C    basis set group =>   3
Atom  21C    basis set group =>   3
Atom  22C    basis set group =>   3
Atom  23C    basis set group =>   3
Atom  24C    basis set group =>   3
Atom  25C    basis set group =>   3
Atom  26H    basis set group =>   2
Atom  27H    basis set group =>   2
Atom  28H    basis set group =>   2
Atom  29H    basis set group =>   2
Atom  30H    basis set group =>   2
Atom  31H    basis set group =>   2
Atom  32Pd   basis set group =>   4
Atom  33C    basis set group =>   3
Atom  34C    basis set group =>   3
Atom  35C    basis set group =>   3
Atom  36C    basis set group =>   3
Atom  37C    basis set group =>   3
Atom  38C    basis set group =>   3
Atom  39H    basis set group =>   2
Atom  40H    basis set group =>   2
Atom  41H    basis set group =>   2
Atom  42H    basis set group =>   2
Atom  43H    basis set group =>   2
Atom  44C    basis set group =>   3
Atom  45C    basis set group =>   3
Atom  46C    basis set group =>   3
Atom  47C    basis set group =>   3
Atom  48C    basis set group =>   3
Atom  49C    basis set group =>   3
Atom  50H    basis set group =>   2
Atom  51H    basis set group =>   2
Atom  52H    basis set group =>   2
Atom  53H    basis set group =>   2
Atom  54H    basis set group =>   2
Atom  55C    basis set group =>   3
Atom  56C    basis set group =>   3
Atom  57C    basis set group =>   3
Atom  58C    basis set group =>   3
Atom  59C    basis set group =>   3
Atom  60C    basis set group =>   3
Atom  61H    basis set group =>   2
Atom  62H    basis set group =>   2
Atom  63H    basis set group =>   2
Atom  64H    basis set group =>   2
Atom  65H    basis set group =>   2
Atom  66C    basis set group =>   3
Atom  67C    basis set group =>   3
Atom  68C    basis set group =>   3
Atom  69C    basis set group =>   3
Atom  70C    basis set group =>   3
Atom  71C    basis set group =>   3
Atom  72H    basis set group =>   2
Atom  73H    basis set group =>   2
Atom  74H    basis set group =>   2
Atom  75H    basis set group =>   2
Atom  76H    basis set group =>   2
---------------------------------
AUXILIARY/J BASIS SET INFORMATION
---------------------------------
There are 4 groups of distinct atoms

 Group   1 Type N   : 12s5p4d2f1g contracted to 6s4p3d1f1g pattern {711111/2111/211/2/1}
 Group   2 Type H   : 5s2p1d contracted to 3s1p1d pattern {311/2/1}
 Group   3 Type C   : 12s5p4d2f1g contracted to 6s4p3d1f1g pattern {711111/2111/211/2/1}
 Group   4 Type Pd  : 11s5p5d3f3g contracted to 8s5p5d2f3g pattern {41111111/11111/11111/21/111}

Atom   0N    basis set group =>   1
Atom   1H    basis set group =>   2
Atom   2C    basis set group =>   3
Atom   3C    basis set group =>   3
Atom   4N    basis set group =>   1
Atom   5C    basis set group =>   3
Atom   6H    basis set group =>   2
Atom   7C    basis set group =>   3
Atom   8N    basis set group =>   1
Atom   9C    basis set group =>   3
Atom  10C    basis set group =>   3
Atom  11C    basis set group =>   3
Atom  12N    basis set group =>   1
Atom  13C    basis set group =>   3
Atom  14C    basis set group =>   3
Atom  15C    basis set group =>   3
Atom  16C    basis set group =>   3
Atom  17C    basis set group =>   3
Atom  18C    basis set group =>   3
Atom  19C    basis set group =>   3
Atom  20C    basis set group =>   3
Atom  21C    basis set group =>   3
Atom  22C    basis set group =>   3
Atom  23C    basis set group =>   3
Atom  24C    basis set group =>   3
Atom  25C    basis set group =>   3
Atom  26H    basis set group =>   2
Atom  27H    basis set group =>   2
Atom  28H    basis set group =>   2
Atom  29H    basis set group =>   2
Atom  30H    basis set group =>   2
Atom  31H    basis set group =>   2
Atom  32Pd   basis set group =>   4
Atom  33C    basis set group =>   3
Atom  34C    basis set group =>   3
Atom  35C    basis set group =>   3
Atom  36C    basis set group =>   3
Atom  37C    basis set group =>   3
Atom  38C    basis set group =>   3
Atom  39H    basis set group =>   2
Atom  40H    basis set group =>   2
Atom  41H    basis set group =>   2
Atom  42H    basis set group =>   2
Atom  43H    basis set group =>   2
Atom  44C    basis set group =>   3
Atom  45C    basis set group =>   3
Atom  46C    basis set group =>   3
Atom  47C    basis set group =>   3
Atom  48C    basis set group =>   3
Atom  49C    basis set group =>   3
Atom  50H    basis set group =>   2
Atom  51H    basis set group =>   2
Atom  52H    basis set group =>   2
Atom  53H    basis set group =>   2
Atom  54H    basis set group =>   2
Atom  55C    basis set group =>   3
Atom  56C    basis set group =>   3
Atom  57C    basis set group =>   3
Atom  58C    basis set group =>   3
Atom  59C    basis set group =>   3
Atom  60C    basis set group =>   3
Atom  61H    basis set group =>   2
Atom  62H    basis set group =>   2
Atom  63H    basis set group =>   2
Atom  64H    basis set group =>   2
Atom  65H    basis set group =>   2
Atom  66C    basis set group =>   3
Atom  67C    basis set group =>   3
Atom  68C    basis set group =>   3
Atom  69C    basis set group =>   3
Atom  70C    basis set group =>   3
Atom  71C    basis set group =>   3
Atom  72H    basis set group =>   2
Atom  73H    basis set group =>   2
Atom  74H    basis set group =>   2
Atom  75H    basis set group =>   2
Atom  76H    basis set group =>   2
-------------------------
ECP PARAMETER INFORMATION
-------------------------

 Group 1, Type Pd ECP Def2-ECP (replacing 28 core electrons, lmax=3)

Atom  32Pd   ECP group =>   1



           ************************************************************
           *        Program running with 8 parallel MPI-processes     *
           *              working on a common directory               *
           ************************************************************
------------------------------------------------------------------------------
                             ORCA STARTUP CALCULATIONS
                           -- RI-GTO INTEGRALS CHOSEN --
------------------------------------------------------------------------------
------------------------------------------------------------------------------
                   ___                                                        
                  /   \      - P O W E R E D   B Y -                         
                 /     \                                                     
                 |  |  |   _    _      __       _____    __    __             
                 |  |  |  | |  | |    /  \     |  _  \  |  |  /  |          
                  \  \/   | |  | |   /    \    | | | |  |  | /  /          
                 / \  \   | |__| |  /  /\  \   | |_| |  |  |/  /          
                |  |  |   |  __  | /  /__\  \  |    /   |      \           
                |  |  |   | |  | | |   __   |  |    \   |  |\   \          
                \     /   | |  | | |  |  |  |  | |\  \  |  | \   \       
                 \___/    |_|  |_| |__|  |__|  |_| \__\ |__|  \__/        
                                                                              
                      - O R C A' S   B I G   F R I E N D -                    
                                      &                                       
                       - I N T E G R A L  F E E D E R -                       
                                                                              
 v1 FN, 2020, v2 2021, v3 2022-2024                                           
------------------------------------------------------------------------------


----------------------
SHARK INTEGRAL PACKAGE
----------------------

Number of atoms                             ...     77
Number of basis functions                   ...   1696
Number of shells                            ...    654
Maximum angular momentum                    ...      3
Integral batch strategy                     ... SHARK/LIBINT Hybrid
RI-J (if used) integral strategy            ... SPLIT-RIJ (Revised 2003 algorithm where possible)
Printlevel                                  ...      1
Contraction scheme used                     ... SEGMENTED contraction
Prescreening option                         ... SCHWARTZ
   Thresh                                   ... 2.500e-11
   Tcut                                     ... 2.500e-12
   Tpresel                                  ... 2.500e-12 
Coulomb Range Separation                    ... NOT USED
Exchange Range Separation                   ... NOT USED
Multipole approximations                    ... NOT USED
Finite Nucleus Model                        ... NOT USED
CABS basis                                  ... NOT available
Auxiliary Coulomb fitting basis             ... AVAILABLE
   # of basis functions in Aux-J            ...   2749
   # of shells in Aux-J                     ...    883
   Maximum angular momentum in Aux-J        ...      4
Auxiliary J/K fitting basis                 ... NOT available
Auxiliary Correlation fitting basis         ... NOT available
Auxiliary 'external' fitting basis          ... NOT available

Checking pre-screening integrals            ... done (  0.0 sec) Dimension = 654
   => SHARK Basis and OBASIS are compatible. Storing Pre-screening
Shell pair information
Shell pair cut-off parameter TPreSel        ...   2.5e-12
Total number of shell pairs                 ...    214185
Shell pairs after pre-screening             ...    104422
Total number of primitive shell pairs       ...    661828
Primitive shell pairs kept                  ...    198973
          la=0 lb=0:  24775 shell pairs
          la=1 lb=0:  30706 shell pairs
          la=1 lb=1:   9368 shell pairs
          la=2 lb=0:  14739 shell pairs
          la=2 lb=1:   9315 shell pairs
          la=2 lb=2:   2222 shell pairs
          la=3 lb=0:   6683 shell pairs
          la=3 lb=1:   4262 shell pairs
          la=3 lb=2:   1897 shell pairs
          la=3 lb=3:    455 shell pairs

Checking whether 4 symmetric matrices of dimension 1696 fit in memory
:Max Core in MB      =   3000.00
 MB in use           =    127.08
 MB left             =   2872.92
 MB needed           =     43.92
 Data fit in memory  = YES
Calculating RI/J V-Matrix + Cholesky decomp.... done (  0.5 sec)
Calculating Nuclear repulsion               ... done (  0.0 sec) ENN=   6002.744108119021 Eh

Diagonalization of the overlap matrix:
Smallest eigenvalue                        ... 2.867e-06
Time for diagonalization                   ...    1.092 sec
Threshold for overlap eigenvalues          ... 1.000e-07
Number of eigenvalues below threshold      ... 0
Time for construction of square roots      ...    2.390 sec
Total time needed                          ...    3.532 sec

-------------------
DFT GRID GENERATION
-------------------

General Integration Accuracy     IntAcc      ... 4.959
Radial Grid Type                 RadialGrid  ... OptM3 with GC (2021)
Angular Grid (max. ang.)         AngularGrid ... 6 (Lebedev-590)
Angular grid pruning method      GridPruning ... 4 (adaptive)
Weight generation scheme         WeightScheme... mBecke (2022)
Basis function cutoff            BFCut       ... 1.0000e-11
Integration weight cutoff        WCut        ... 1.0000e-14
Partially contracted basis set               ... off
Rotationally invariant grid construction     ... off
Angular grids for H and He will be reduced by one unit

Total number of grid points                  ...   931349
Total number of batches                      ...    14594
Average number of points per batch           ...       63
Average number of grid points per atom       ...    12095

--------------------
COSX GRID GENERATION
--------------------

GRIDX 1
-------
General Integration Accuracy     IntAcc      ... 4.020
Radial Grid Type                 RadialGrid  ... OptM3 with GC (2021)
Angular Grid (max. ang.)         AngularGrid ... 2 (Lebedev-110)
Angular grid pruning method      GridPruning ... 4 (adaptive)
Weight generation scheme         WeightScheme... mBecke (2022)
Basis function cutoff            BFCut       ... 1.0000e-11
Integration weight cutoff        WCut        ... 1.0000e-14
Partially contracted basis set               ... on
Rotationally invariant grid construction     ... off
Angular grids for H and He will be reduced by one unit

Total number of grid points                  ...   107306
Total number of batches                      ...      879
Average number of points per batch           ...      122
Average number of grid points per atom       ...     1394
UseSFitting                                  ... on

GRIDX 2
-------
General Integration Accuracy     IntAcc      ... 4.338
Radial Grid Type                 RadialGrid  ... OptM3 with GC (2021)
Angular Grid (max. ang.)         AngularGrid ... 3 (Lebedev-194)
Angular grid pruning method      GridPruning ... 4 (adaptive)
Weight generation scheme         WeightScheme... mBecke (2022)
Basis function cutoff            BFCut       ... 1.0000e-11
Integration weight cutoff        WCut        ... 1.0000e-14
Partially contracted basis set               ... on
Rotationally invariant grid construction     ... off
Angular grids for H and He will be reduced by one unit

Total number of grid points                  ...   229447
Total number of batches                      ...     1831
Average number of points per batch           ...      125
Average number of grid points per atom       ...     2980
UseSFitting                                  ... on

GRIDX 3
-------
General Integration Accuracy     IntAcc      ... 4.871
Radial Grid Type                 RadialGrid  ... OptM3 with GC (2021)
Angular Grid (max. ang.)         AngularGrid ... 4 (Lebedev-302)
Angular grid pruning method      GridPruning ... 4 (adaptive)
Weight generation scheme         WeightScheme... mBecke (2022)
Basis function cutoff            BFCut       ... 1.0000e-11
Integration weight cutoff        WCut        ... 1.0000e-14
Partially contracted basis set               ... on
Rotationally invariant grid construction     ... off
Angular grids for H and He will be reduced by one unit

Total number of grid points                  ...   421122
Total number of batches                      ...     3328
Average number of points per batch           ...      126
Average number of grid points per atom       ...     5469
UseSFitting                                  ... on
Grids setup in  40.0 sec
Initializing property integral containers    ... done (  0.0 sec)

SHARK setup successfully completed in  54.4 seconds

Maximum memory used throughout the entire STARTUP-calculation: 304.5 MB


           ************************************************************
           *        Program running with 8 parallel MPI-processes     *
           *              working on a common directory               *
           ************************************************************
-------------------------------------------------------------------------------
                                 ORCA GUESS
                   Start orbitals & Density for SCF / CASSCF
-------------------------------------------------------------------------------

------------
SCF SETTINGS
------------
Hamiltonian:
 Density Functional     Method          .... DFT(GTOs)
 Exchange Functional    Exchange        .... M062X
 Correlation Functional Correlation     .... M062X
 Gradients option       PostSCFGGA      .... off
 Hybrid DFT is turned on
   Fraction HF Exchange ScalHFX         ....  0.540000
   Scaling of DF-GGA-X  ScalDFX         ....  0.460000
   Scaling of DF-GGA-C  ScalDFC         ....  1.000000
   Scaling of DF-LDA-C  ScalLDAC        ....  1.000000
   Perturbative correction              ....  0.000000
 RI-approximation to the Coulomb term is turned on
   Number of AuxJ basis functions       .... 2749
   RIJ-COSX (HFX calculated with COS-X)).... on


General Settings:
 Integral files         IntName         .... tddft
 Hartree-Fock type      HFTyp           .... RHF
 Total Charge           Charge          ....    0
 Multiplicity           Mult            ....    1
 Number of Electrons    NEL             ....  338
 Basis Dimension        Dim             .... 1696
 Nuclear Repulsion      ENuc            ....   6002.7441081190 Eh

Convergence Acceleration:
 AO-DIIS                CNVDIIS         .... on
   Start iteration      DIISMaxIt       ....    12
   Startup error        DIISStart       ....  0.200000
   # of expansion vecs  DIISMaxEq       ....     5
   Bias factor          DIISBfac        ....   1.050
   Max. coefficient     DIISMaxC        ....  10.000
 MO-DIIS                CNVKDIIS        .... off
 Trust-Rad. Augm. Hess. CNVTRAH         .... auto
   Auto Start mean grad. ratio tolernc. ....  1.125000
   Auto Start start iteration           ....    50
   Auto Start num. interpolation iter.  ....    10
   Max. Number of Micro iterations      ....    24
   Max. Number of Macro iterations      .... Maxiter - #DIIS iter
   Number of Davidson start vectors     ....     2
   Converg. threshold    (grad. norm)   ....   1.000e-05
   Grad. Scal. Fac. for Micro threshold ....   0.100
   Minimum threshold for Micro iter.    ....   1.000e-02
   NR start threshold (gradient norm)   ....   1.000e-04
   Initial trust radius                 ....   0.400
   Minimum AH scaling param. (alpha)    ....   1.000
   Maximum AH scaling param. (alpha)    .... 1000.000
   Quad. conv. algorithm                .... NR
   White noise on init. David. guess    .... on
   Maximum white noise                  ....   0.010
   Pseudo random numbers                .... off
   Inactive MOs                         .... canonical
   Orbital update algorithm             .... Taylor
   Preconditioner                       .... Diag
   Full preconditioner red. dimension   ....   250
 SOSCF                 CNVSOSCF           .... on
   Start iteration     SOSCFMaxIt         ....   150
   Startup grad/error  SOSCFStart         ....  0.003300
   Hessian update      SOSCFHessUp        .... L-BFGS
   Autom. constraints  SOSCFAutoConstrain .... off
 Level Shifting         CNVShift        .... on
   Level shift para.    LevelShift      ....    0.2500
   Turn off err/grad.   ShiftErr        ....    0.0010
 Zerner damping         CNVZerner       .... off
 Static damping         CNVDamp         .... on
   Fraction old density DampFac         ....    0.7000
   Max. Damping (<1)    DampMax         ....    0.9800
   Min. Damping (>=0)   DampMin         ....    0.0000
   Turn off err/grad.   DampErr         ....    0.1000

SCF Procedure:
 Maximum # iterations   MaxIter         ....   125
 SCF integral mode      SCFMode         .... Direct
   Integral package                     .... SHARK and LIBINT hybrid scheme
 Reset frequency        DirectResetFreq ....    20
 Integral Threshold     Thresh          ....  2.500e-11 Eh
 Primitive CutOff       TCut            ....  2.500e-12 Eh

Convergence Tolerance:
 Convergence Check Mode ConvCheckMode   .... Total+1el-Energy
 Convergence forced     ConvForced      .... 1
 Energy Change          TolE            ....  1.000e-08 Eh
 1-El. energy change                    ....  1.000e-05 Eh
 Orbital Gradient       TolG            ....  1.000e-05
 Orbital Rotation angle TolX            ....  1.000e-05
 DIIS Error             TolErr          ....  5.000e-07

------------------------------
INITIAL GUESS: MODEL POTENTIAL
------------------------------
Loading Hartree-Fock densities                     ... done
Atomic calculation to generate a density for atom 32 (Pd with ECP)
  Multiplicity assumed   :    3
  Atomic configuration   : 1s2 2s2 2p6 3s2 3p6 4s2 3d10 4p6 5s2 4d8 
  Number of open shells  : 1
  Command: /opt/orca/orca tddft_atom46.inp "" > tddft_atom46.out
Returned from the atomic calculation with res=0
Calculating cut-offs                               ... done
Initializing the effective Hamiltonian             ... done
Setting up the integral package (SHARK)            ... done
Starting the Coulomb interaction                   ... done (   7.6 sec)
Making the grid                                    ... done (   1.6 sec)
Mapping shells                                     ... done
Starting the XC term evaluation                    ... done (   1.9 sec)
  promolecular density results
     # of electrons  =    365.974760046
     EX              =   -398.259369015
     EC              =    -13.259716790
     EX+EC           =   -411.519085805
Transforming the Hamiltonian                       ... done (   0.5 sec)
Diagonalizing the Hamiltonian                      ... done (   1.0 sec)
Back transforming the eigenvectors                 ... done (   0.7 sec)
Now organizing SCF variables                       ... done
                      ------------------
                      INITIAL GUESS DONE (  15.9 sec)
                      ------------------
             **** ENERGY FILE WAS UPDATED (tddft.en.tmp) ****
Finished Guess after  20.0 sec
Maximum memory used throughout the entire GUESS-calculation: 206.4 MB


           ************************************************************
           *        Program running with 8 parallel MPI-processes     *
           *              working on a common directory               *
           ************************************************************

-------------------------------------------------------------------------------------------
                                      ORCA LEAN-SCF
                              memory conserving SCF solver
-------------------------------------------------------------------------------------------

--------------------
CPCM SOLVATION MODEL
--------------------
CPCM parameters:
  Epsilon                                         ...       2.3870
  Refrac                                          ...       1.4961
  Rsolv                                           ...       1.3000
  Surface type                                    ... GAUSSIAN VDW
  Discretization scheme                           ... Constant charge density
    Threshold for H atoms                         ...       5.0000 (charges/Ang^2)
    Threshold for non-H atoms                     ...       5.0000 (charges/Ang^2)
  Epsilon function type                           ...         CPCM
Solvent:                                          ... TOLUENE
Radii:
  Scheme                                          ... Element-dependent radii
  Radius for N  used is    3.5149 Bohr (=   1.8600 Ang.)
  Radius for H  used is    2.4944 Bohr (=   1.3200 Ang.)
  Radius for C  used is    3.8550 Bohr (=   2.0400 Ang.)
  Radius for Pd used is    3.6963 Bohr (=   1.9560 Ang.)
Calculating surface                               ...        done! (  0.1s)
Cavity surface points                             ...         6812
Cavity Volume                                     ...    4937.0056
Cavity Surface-area                               ...    2293.6117
Calculating surface distance matrix               ...        done! (  1.4s)
Performing Cholesky decomposition & store         ...        done! (  4.0s)
Overall time for CPCM initialization              ...                 5.5s

----------------------------------------D-I-I-S--------------------------------------------
Iteration    Energy (Eh)           Delta-E    RMSDP     MaxDP     DIISErr   Damp  Time(sec)
-------------------------------------------------------------------------------------------
               ***  Starting incremental Fock matrix formation  ***
    1    -2039.3967643770865834     0.00e+00  3.48e-03  2.02e-01  4.40e-01  0.700 472.8
    2    -2039.7905766629310165    -3.94e-01  2.77e-03  1.65e-01  3.05e-01  0.700 238.2
    3    -2039.9976451083293796    -2.07e-01  1.93e-03  1.17e-01  2.10e-01  0.700 235.1
                               ***Turning on AO-DIIS***
    4    -2040.1186894213551568    -1.21e-01  1.36e-03  8.10e-02  1.46e-01  0.700 227.1
    5    -2040.1997152881340298    -8.10e-02  9.57e-04  5.88e-02  1.03e-01  0.700 207.1
    6    -2040.2553749642593175    -5.57e-02  6.77e-04  4.28e-02  7.22e-02  0.700 193.2
    7    -2040.2941434462100005    -3.88e-02  1.59e-03  1.03e-01  5.07e-02  0.000 182.4
                              *** Initializing SOSCF ***
---------------------------------------S-O-S-C-F--------------------------------------
Iteration    Energy (Eh)           Delta-E    RMSDP     MaxDP     MaxGrad    Time(sec)
--------------------------------------------------------------------------------------
    8    -2040.3842415858225650    -9.01e-02  6.84e-05  2.92e-03  1.73e-03   209.4
               *** Restarting incremental Fock matrix formation ***
    9    -2040.3842622639022011    -2.07e-05  1.75e-04  2.88e-03  5.96e-04   336.8
   10    -2040.3842746622403865    -1.24e-05  9.47e-05  1.88e-03  3.01e-04   271.6
   11    -2040.3842780789718745    -3.42e-06  8.27e-05  1.16e-03  1.40e-04   301.2
   12    -2040.3842793124676973    -1.23e-06  1.27e-05  1.68e-04  2.95e-05   342.3
   13    -2040.3842793071571577     5.31e-09  9.16e-06  1.68e-04  2.71e-05   234.9
                 **** Energy Check signals convergence ****

               *****************************************************
               *                     SUCCESS                       *
               *           SCF CONVERGED AFTER  13 CYCLES          *
               *****************************************************

Recomputing exchange energy using gridx3       ... done (  523.988 sec)
Old exchange energy                            :   -149.405895955 Eh
New exchange energy                            :   -149.405890951 Eh
Exchange energy change after final integration :      0.000005005 Eh
Total energy after final integration           :  -2040.384274353 Eh
             **** ENERGY FILE WAS UPDATED (tddft.en.tmp) ****

----------------
TOTAL SCF ENERGY
----------------

Total Energy       :      -2040.38427435279914 Eh          -55521.67877 eV

Components:
Nuclear Repulsion  :       6002.74410811902089 Eh          163342.97138 eV
Electronic Energy  :      -8043.11596770019696 Eh         -218864.31233 eV
One Electron Energy:     -14769.85049259812877 Eh         -401908.06451 eV
Two Electron Energy:       6726.73452489793181 Eh          183043.75219 eV
CPCM Dielectric    :         -0.01241977630801 Eh              -0.33796 eV

Virial components:
Potential Energy   :      -3991.06799202920138 Eh         -108602.48131 eV
Kinetic Energy     :       1950.68371767640201 Eh           53080.80253 eV
Virial Ratio       :          2.04598416230349

DFT components:
N(Alpha)           :      168.999977247136 electrons
N(Beta)            :      168.999977247136 electrons
N(Total)           :      337.999954494272 electrons
E(XC)              :     -139.828590002618 Eh       

CPCM Solvation Model Properties:
Surface-charge          :         -0.04975170213253
Corrected charge        :          0.00000000000000
Outlying charge corr.   :          0.00005645386753 Eh               0.00154 eV
Free-energy (cav+disp)  :  This term is not implemented in the current solvation scheme

---------------
SCF CONVERGENCE
---------------

  Last Energy change         ...   -5.3105e-09  Tolerance :   1.0000e-08
  Last MAX-Density change    ...    1.6758e-04  Tolerance :   1.0000e-07
  Last RMS-Density change    ...    9.1614e-06  Tolerance :   5.0000e-09
  Last DIIS Error            ...    1.7299e-03  Tolerance :   5.0000e-07
  Last Orbital Gradient      ...    2.7133e-05  Tolerance :   1.0000e-05
  Last Orbital Rotation      ...    6.1969e-05  Tolerance :   1.0000e-05


----------------
ORBITAL ENERGIES
----------------

  NO   OCC          E(Eh)            E(eV) 
   0   2.0000     -14.772393      -401.9772 
   1   2.0000     -14.772388      -401.9771 
   2   2.0000     -14.772368      -401.9766 
   3   2.0000     -14.772362      -401.9764 
   4   2.0000     -10.582826      -287.9733 
   5   2.0000     -10.582809      -287.9729 
   6   2.0000     -10.582788      -287.9723 
   7   2.0000     -10.582771      -287.9718 
   8   2.0000     -10.582730      -287.9707 
   9   2.0000     -10.582726      -287.9706 
  10   2.0000     -10.582713      -287.9703 
  11   2.0000     -10.582709      -287.9702 
  12   2.0000     -10.566838      -287.5383 
  13   2.0000     -10.566756      -287.5360 
  14   2.0000     -10.566722      -287.5351 
  15   2.0000     -10.566715      -287.5349 
  16   2.0000     -10.558717      -287.3173 
  17   2.0000     -10.558663      -287.3158 
  18   2.0000     -10.558635      -287.3151 
  19   2.0000     -10.558628      -287.3149 
  20   2.0000     -10.545794      -286.9657 
  21   2.0000     -10.545778      -286.9652 
  22   2.0000     -10.545775      -286.9651 
  23   2.0000     -10.545768      -286.9649 
  24   2.0000     -10.545737      -286.9641 
  25   2.0000     -10.545713      -286.9634 
  26   2.0000     -10.545709      -286.9633 
  27   2.0000     -10.545701      -286.9631 
  28   2.0000     -10.545145      -286.9480 
  29   2.0000     -10.545122      -286.9473 
  30   2.0000     -10.545119      -286.9473 
  31   2.0000     -10.545110      -286.9470 
  32   2.0000     -10.544865      -286.9404 
  33   2.0000     -10.544858      -286.9402 
  34   2.0000     -10.544854      -286.9401 
  35   2.0000     -10.544848      -286.9399 
  36   2.0000     -10.544173      -286.9215 
  37   2.0000     -10.544160      -286.9212 
  38   2.0000     -10.544156      -286.9211 
  39   2.0000     -10.544148      -286.9208 
  40   2.0000     -10.541950      -286.8610 
  41   2.0000     -10.541944      -286.8609 
  42   2.0000     -10.541926      -286.8604 
  43   2.0000     -10.541923      -286.8603 
  44   2.0000     -10.540943      -286.8336 
  45   2.0000     -10.540938      -286.8335 
  46   2.0000     -10.540920      -286.8330 
  47   2.0000     -10.540916      -286.8329 
  48   2.0000      -3.665533       -99.7442 
  49   2.0000      -2.325034       -63.2674 
  50   2.0000      -2.325031       -63.2673 
  51   2.0000      -2.293814       -62.4179 
  52   2.0000      -1.087731       -29.5987 
  53   2.0000      -1.076612       -29.2961 
  54   2.0000      -1.076604       -29.2959 
  55   2.0000      -1.067181       -29.0395 
  56   2.0000      -0.977656       -26.6034 
  57   2.0000      -0.973065       -26.4784 
  58   2.0000      -0.973038       -26.4777 
  59   2.0000      -0.971099       -26.4249 
  60   2.0000      -0.932181       -25.3659 
  61   2.0000      -0.912529       -24.8312 
  62   2.0000      -0.912518       -24.8309 
  63   2.0000      -0.892764       -24.2933 
  64   2.0000      -0.872817       -23.7505 
  65   2.0000      -0.872467       -23.7410 
  66   2.0000      -0.872460       -23.7408 
  67   2.0000      -0.869194       -23.6520 
  68   2.0000      -0.847153       -23.0522 
  69   2.0000      -0.847108       -23.0510 
  70   2.0000      -0.847091       -23.0505 
  71   2.0000      -0.847079       -23.0502 
  72   2.0000      -0.841579       -22.9005 
  73   2.0000      -0.834446       -22.7064 
  74   2.0000      -0.834427       -22.7059 
  75   2.0000      -0.818094       -22.2615 
  76   2.0000      -0.806846       -21.9554 
  77   2.0000      -0.752480       -20.4760 
  78   2.0000      -0.752454       -20.4753 
  79   2.0000      -0.708326       -19.2745 
  80   2.0000      -0.693052       -18.8589 
  81   2.0000      -0.692893       -18.8546 
  82   2.0000      -0.692819       -18.8526 
  83   2.0000      -0.692769       -18.8512 
  84   2.0000      -0.688262       -18.7286 
  85   2.0000      -0.688054       -18.7229 
  86   2.0000      -0.682280       -18.5658 
  87   2.0000      -0.679670       -18.4948 
  88   2.0000      -0.669975       -18.2309 
  89   2.0000      -0.647274       -17.6132 
  90   2.0000      -0.647249       -17.6125 
  91   2.0000      -0.635635       -17.2965 
  92   2.0000      -0.631595       -17.1866 
  93   2.0000      -0.631563       -17.1857 
  94   2.0000      -0.608604       -16.5610 
  95   2.0000      -0.608412       -16.5557 
  96   2.0000      -0.608372       -16.5547 
  97   2.0000      -0.599081       -16.3018 
  98   2.0000      -0.595582       -16.2066 
  99   2.0000      -0.595536       -16.2053 
 100   2.0000      -0.579348       -15.7649 
 101   2.0000      -0.566328       -15.4106 
 102   2.0000      -0.566208       -15.4073 
 103   2.0000      -0.536415       -14.5966 
 104   2.0000      -0.534401       -14.5418 
 105   2.0000      -0.530332       -14.4311 
 106   2.0000      -0.530269       -14.4294 
 107   2.0000      -0.526716       -14.3327 
 108   2.0000      -0.524233       -14.2651 
 109   2.0000      -0.524150       -14.2629 
 110   2.0000      -0.522162       -14.2088 
 111   2.0000      -0.518864       -14.1190 
 112   2.0000      -0.504175       -13.7193 
 113   2.0000      -0.499605       -13.5949 
 114   2.0000      -0.499594       -13.5947 
 115   2.0000      -0.494690       -13.4612 
 116   2.0000      -0.493254       -13.4221 
 117   2.0000      -0.490973       -13.3601 
 118   2.0000      -0.490941       -13.3592 
 119   2.0000      -0.489627       -13.3234 
 120   2.0000      -0.489031       -13.3072 
 121   2.0000      -0.489028       -13.3071 
 122   2.0000      -0.488979       -13.3058 
 123   2.0000      -0.482763       -13.1367 
 124   2.0000      -0.479854       -13.0575 
 125   2.0000      -0.474757       -12.9188 
 126   2.0000      -0.470152       -12.7935 
 127   2.0000      -0.470142       -12.7932 
 128   2.0000      -0.466522       -12.6947 
 129   2.0000      -0.465917       -12.6783 
 130   2.0000      -0.452922       -12.3246 
 131   2.0000      -0.446309       -12.1447 
 132   2.0000      -0.446300       -12.1445 
 133   2.0000      -0.443277       -12.0622 
 134   2.0000      -0.434471       -11.8226 
 135   2.0000      -0.434445       -11.8218 
 136   2.0000      -0.426663       -11.6101 
 137   2.0000      -0.420743       -11.4490 
 138   2.0000      -0.412251       -11.2179 
 139   2.0000      -0.411357       -11.1936 
 140   2.0000      -0.407613       -11.0917 
 141   2.0000      -0.407542       -11.0898 
 142   2.0000      -0.407219       -11.0810 
 143   2.0000      -0.407152       -11.0792 
 144   2.0000      -0.406958       -11.0739 
 145   2.0000      -0.406183       -11.0528 
 146   2.0000      -0.384872       -10.4729 
 147   2.0000      -0.384834       -10.4719 
 148   2.0000      -0.382956       -10.4208 
 149   2.0000      -0.382716       -10.4142 
 150   2.0000      -0.382356       -10.4044 
 151   2.0000      -0.372719       -10.1422 
 152   2.0000      -0.342658        -9.3242 
 153   2.0000      -0.342245        -9.3130 
 154   2.0000      -0.328608        -8.9419 
 155   2.0000      -0.327925        -8.9233 
 156   2.0000      -0.319465        -8.6931 
 157   2.0000      -0.315385        -8.5821 
 158   2.0000      -0.313784        -8.5385 
 159   2.0000      -0.313555        -8.5323 
 160   2.0000      -0.312167        -8.4945 
 161   2.0000      -0.311033        -8.4636 
 162   2.0000      -0.310739        -8.4556 
 163   2.0000      -0.309241        -8.4149 
 164   2.0000      -0.308534        -8.3956 
 165   2.0000      -0.294034        -8.0011 
 166   2.0000      -0.293998        -8.0001 
 167   2.0000      -0.240497        -6.5442 
 168   2.0000      -0.238842        -6.4992 
 169   0.0000      -0.074510        -2.0275 
 170   0.0000      -0.074414        -2.0249 
 171   0.0000      -0.001884        -0.0513 
 172   0.0000       0.009011         0.2452 
 173   0.0000       0.013788         0.3752 
 174   0.0000       0.014667         0.3991 
 175   0.0000       0.015036         0.4092 
 176   0.0000       0.015095         0.4108 
 177   0.0000       0.016008         0.4356 
 178   0.0000       0.016755         0.4559 
 179   0.0000       0.017694         0.4815 
*Only the first 10 virtual orbitals were printed.

                    ********************************
                    * MULLIKEN POPULATION ANALYSIS *
                    ********************************

-----------------------
MULLIKEN ATOMIC CHARGES
-----------------------
   0 N :   -0.444980
   1 H :    0.200104
   2 C :   -0.226272
   3 C :   -0.224368
   4 N :   -0.444934
   5 C :   -0.224974
   6 H :    0.200553
   7 C :    0.224258
   8 N :   -0.444956
   9 C :   -0.225345
  10 C :   -0.055617
  11 C :    0.223277
  12 N :   -0.444919
  13 C :   -0.223749
  14 C :    0.223479
  15 C :    0.224323
  16 C :    0.224277
  17 C :    0.226308
  18 C :   -0.224124
  19 C :   -0.054726
  20 C :   -0.056906
  21 C :   -0.226401
  22 C :    0.224226
  23 C :   -0.224935
  24 C :   -0.052172
  25 C :    0.224243
  26 H :    0.199954
  27 H :    0.200357
  28 H :    0.199838
  29 H :    0.200871
  30 H :    0.200772
  31 H :    0.200053
  32 Pd:    0.715693
  33 C :   -0.147834
  34 C :   -0.144746
  35 C :   -0.164734
  36 C :   -0.149663
  37 C :   -0.164814
  38 C :   -0.145492
  39 H :    0.174773
  40 H :    0.163138
  41 H :    0.163222
  42 H :    0.163317
  43 H :    0.174917
  44 C :   -0.142423
  45 C :   -0.148669
  46 C :   -0.164153
  47 C :   -0.150113
  48 C :   -0.164198
  49 C :   -0.149185
  50 H :    0.175574
  51 H :    0.163245
  52 H :    0.163233
  53 H :    0.163295
  54 H :    0.175573
  55 C :   -0.146670
  56 C :   -0.146126
  57 C :   -0.164783
  58 C :   -0.149573
  59 C :   -0.164787
  60 C :   -0.145636
  61 H :    0.175141
  62 H :    0.163408
  63 H :    0.163224
  64 H :    0.163119
  65 H :    0.174928
  66 C :   -0.138119
  67 C :   -0.153731
  68 C :   -0.163495
  69 C :   -0.150712
  70 C :   -0.163316
  71 C :   -0.152997
  72 H :    0.176442
  73 H :    0.163305
  74 H :    0.163225
  75 H :    0.163284
  76 H :    0.176399
Sum of atomic charges:    0.0000000

--------------------------------
MULLIKEN REDUCED ORBITAL CHARGES
--------------------------------
  0 N s       :     3.683798  s :     3.683798
      pz      :     1.379598  p :     3.690237
      px      :     1.250542
      py      :     1.060097
      dz2     :     0.004872  d :     0.066972
      dxz     :     0.011082
      dyz     :     0.014379
      dx2y2   :     0.018187
      dxy     :     0.018452
      f0      :     0.000773  f :     0.003972
      f+1     :     0.000488
      f-1     :     0.000533
      f+2     :     0.000213
      f-2     :     0.000530
      f+3     :     0.000568
      f-3     :     0.000868

  1 H s       :     0.779232  s :     0.779232
      pz      :     0.003945  p :     0.020665
      px      :     0.008073
      py      :     0.008646

  2 C s       :     3.205437  s :     3.205437
      pz      :     0.984851  p :     2.949214
      px      :     0.978228
      py      :     0.986135
      dz2     :     0.005406  d :     0.064697
      dxz     :     0.009001
      dyz     :     0.019160
      dx2y2   :     0.010892
      dxy     :     0.020239
      f0      :     0.001261  f :     0.006925
      f+1     :     0.000908
      f-1     :     0.000716
      f+2     :     0.000778
      f-2     :     0.000372
      f+3     :     0.001850
      f-3     :     0.001039

  3 C s       :     3.202972  s :     3.202972
      pz      :     0.986206  p :     2.949750
      px      :     0.984313
      py      :     0.979231
      dz2     :     0.005009  d :     0.064720
      dxz     :     0.019745
      dyz     :     0.008891
      dx2y2   :     0.010793
      dxy     :     0.020282
      f0      :     0.001301  f :     0.006925
      f+1     :     0.000652
      f-1     :     0.000902
      f+2     :     0.000816
      f-2     :     0.000372
      f+3     :     0.001022
      f-3     :     0.001861

  4 N s       :     3.683648  s :     3.683648
      pz      :     1.380937  p :     3.690339
      px      :     1.057579
      py      :     1.251824
      dz2     :     0.004772  d :     0.066975
      dxz     :     0.014641
      dyz     :     0.010941
      dx2y2   :     0.018149
      dxy     :     0.018473
      f0      :     0.000778  f :     0.003972
      f+1     :     0.000521
      f-1     :     0.000496
      f+2     :     0.000209
      f-2     :     0.000526
      f+3     :     0.000874
      f-3     :     0.000569

  5 C s       :     3.203483  s :     3.203483
      pz      :     0.986215  p :     2.949833
      px      :     1.017926
      py      :     0.945692
      dz2     :     0.005130  d :     0.064731
      dxz     :     0.017681
      dyz     :     0.010817
      dx2y2   :     0.013771
      dxy     :     0.017332
      f0      :     0.001288  f :     0.006927
      f+1     :     0.000712
      f-1     :     0.000867
      f+2     :     0.001051
      f-2     :     0.000122
      f+3     :     0.001035
      f-3     :     0.001853

  6 H s       :     0.778775  s :     0.778775
      pz      :     0.004007  p :     0.020672
      px      :     0.006252
      py      :     0.010413

  7 C s       :     3.141614  s :     3.141614
      pz      :     0.933523  p :     2.497360
      px      :     0.802605
      py      :     0.761232
      dz2     :     0.003154  d :     0.123438
      dxz     :     0.029025
      dyz     :     0.036077
      dx2y2   :     0.025290
      dxy     :     0.029892
      f0      :     0.002062  f :     0.013329
      f+1     :     0.001064
      f-1     :     0.001325
      f+2     :     0.000590
      f-2     :     0.002063
      f+3     :     0.002970
      f-3     :     0.003255

  8 N s       :     3.683716  s :     3.683716
      pz      :     1.381266  p :     3.690292
      px      :     1.057532
      py      :     1.251495
      dz2     :     0.004783  d :     0.066976
      dxz     :     0.014651
      dyz     :     0.010938
      dx2y2   :     0.018145
      dxy     :     0.018460
      f0      :     0.000776  f :     0.003972
      f+1     :     0.000522
      f-1     :     0.000497
      f+2     :     0.000211
      f-2     :     0.000526
      f+3     :     0.000873
      f-3     :     0.000568

  9 C s       :     3.203345  s :     3.203345
      pz      :     0.985646  p :     2.950400
      px      :     1.018771
      py      :     0.945983
      dz2     :     0.005187  d :     0.064674
      dxz     :     0.017657
      dyz     :     0.010740
      dx2y2   :     0.013749
      dxy     :     0.017341
      f0      :     0.001284  f :     0.006926
      f+1     :     0.000708
      f-1     :     0.000870
      f+2     :     0.001053
      f-2     :     0.000129
      f+3     :     0.001031
      f-3     :     0.001851

 10 C s       :     3.327313  s :     3.327313
      pz      :     0.960270  p :     2.629251
      px      :     0.823389
      py      :     0.845592
      dz2     :     0.003929  d :     0.090668
      dxz     :     0.020080
      dyz     :     0.022146
      dx2y2   :     0.021304
      dxy     :     0.023210
      f0      :     0.001407  f :     0.008386
      f+1     :     0.000933
      f-1     :     0.000947
      f+2     :     0.000687
      f-2     :     0.000826
      f+3     :     0.002060
      f-3     :     0.001526

 11 C s       :     3.144541  s :     3.144541
      pz      :     0.940880  p :     2.495316
      px      :     0.816105
      py      :     0.738331
      dz2     :     0.003227  d :     0.123533
      dxz     :     0.027556
      dyz     :     0.037367
      dx2y2   :     0.021863
      dxy     :     0.033519
[...]
  0-1A  ->  1-1A    2.557093   20624.4   484.9   0.009439080   0.00133   0.01120   0.03451  -0.00372
  0-1A  ->  2-1A    2.557467   20627.4   484.8   0.009142697   0.00129  -0.03434   0.01045  -0.00077
  0-1A  ->  3-1A    3.381922   27277.0   366.6   0.000000064   0.00000   0.00001  -0.00000   0.00011
  0-1A  ->  4-1A    3.521817   28405.4   352.0   0.000021473   0.00000  -0.00184  -0.00087   0.00011
  0-1A  ->  5-1A    3.522640   28412.0   352.0   0.000019712   0.00000  -0.00089   0.00174  -0.00017
  0-1A  ->  6-1A    3.583770   28905.1   346.0   0.293472230   0.05798  -0.15243  -0.18527   0.02037
  0-1A  ->  7-1A    3.585580   28919.7   345.8   0.289032782   0.05713   0.18498  -0.15077   0.01344
  0-1A  ->  8-1A    3.743299   30191.7   331.2   0.000000038   0.00000   0.00002   0.00004   0.00008
  0-1A  ->  9-1A    3.788692   30557.9   327.2   0.000000465   0.00000  -0.00014   0.00011  -0.00026
  0-1A  -> 10-1A    3.848430   31039.7   322.2   0.000000122   0.00000   0.00015   0.00006  -0.00000
  0-1A  -> 11-1A    4.080768   32913.6   303.8   0.000003384   0.00000   0.00008   0.00004   0.00087
  0-1A  -> 12-1A    4.167421   33612.5   297.5   0.000217815   0.00005   0.00423   0.00564  -0.00062
  0-1A  -> 13-1A    4.293506   34629.5   288.8   0.000000027   0.00000  -0.00002  -0.00008   0.00002
  0-1A  -> 14-1A    4.474256   36087.3   277.1   0.000024279   0.00001   0.00198  -0.00143   0.00012
  0-1A  -> 15-1A    4.516797   36430.4   274.5   0.024647304   0.00614  -0.06254   0.04706  -0.00342
  0-1A  -> 16-1A    4.518106   36441.0   274.4   0.025326087   0.00631  -0.04818  -0.06277   0.00682
  0-1A  -> 17-1A    4.560019   36779.0   271.9   0.000018978   0.00000   0.00184  -0.00117   0.00006
  0-1A  -> 18-1A    4.560503   36782.9   271.9   0.000022629   0.00001  -0.00132  -0.00198   0.00021
  0-1A  -> 19-1A    4.741657   38244.0   261.5   0.000351124   0.00009  -0.00611  -0.00733   0.00083
  0-1A  -> 20-1A    4.753707   38341.2   260.8   0.000740328   0.00019   0.01054  -0.00909   0.00055
  0-1A  -> 21-1A    4.766602   38445.2   260.1   0.000887709   0.00023   0.00942   0.01195  -0.00131
  0-1A  -> 22-1A    4.786641   38606.9   259.0   0.001905508   0.00050   0.01488   0.01668  -0.00179
  0-1A  -> 23-1A    4.849728   39115.7   255.7   0.000001776   0.00000   0.00005  -0.00013  -0.00068
  0-1A  -> 24-1A    4.872636   39300.5   254.4   0.000007430   0.00000   0.00101   0.00099  -0.00001
  0-1A  -> 25-1A    4.973227   40111.8   249.3   0.000018901   0.00001  -0.00108   0.00129  -0.00154
  0-1A  -> 26-1A    5.029032   40561.9   246.5   0.000290902   0.00008   0.00277  -0.00252  -0.00816
  0-1A  -> 27-1A    5.036646   40623.3   246.2   0.000204848   0.00006   0.00672  -0.00179  -0.00292
  0-1A  -> 28-1A    5.039511   40646.4   246.0   0.012379477   0.00344   0.03809   0.04434  -0.00471
  0-1A  -> 29-1A    5.041185   40659.9   245.9   0.025701141   0.00714  -0.06640   0.05198  -0.00554
  0-1A  -> 30-1A    5.044050   40683.0   245.8   0.013613491   0.00379   0.03603   0.04960  -0.00517

------------------------------------------------------------------------------------------
                     CD SPECTRUM VIA TRANSITION ELECTRIC DIPOLE MOMENTS    
------------------------------------------------------------------------------------------
     Transition      Energy     Energy  Wavelength    R        MX        MY        MZ   
                      (eV)      (cm-1)    (nm)   (1e40*cgs)   (au)      (au)      (au)  
------------------------------------------------------------------------------------------
  0-1A  ->  1-1A    2.557093   20624.4   484.9    0.03497  -0.00165  -0.00016   0.00008
  0-1A  ->  2-1A    2.557467   20627.4   484.8   -0.16210  -0.00160   0.00198  -0.00052
  0-1A  ->  3-1A    3.381922   27277.0   366.6    0.00047  -0.00053   0.00056  -0.00430
  0-1A  ->  4-1A    3.521817   28405.4   352.0    6.88764  -0.11587  -0.36094   0.03066
  0-1A  ->  5-1A    3.522640   28412.0   352.0   -6.84575   0.36181  -0.11461   0.01676
  0-1A  ->  6-1A    3.583770   28905.1   346.0  -29.47174   0.00785   0.00829  -0.00075
  0-1A  ->  7-1A    3.585580   28919.7   345.8   22.59101   0.00644  -0.00583   0.00244
  0-1A  ->  8-1A    3.743299   30191.7   331.2   -0.00768   0.02363   0.01900   0.31999
  0-1A  ->  9-1A    3.788692   30557.9   327.2   -0.29036   0.02252   0.12324   1.35049
  0-1A  -> 10-1A    3.848430   31039.7   322.2    0.00519   0.00376   0.00649  -0.00079
  0-1A  -> 11-1A    4.080768   32913.6   303.8    0.00205   0.00067   0.00058   0.00340
  0-1A  -> 12-1A    4.167421   33612.5   297.5   -0.00172  -0.00000   0.00000   0.00041
  0-1A  -> 13-1A    4.293506   34629.5   288.8    0.00249   0.00194   0.00214   0.00326
  0-1A  -> 14-1A    4.474256   36087.3   277.1   -0.00187  -0.00020  -0.00037  -0.00478
  0-1A  -> 15-1A    4.516797   36430.4   274.5    1.03633  -0.00138   0.00166  -0.00054
  0-1A  -> 16-1A    4.518106   36441.0   274.4   -0.46481   0.00093   0.00043  -0.00049
  0-1A  -> 17-1A    4.560019   36779.0   271.9    0.70977   0.03821  -0.04070   0.00295
  0-1A  -> 18-1A    4.560503   36782.9   271.9   -0.78508   0.04110   0.03802  -0.00456
  0-1A  -> 19-1A    4.741657   38244.0   261.5   -1.14851   0.03095   0.03649  -0.00441
  0-1A  -> 20-1A    4.753707   38341.2   260.8    1.29314   0.03709  -0.02980   0.01423
  0-1A  -> 21-1A    4.766602   38445.2   260.1    0.04819   0.00204   0.00099   0.00029
  0-1A  -> 22-1A    4.786641   38606.9   259.0    0.04086   0.00048   0.00102   0.00038
  0-1A  -> 23-1A    4.849728   39115.7   255.7    0.00159  -0.00824   0.00634  -0.00145
  0-1A  -> 24-1A    4.872636   39300.5   254.4   -0.01684  -0.00279  -0.00313   0.00118
  0-1A  -> 25-1A    4.973227   40111.8   249.3   -7.08435   0.04332   0.00239   0.38039
  0-1A  -> 26-1A    5.029032   40561.9   246.5    1.19560  -0.02314   0.01669  -0.02413
  0-1A  -> 27-1A    5.036646   40623.3   246.2    3.52818   0.02858  -0.01917   0.00575
  0-1A  -> 28-1A    5.039511   40646.4   246.0   31.84939   0.04963   0.05891  -0.00614
  0-1A  -> 29-1A    5.041185   40659.9   245.9   -7.43072   0.01291  -0.00928  -0.03940
  0-1A  -> 30-1A    5.044050   40683.0   245.8  -29.59006  -0.05041  -0.05546   0.00680

------------------------------------------------------------------------------------------
                     CD SPECTRUM VIA TRANSITION VELOCITY DIPOLE MOMENTS    
------------------------------------------------------------------------------------------
     Transition      Energy     Energy  Wavelength    R        MX        MY        MZ   
                      (eV)      (cm-1)    (nm)   (1e40*cgs)   (au)      (au)      (au)  
------------------------------------------------------------------------------------------
  0-1A  ->  1-1A    2.557093   20624.4   484.9   -0.12114  -0.00165  -0.00016   0.00008
  0-1A  ->  2-1A    2.557467   20627.4   484.8    0.38216  -0.00160   0.00198  -0.00052
  0-1A  ->  3-1A    3.381922   27277.0   366.6   -0.00180  -0.00053   0.00056  -0.00430
  0-1A  ->  4-1A    3.521817   28405.4   352.0    1.93892  -0.11587  -0.36094   0.03066
  0-1A  ->  5-1A    3.522640   28412.0   352.0   -1.90262   0.36181  -0.11461   0.01676
  0-1A  ->  6-1A    3.583770   28905.1   346.0   -9.83295   0.00785   0.00829  -0.00075
  0-1A  ->  7-1A    3.585580   28919.7   345.8    7.52544   0.00644  -0.00583   0.00244
  0-1A  ->  8-1A    3.743299   30191.7   331.2    0.08939   0.02363   0.01900   0.31999
  0-1A  ->  9-1A    3.788692   30557.9   327.2   -1.13707   0.02252   0.12324   1.35049
  0-1A  -> 10-1A    3.848430   31039.7   322.2    0.00315   0.00376   0.00649  -0.00079
  0-1A  -> 11-1A    4.080768   32913.6   303.8    0.00953   0.00067   0.00058   0.00340
  0-1A  -> 12-1A    4.167421   33612.5   297.5   -0.00083  -0.00000   0.00000   0.00041
  0-1A  -> 13-1A    4.293506   34629.5   288.8   -0.00038   0.00194   0.00214   0.00326
  0-1A  -> 14-1A    4.474256   36087.3   277.1   -0.00136  -0.00020  -0.00037  -0.00478
  0-1A  -> 15-1A    4.516797   36430.4   274.5    0.47233  -0.00138   0.00166  -0.00054
  0-1A  -> 16-1A    4.518106   36441.0   274.4   -0.21365   0.00093   0.00043  -0.00049
  0-1A  -> 17-1A    4.560019   36779.0   271.9    0.33268   0.03821  -0.04070   0.00295
  0-1A  -> 18-1A    4.560503   36782.9   271.9   -0.36637   0.04110   0.03802  -0.00456
  0-1A  -> 19-1A    4.741657   38244.0   261.5   -1.24529   0.03095   0.03649  -0.00441
  0-1A  -> 20-1A    4.753707   38341.2   260.8    1.80702   0.03709  -0.02980   0.01423
  0-1A  -> 21-1A    4.766602   38445.2   260.1    0.08252   0.00204   0.00099   0.00029
  0-1A  -> 22-1A    4.786641   38606.9   259.0    0.06273   0.00048   0.00102   0.00038
  0-1A  -> 23-1A    4.849728   39115.7   255.7   -0.00063  -0.00824   0.00634  -0.00145
  0-1A  -> 24-1A    4.872636   39300.5   254.4   -0.01560  -0.00279  -0.00313   0.00118
  0-1A  -> 25-1A    4.973227   40111.8   249.3   -1.61914   0.04332   0.00239   0.38039
  0-1A  -> 26-1A    5.029032   40561.9   246.5    0.23196  -0.02314   0.01669  -0.02413
  0-1A  -> 27-1A    5.036646   40623.3   246.2    0.53366   0.02858  -0.01917   0.00575
  0-1A  -> 28-1A    5.039511   40646.4   246.0   11.53513   0.04963   0.05891  -0.00614
  0-1A  -> 29-1A    5.041185   40659.9   245.9   -2.85296   0.01291  -0.00928  -0.03940
  0-1A  -> 30-1A    5.044050   40683.0   245.8  -11.70548  -0.05041  -0.05546   0.00680

Total run time:    26979.443 sec

           *** ORCA-CIS/TD-DFT FINISHED WITHOUT ERROR ***
-----------------------
CIS/TD-DFT TOTAL ENERGY
-----------------------

    E(SCF)  =  -2040.384274353 Eh
    DE(CIS) =      0.093971457 Eh (Root  1)
    ----------------------------- ---------
    E(tot)  =  -2040.290302896 Eh


Maximum memory used throughout the entire CIS-calculation: 2439.5 MB
=> NOW LEAVING ORCA_CIS

-------------------------   --------------------
FINAL SINGLE POINT ENERGY     -2040.290302895798
-------------------------   --------------------



           ************************************************************
           *        Program running with 8 parallel MPI-processes     *
           *              working on a common directory               *
           ************************************************************

------------------------------------------------------------------------------
                              ORCA PROPERTY CALCULATIONS
------------------------------------------------------------------------------

GBWName                                 ... tddft.gbw
Number of atoms                         ...     77
Number of basis functions               ...   1696
Max core memory                         ...   3000 MB

Electric properties:
Dipole moment                           ... YES
Quadrupole moment                       ...  NO
Static polarizability (Dipole/Dipole)   ...  NO
Static polarizability (Dipole/Quad.)    ...  NO
Static polarizability (Quad./Quad.)     ...  NO
Static polarizability (Velocity)        ...  NO
Static hyperpolarizability              ...  NO

Atomic electric properties:
Dipole moment                           ...  NO
Quadrupole moment                       ...  NO
Static polarizability                   ...  NO

Choice of electric origin               ... Center of mass
Position of electric origin             ...    -0.159753     5.088910     6.548211

General magnetic properties:
Magnetizability                         ...  NO

EPR properties:
g-Tensor (aka g-matrix)                 ...  NO
Zero-Field splitting spin-orbit         ...  NO
Zero-field splitting spin-spin          ...  NO
Hyperfine couplings                     ...  NO (   0 nuclei)
Quadrupole couplings                    ...  NO (   0 nuclei)
Contact density                         ...  NO (   0 nuclei)

NMR properties:
Chemical shifts                         ...  NO (   0 nuclei)
Spin-rotation constants                 ...  NO (   0 nuclei)
Spin-spin couplings                     ...  NO (   0 nuclei,    0 pairs)

Choice of magnetic origin               ... GIAO
Position of magnetic origin             ...     0.000000     0.000000     0.000000

Properties with geometric perturbations:
SCF Hessian                             ...  NO
IR spectrum                             ...  NO
VCD spectrum                            ...  NO
X-ray spectroscopy properties:
SCF XES/XAS/RIXS spectra                ...  NO

SCF SOC stabilization energy            ...  NO
Diagonal Born-Oppenheimer correction    ...  NO

-------------
DIPOLE MOMENT
-------------

Method             : SCF
Type of density    : Electron Density
Multiplicity       :   1
Irrep              :   0
Energy             : -2040.3842743527991388 Eh
Basis              : AO
                                X                 Y                 Z
Electronic contribution:     -0.004856741      -0.000869895       0.039627452
Nuclear contribution   :      0.005433271       0.002089139      -0.040561520
                        -----------------------------------------
Total Dipole Moment    :      0.000576529       0.001219245      -0.000934068
                        -----------------------------------------
Magnitude (a.u.)       :      0.001640557
Magnitude (Debye)      :      0.004169964



--------------------
Rotational spectrum 
--------------------
 
Rotational constants in cm-1:             0.001953             0.001952             0.001017 
Rotational constants in MHz :            58.536381            58.523332            30.495208 

Dipole components along the rotational axes: 
x,y,z [a.u.] :     0.000709     0.001240    -0.000807 
x,y,z [Debye]:     0.001801     0.003152    -0.002052 

 

Dipole moment calculation done in   0.2 sec 

Maximum memory used throughout the entire PROP-calculation: 233.3 MB

--------------------------------
SUGGESTED CITATIONS FOR THIS RUN
--------------------------------

Below you find a list of papers that are relevant to this ORCA run
We neither can nor want to force you to cite these papers, but we appreciate if you do
You receive ORCA, which is the product of decades of hard work by many enthusiastic individuals, for free
The only thing we kindly ask in return is that you cite our papers,
We deeply appreciate it, if you show your appreciation for ORCA by not just citing the generic ORCA reference.

Please note that relegating all ORCA citations to the supporting information does *not* help us.
SI sections are not indexed - citations you put there will not count into any citation statistics
But we need these citations in order to attract the funding resources that allow us to do what we are doing

Therefore, if you are a happy ORCA user, please consider citing a few of the papers listed below in the main body of your paper

In addition to the list printed below, the program has created the file tddft.bibtex that contains the list in bibtex format
You can import this file easily into all common literature databanks and citation aid programs

It goes without saying that in many instances, there are alternative algorithms to achieve similar
results as the ones you have gotten from ORCA. It is, of course, also the case that in some instances
ORCA just re-implements algorithms worked out by others. We are fully aware of that and we are also
fully appreciative of our colleagues work. Hence this citation list should not be read as indicating
that the listed papers, which are focused on our own work, are the only ones worth citing. It simply
meant to make it easier for users to cite ORCA specific papers. It is not a substitute for doing your
own literature research and citing the relevant literature in a scientifically appropriate manner.

List of essential papers. We consider these as the minimum necessary citations

  1. Neese, F.
     Software update: the ORCA program system, version 6.0
     WIRES Comput. Molec. Sci. 2025 15(1), e70019
     doi.org/10.1002/wcms.70019

List of papers to cite with high priority. The work reported in these papers was absolutely
necessary for this run to complete.
Our perspective: the developers of density functionals and basis sets usually get cited in chemistry papers
Good! But without the algorithms to do something with them, the functionals or basis sets would not do anything.
Hence, in our opinion, the algorithm design and method developments papers are equally worthy of getting cited

  1. Neese, F.; Olbrich, G.
     Efficient use of the resolution of the identity approximation in time-dependent density functional calculations with hybrid density functionals
     Chem. Phys. Lett. 2002 362 , 170-178
     doi.org/10.1016/s0009-2614(02)01053-9
  2. Neese, F.
     An improvement of the resolution of the identity approximation for the formation of the Coulomb matrix
     J. Comp. Chem. 2003 24(14), 1740-1747
     doi.org/10.1002/jcc.10318
  3. Neese, F.; Wennmohs, F.; Hansen, A.; Becker, U.
     Efficient, approximate and parallel Hartree-Fock and hybrid DFT calculations. A 'chain-of-spheres' algorithm for the Hartree-Fock exchange
     Chem. Phys. 2009 356(1-3), 98-109
     doi.org/10.1016/j.chemphys.2008.10.036
  4. Garcia-Rates, M.; Neese, F.
     Effect of the Solute Cavity on the Solvation Energy and its Derivatives within the Framework of the Gaussian Charge Scheme
     J. Comput. Chem. 2020 41 , 922-939
     doi.org/10.1002/jcc.26139
  5. Helmich-Paris, B.; de Souza, B.; Neese, F.; Izsák, R.
     An improved chain of spheres for exchange algorithm
     J. Chem. Phys. 2021 155(10), 104109
     doi.org/10.1063/5.0058766
  6. Neese, F.
     The SHARK Integral Generation and Digestion System
     J. Comp. Chem. 2022 44(3), 381
     doi.org/10.1002/jcc.26942

List of suggested additional citations. These are papers that are important in the 'surrounding' of 
of this run, or papers that preceded the highly important papers. If you like your results we are grateful for a citation.

  1. Izsak, R.; Neese, F.
     An overlap fitted chain of spheres exchange method
     J. Chem. Phys. 2011 135 , 144105
     doi.org/10.1063/1.3646921
  2. Izsak, R.; Hansen, A.; Neese, F.
     The resolution of identity and chain of spheres approximations for the LPNO-CCSD singles Fock term
     Molec. Phys. 2012 110 , 2413-2417
     doi.org/10.1080/00268976.2012.687466
  3. Neese, F.
     The ORCA program system
     WIRES Comput. Molec. Sci. 2012 2(1), 73-78
     doi.org/10.1002/wcms.81
  4. Izsak, R.; Neese, F.; Klopper, W.
     Robust fitting techniques in the chain of spheres approximation to the Fock exchange: The role of the complementary space
     J. Chem. Phys. 2013 139 , 
     doi.org/10.1063/1.4819264
  5. Neese, F.
     Software update: the ORCA program system, version 4.0
     WIRES Comput. Molec. Sci. 2018 8(1), 1-6
     doi.org/10.1002/wcms.1327
  6. Neese, F.; Wennmohs, F.; Becker, U.; Riplinger, C.
     The ORCA quantum chemistry program package
     J. Chem. Phys. 2020 152(22), 224108
     doi.org/10.1063/5.0004608
  7. Neese, F.
     Software update: The ORCA program system—Version 5.0
     WIRES Comput. Molec. Sci. 2022 12(1), e1606
     doi.org/10.1002/wcms.1606

List of optional additional citations

  1. Neese, F.
     Approximate second-order SCF convergence for spin unrestricted wavefunctions
     Chem. Phys. Lett. 2000 325(1-3), 93-98
     doi.org/10.1016/s0009-2614(00)00662-x

Timings for individual modules:

Sum of individual times          ...    31282.300 sec (= 521.372 min)
Startup calculation              ...       54.965 sec (=   0.916 min)   0.2 %
SCF iterations                   ...     4230.296 sec (=  70.505 min)  13.5 %
Property integrals               ...        8.450 sec (=   0.141 min)   0.0 %
Property calculations            ...        4.679 sec (=   0.078 min)   0.0 %
CIS module                       ...    26983.910 sec (= 449.732 min)  86.3 %
                             ****ORCA TERMINATED NORMALLY****
TOTAL RUN TIME: 0 days 8 hours 41 minutes 22 seconds 973 msec
