
                                 *****************
                                 * O   R   C   A *
                                 *****************

                                            #,                                       
                                            ###                                      
                                            ####                                     
                                            #####                                    
                                            ######                                   
                                           ########,                                 
                                     ,,################,,,,,                         
                               ,,#################################,,                 
                          ,,##########################################,,             
                       ,#########################################, ''#####,          
                    ,#############################################,,   '####,        
                  ,##################################################,,,,####,       
                ,###########''''           ''''###############################       
              ,#####''   ,,,,##########,,,,          '''####'''          '####       
            ,##' ,,,,###########################,,,                        '##       
           ' ,,###''''                  '''############,,,                           
         ,,##''                                '''############,,,,        ,,,,,,###''
      ,#''                                            '''#######################'''  
     '                                                          ''''####''''         
             ,#######,   #######,   ,#######,      ##                                
            ,#'     '#,  ##    ##  ,#'     '#,    #''#        ,####,    ,#,          
            ##       ##  ##   ,#'  ##            #'  '#       #'       ,# #          
            ##       ##  #######   ##           ,######,      #####,      #          
            '#,     ,#'  ##    ##  '#,     ,#' ,#      #,     #,   #      #          
             '#######'   ##     ##  '#######'  #'      '#     '####' #    #          



                #########################################################
                #                        -***-                          #
                #          Department of theory and spectroscopy        #
                #                                                       #
                #                      Frank Neese                      #
                #                                                       #
                #     Directorship, Architecture, Infrastructure        #
                #                    SHARK, DRIVERS                     #
                #        Core code/Algorithms in most modules           #
                #                                                       #
                #        Max Planck Institute fuer Kohlenforschung      #
                #                Kaiser Wilhelm Platz 1                 #
                #                 D-45470 Muelheim/Ruhr                 #
                #                      Germany                          #
                #                                                       #
                #                  All rights reserved                  #
                #                        -***-                          #
                #########################################################


                         Program Version 6.1.1  -  RELEASE   -
                                (GIT: $487d211c$)
                          ($2025-11-21 10:33:24 +0100$)


 With contributions from (in alphabetic order):
[Max-Planck-Institut fuer Kohlenforschung]                               
  Daniel Aravena         : Magnetic Suceptibility                        
  Michael Atanasov       : Ab Initio Ligand Field Theory (pilot matlab implementation)
  Alexander A. Auer      : GIAO ZORA, VPT2 properties, NMR spectrum      
  Ute Becker             : All parallelization in ORCA, NUMFREQ, NUMCALC 
  Giovanni Bistoni       : ED, misc. LED, open-shell LED, HFLD           
  Dmytro Bykov           : pre 5.0 version of the SCF Hessian            
  Marcos Casanova-Páez   : Triplet and SCS-CIS(D). UHF-(DLPNO)-IP/EA/STEOM-CCSD. UHF-CVS-IP/STEOM-CCSD   
  Vijay G. Chilkuri      : MRCI spin determinant printing, contributions to CSF-ICE 
  Pauline Colinet        : FMM embedding                                 
  Dipayan Datta          : RHF DLPNO-CCSD density                        
  Achintya Kumar Dutta   : EOM-CC, STEOM-CC                              
  Nicolas Foglia         : Exact transition moments, OPA infrastructure, MCD improvements    
  Dmitry Ganyushin       : Spin-Orbit,Spin-Spin,Magnetic field MRCI      
  Miquel Garcia-Rates    : C-PCM and meta-GGA Hessian, CCSD/C-PCM, Gaussian charge scheme 
  Tiago L. C. Gouveia    : GS-ROHF, GS-ROCIS                             
  Yang Guo               : DLPNO-NEVPT2, F12-NEVPT2, CIM, IAO-localization        
  Andreas Hansen         : Spin unrestricted coupled pair/coupled cluster methods 
  Ingolf Harden          : AUTO-CI MPn and infrastructure                
  Benjamin Helmich-Paris : MC-RPA, TRAH-(SCF,CASSCF), AVAS, COSX integrals, SCF dyn. polar., MC-PDFT, srDFT 
  Lee Huntington         : MR-EOM, pCC                                   
  Robert Izsak           : Overlap fitted RIJCOSX, COSX-SCS-MP3, EOM     
  Riya Kayal             : Wick's Theorem for AUTO-CI, AUTO-CI UHF-CCSDT 
  Emily Kempfer          : AUTO-CI RHF CISDT and CCSDT, approximate NEVPT4
  Christian Kollmar      : KDIIS, OOCD, Brueckner-CCSD(T), CCSD density, CASPT2, CASPT2-K, improved NEVPT2 
  Axel Koslowski         : Symmetry handling                             
  Simone Kossmann        : meta-GGA functionals, TD-DFT gradient, OOMP2, (MP2 Hessian; deprecated post 5.0) 
  Lucas Lang             : DCDCAS, Hyperfine gauge corrections, ICE-SOC+SSC
  Marvin Lechner         : AUTO-CI (C++ implementation), FIC-MRCC        
  Spencer Leger          : CASSCF response                               
  Dagmar Lenk            : GEPOL surface, SMD, ORCA-2-JSON               
  Dimitrios Liakos       : Extrapolation schemes; Compound Job, Property file
  Dimitrios Manganas     : Further ROCIS development; embedding schemes. LFT, Crystal Embedding 
  Dimitrios Pantazis     : SARC Basis sets                               
  Anastasios Papadopoulos: AUTO-CI, single reference methods and gradients 
  Taras Petrenko         : pre 6.0 DFT Hessian and TD-DFT gradient,  ECA, NRVS 
  Petra Pikulova         : Analytic Raman intensities                    
  Peter Pinski           : DLPNO-MP2, DLPNO-MP2 Gradient                 
  Shashank Vittal Rao    : ES-AILFT, MagRelax                            
  Christoph Reimann      : Effective Core Potentials                     
  Marius Retegan         : Local ZFS, SOC                                
  Christoph Riplinger    : Optimizer, TS searches, QM/MM, DLPNO-CCSD(T), (RO)-DLPNO pert. Triples 
  Michael Roemelt        : Original ROCIS implementation, recursive CI coupling coefficients
  Masaaki Saitow         : Open-shell DLPNO-CCSD energy and density      
  Barbara Sandhoefer     : DKH picture change effects                    
  Yorick L. A. Schmerwitz: GMF and freeze-and-release deltaSCF, NEB S-IDPP initial path                    
  Kantharuban Sivalingam : CASSCF convergence/infrastructure, NEVPT2, NEVPT3, NEVPT4(SD), FIC-MRCI and CEPA variants
  Bernardo de Souza      : ESD, SOC TD-DFT                               
  Georgi L. Stoychev     : AutoAux, RI-MP2 NMR, DLPNO-MP2 response, X2C  
  Van Anh Tran           : RI-MP2 g-tensors                              
  Willem Van den Heuvel  : Paramagnetic NMR                              
  Zikuan Wang            : NOTCH, Electric field optimization            
  Frank Wennmohs         : Technical directorship and infrastructure     
  Hang Xu                : AUTO-CI-Response properties                   
                                                                         
[FACCTs GmbH]                                                            
  Markus Bursch, Nicolas Foglia, Miquel Garcia-Rates, Ingolf Harden, Hagen Neugebauer, Anastasios Papadopoulos, 
  Christoph Riplinger, Bernardo de Souza, Georgi L. Stoychev                                                    
                                                                 
  APM, various basis sets, CI-OPT, improved COSX, DLPNO-Multilevel,           
  DOCKER, DRACO, updates on ESD, Fragmentator, GOAT, IRC, LR-CPCM, L-BFGS, MBIS, meta-GGA TD-DFT gradient, ML-optimized integration grids, 
  MM, NACMEs, nearIR, NEB, NEB-TS, NL-DFT gradient (VV10), 2- and 3-layer-ONIOM, interface openCOSMO-RS, QMMM,   
  Crystal-QMMM, RESP, rigid body optimization, SF, symmetry and pop. for TD-DFT, various functionals, SOLVATOR                                   
                                                                         
[Other institutions]                                                     
  V. Asgeirsson          : NEB                                           
  Christoph Bannwarth    : sTDA-DFT, sTD-DFT, PBEh-3c, B97-3c, D3        
  Giovanni Bistoni       : ETS/NOCV, ADLD/ADEX, COVALED                  
  Martin Brehm           : Molecular dynamics                            
  Ronald Cardenas        : ETS/NOCV                                      
  Martina Colucci        : COVALED                                       
  Sebastian Ehlert       : rSCAN, r2SCAN, r2SCAN-3c, D4, dhf basis sets  
  Marvin Friede          : D4 for Fr, Ra, Ac-Lr                          
  Lars Goerigk           : TD-DFT with DH, B97 family of functionals     
  Stefan Grimme          : VdW corrections, initial TS optimization, DFT functionals, gCP, sTDA/sTD-DF 
  Waldemar Hujo          : DFT-NL                                        
  H. Jonsson             : NEB                                           
  Holger Kruse           : gCP                                           
  Marcel Mueller         : wB97X-3c, vDZP basis set                      
  Hagen Neugebauer       : wr2SCAN, Native XTB                           
  Gianluca Regni         : ADLD/ADEX                                     
  Tobias Risthaus        : pre 6.0 range-separated hybrid DFT and stability analysis
  Lukas Wittmann         : regularized MP2, r2SCAN double-hybrids, wr2SCAN        
                                                                         
We gratefully acknowledge several colleagues who have allowed us to      
interface, adapt or use parts of their codes:                            
  Ed Valeev, F. Pavosevic, A. Kumar             : LibInt (2-el integral package), F12 methods 
  Garnet Chan, S. Sharma, J. Yang, R. Olivares  : DMRG                   
  Ulf Ekstrom                                   : XCFun DFT Library      
  Mihaly Kallay                                 : mrcc  (arbitrary order and MRCC methods)
  Frank Weinhold                                : gennbo (NPA and NBO analysis)           
  Simon Mueller                                 : openCOSMO-RS                            
  Christopher J. Cramer and Donald G. Truhlar   : smd solvation model                     
  S Lehtola, MJT Oliveira, MAL Marques          : LibXC Library                           
  Liviu Ungur et al                             : ANISO software                          


 Your calculation uses the libint2 library for the computation of 2-el integrals
 For citations please refer to: http://libint.valeyev.net

 Your ORCA version has been built with support for libXC version: 7.0.0
 For citations please refer to: https://libxc.gitlab.io

 This ORCA versions uses:
   CBLAS   interface :  Fast vector & matrix operations
   LAPACKE interface :  Fast linear algebra routines
   SCALAPACK package :  Parallel linear algebra routines
   Shared memory     :  Shared parallel matrices
   BLAS/LAPACK       :  OpenBLAS 0.3.29  USE64BITINT DYNAMIC_ARCH NO_AFFINITY Haswell SINGLE_THREADED
        Core in use  :  Haswell
   Copyright (c) 2011-2014, The OpenBLAS Project


  ***********************************
  * Starting time: Fri Jun 19 06:38:08 2026
  * Host name:     steezy
  * Process ID:    4128586
  * Working dir.:  /home/jannes/metaltpp/pdtpp/02_tddft_tda_comparison/runs/tdaon_wb97xd
  ***********************************

NOTE: MaxCore=3000 MB was set to SCF,MP2,MDCI,CIPSI,MRCI,RASCI and CIS
      => If you want to overwrite this, your respective input block should be placed after the MaxCore statement


***************************************
The coordinates will be read from file: /home/jannes/metaltpp/pdtpp/01_opt/pdtpp_opt_b3lyp_tzvp.xyz
***************************************


Your calculation utilizes the atom-pairwise dispersion correction
with the zero-damping scheme (D30)


XCFun DFT library Copyright 2009-2010 Ulf Ekstrom and contributors.
See http://admol.org/xcfun for more information.
This is free software; see the source code for copying conditions.
There is ABSOLUTELY NO WARRANTY; not even for MERCHANTABILITY or FITNESS FOR A PARTICULAR PURPOSE.
For details see the documentation.
Scientific users of this library should cite U. Ekstrom, L. Visscher, R. Bast, A. J. Thorvaldsen and K. Ruud;
J.Chem.Theor.Comp. 2010, DOI: 10.1021/ct100117s
XCFun Version 0.99 

================================================================================

cite the ECPs for Pd [Def2-ECP] as follows:
Ce-Yb(ecp-28): M. Dolg, H. Stoll, H.Preuss, J. Chem. Phys., 1989, 90, 1730-1734.
Y-Cd(ecp-28), Hf-Hg(ecp-46): D. Andrae,U. Haeussermann, M. Dolg, H. Stoll, H. Preuss, Theor. Chim. Acta, 1990, 77, 123-141.
In-Sb(ecp-28), Tl-Bi(ecp-46): B. Metz, H. Stoll, M. Dolg, J. Chem. Phys., 2000, 113, 2563-2569.
Te-Xe(ecp-28), Po-Rn(ecp-46): K. A. Peterson, D. Figgen, E. Goll, H. Stoll, M. Dolg, J. Chem. Phys., 2003, 119, 11113-11123.
Rb(ecp-28), Cs(ecp-46): T. Leininger, A. Nicklass, W. Kuechle, H. Stoll, M. Dolg, A. Bergner, Chem. Phys. Lett., 1996, 255, 274-280.
Sr(ecp-28), Ba(ecp-46): M. Kaupp, P. V. Schleyer, H. Stoll and H. Preuss, J. Chem. Phys., 1991, 94, 1360-1366.
La(ecp-46): M. Dolg, H. Stoll, A. Savin, H. Preuss, Theor. Chim. Acta, 1989, 75, 173-194.
Lu(ecp-28): X. Cao, M. Dolg, J. Chem. Phys., 2001, 115, 7348-7355.

ECP parameters for Pd [Def2-ECP] have been obtained from:
TURBOMOLE (7.0.2)

----- Orbital basis set information -----
Your calculation utilizes the basis: def2-TZVP
   F. Weigend and R. Ahlrichs, Phys. Chem. Chem. Phys. 7, 3297 (2005).

----- AuxJ basis set information -----
Your calculation utilizes the auxiliary basis: def2/J
   H-Rn: F. Weigend, Phys. Chem. Chem. Phys. 8, 1057 (2006).
   Fr-Lr: K. Eichkorn, F. Weigend, O. Treutler, R. Ahlrichs; Theor. Chem. Acc. 97, 119 (1997).

================================================================================
                                        WARNINGS
                       Please study these warnings very carefully!
================================================================================


WARNING: CIS/ROCIS methods need fully converged wavefunctions
  ===> : Setting SCFConvForced true
         You can overwrite this default with %scf ConvForced false 


================================================================================
                                       INPUT FILE
================================================================================
NAME = tddft.inp
|  1> %pal nprocs 8 end
|  2> %maxcore 3000
|  3> ! wB97X-D3 def2-TZVP def2/J RIJCOSX DefGrid3 TightSCF CPCM(Toluene)
|  4> %tddft
|  5>   nroots 30
|  6>   triplets false
|  7> end
|  8> * xyzfile 0 1 /home/jannes/metaltpp/pdtpp/01_opt/pdtpp_opt_b3lyp_tzvp.xyz
|  9> 
| 10>                          ****END OF INPUT****
================================================================================

                       ****************************
                       * Single Point Calculation *
                       ****************************

---------------------------------
CARTESIAN COORDINATES (ANGSTROEM)
---------------------------------
  N     -2.110111    2.523986    3.526306
  H      1.680708   -2.231879    3.875943
  C     -4.350164    3.014180    3.528684
  C     -0.398700   -1.555848    3.857345
  N      0.088372    0.674508    3.642372
  C      0.949750   -1.443294    3.818760
  H     -0.984444   -2.454130    3.954075
  C      2.846209    1.835215    3.486172
  N     -0.257514    4.711523    3.290563
  C     -1.119661    6.826869    3.090611
  C      2.549230    0.478205    3.615278
  C      2.658674    4.024328    3.288459
  N      1.940905    2.861709    3.403183
  C      4.066237    3.716718    3.304558
  C     -0.940811   -0.225622    3.745087
  C      1.256652   -0.041925    3.685527
  C     -2.827643    1.361920    3.647811
  C     -3.015449    3.550925    3.450264
  C     -4.235016    1.670650    3.647688
  C     -2.303720    0.072859    3.750245
  C     -2.718588    4.907514    3.316718
  C      4.181200    2.373289    3.424687
  C     -1.426068    5.427219    3.241348
  C      0.228751    6.939530    3.051533
  C      2.134675    5.313015    3.179589
  C      0.771452    5.610948    3.179597
  H     -5.253072    3.599850    3.494400
  H     -5.025746    0.944187    3.727651
  H      5.084270    1.788820    3.472387
  H      4.857333    4.443914    3.236243
  H      0.813904    7.836710    2.942245
  H     -1.850874    7.614165    3.020414
  Pd    -0.084580    2.692939    3.465620
  C      3.695443   -0.484867    3.685036
  C      4.258932   -1.006943    2.519126
  C      5.323036   -1.900436    2.583197
  C      5.839686   -2.284575    3.815767
  C      5.286069   -1.770214    4.983115
  C      4.221669   -0.877211    4.917385
  H      3.858687   -0.709905    1.557428
  H      5.747577   -2.296217    1.668734
  H      6.668315   -2.979959    3.866242
  H      5.682559   -2.062933    5.947603
  H      3.793063   -0.478014    5.828574
  C     -3.268878   -1.066687    3.874522
  C     -3.667918   -1.788375    2.747750
  C     -4.564234   -2.845791    2.862457
  C     -5.074526   -3.197454    4.107322
  C     -4.683635   -2.485348    5.235983
  C     -3.787778   -1.427761    5.119547
  H     -3.273041   -1.516543    1.776417
  H     -4.864104   -3.393742    1.977602
  H     -5.772141   -4.020854    4.197211
  H     -5.074971   -2.752745    6.209880
  H     -3.484718   -0.875694    6.000826
  C     -3.864733    5.870703    3.247417
  C     -4.478147    6.160659    2.027095
  C     -5.541818    7.054544    1.961680
  C     -6.007913    7.671692    3.117385
  C     -5.403930    7.390113    4.337892
  C     -4.339974    6.496389    4.401583
  H     -4.117079    5.682037    1.124963
  H     -6.005261    7.268689    1.006429
  H     -6.836146    8.367565    3.067198
  H     -5.760543    7.865684    5.243313
  H     -3.871962    6.279023    5.353961
  C      3.099664    6.452146    3.053442
  C      3.661497    6.775794    1.816635
  C      4.557159    7.833246    1.698146
  C      4.905551    8.582603    2.816561
  C      4.352538    8.268463    4.053191
  C      3.455949    7.211546    4.169835
  H      3.391367    6.195061    0.943123
  H      4.981312    8.071697    0.730485
  H      5.603197    9.405802    2.725123
  H      4.619446    8.845223    4.930252
  H      3.028116    6.968877    5.134904

----------------------------
CARTESIAN COORDINATES (A.U.)
----------------------------
  NO LB      ZA    FRAG     MASS         X           Y           Z
   0 N     7.0000    0    14.007   -3.987532    4.769643    6.663752
   1 H     1.0000    0     1.008    3.176078   -4.217640    7.324470
   2 C     6.0000    0    12.011   -8.220618    5.695974    6.668247
   3 C     6.0000    0    12.011   -0.753433   -2.940127    7.289325
   4 N     7.0000    0    14.007    0.167000    1.274636    6.883085
   5 C     6.0000    0    12.011    1.794768   -2.727430    7.216410
   6 H     1.0000    0     1.008   -1.860330   -4.637633    7.472119
   7 C     6.0000    0    12.011    5.378556    3.468053    6.587911
   8 N     7.0000    0    14.007   -0.486630    8.903488    6.218263
   9 C     6.0000    0    12.011   -2.115853   12.900913    5.840409
  10 C     6.0000    0    12.011    4.817346    0.903677    6.831886
  11 C     6.0000    0    12.011    5.024166    7.604878    6.214287
  12 N     7.0000    0    14.007    3.667778    5.407845    6.431083
  13 C     6.0000    0    12.011    7.684074    7.023580    6.244710
  14 C     6.0000    0    12.011   -1.777875   -0.426364    7.077189
  15 C     6.0000    0    12.011    2.374728   -0.079226    6.964637
  16 C     6.0000    0    12.011   -5.343471    2.573656    6.893365
  17 C     6.0000    0    12.011   -5.698373    6.710275    6.520053
  18 C     6.0000    0    12.011   -8.003020    3.157071    6.893131
  19 C     6.0000    0    12.011   -4.353399    0.137684    7.086935
  20 C     6.0000    0    12.011   -5.137387    9.273858    6.267689
  21 C     6.0000    0    12.011    7.901322    4.484867    6.471720
  22 C     6.0000    0    12.011   -2.694878   10.255957    6.125260
  23 C     6.0000    0    12.011    0.432276   13.113811    5.766562
  24 C     6.0000    0    12.011    4.033951   10.040142    6.008552
  25 C     6.0000    0    12.011    1.457834   10.603155    6.008567
  26 H     1.0000    0     1.008   -9.926868    6.802731    6.603459
  27 H     1.0000    0     1.008   -9.497284    1.784254    7.044239
  28 H     1.0000    0     1.008    9.607878    3.380380    6.561861
  29 H     1.0000    0     1.008    9.179030    8.397781    6.115613
  30 H     1.0000    0     1.008    1.538055   14.809236    5.560037
  31 H     1.0000    0     1.008   -3.497646   14.388686    5.707755
  32 Pd   18.0000*   0   106.400   -0.159833    5.088918    6.549072
  33 C     6.0000    0    12.011    6.983374   -0.916266    6.963708
  34 C     6.0000    0    12.011    8.048215   -1.902846    4.760457
  35 C     6.0000    0    12.011   10.059080   -3.591304    4.881536
  36 C     6.0000    0    12.011   11.035408   -4.317220    7.210756
  37 C     6.0000    0    12.011    9.989222   -3.345220    9.416722
  38 C     6.0000    0    12.011    7.977797   -1.657689    9.292512
  39 H     1.0000    0     1.008    7.291861   -1.341526    2.943112
  40 H     1.0000    0     1.008   10.861347   -4.339222    3.153449
  41 H     1.0000    0     1.008   12.601290   -5.631306    7.306139
  42 H     1.0000    0     1.008   10.738480   -3.898379   11.239342
  43 H     1.0000    0     1.008    7.167849   -0.903316   11.014408
  44 C     6.0000    0    12.011   -6.177283   -2.015746    7.321785
  45 C     6.0000    0    12.011   -6.931360   -3.379539    5.192495
  46 C     6.0000    0    12.011   -8.625153   -5.377765    5.409260
  47 C     6.0000    0    12.011   -9.589465   -6.042312    7.761714
  48 C     6.0000    0    12.011   -8.850788   -4.696626    9.894574
  49 C     6.0000    0    12.011   -7.157863   -2.698078    9.674541
  50 H     1.0000    0     1.008   -6.185151   -2.865852    3.356941
  51 H     1.0000    0     1.008   -9.191825   -6.413243    3.737127
  52 H     1.0000    0     1.008  -10.907766   -7.598313    7.931580
  53 H     1.0000    0     1.008   -9.590305   -5.201934   11.734973
  54 H     1.0000    0     1.008   -6.585162   -1.654821   11.339918
  55 C     6.0000    0    12.011   -7.303287   11.094021    6.136729
  56 C     6.0000    0    12.011   -8.462472   11.641958    3.830655
  57 C     6.0000    0    12.011  -10.472518   13.331156    3.707038
  58 C     6.0000    0    12.011  -11.353310   14.497398    5.891003
  59 C     6.0000    0    12.011  -10.211947   13.965290    8.197428
  60 C     6.0000    0    12.011   -8.201361   12.276396    8.317786
  61 H     1.0000    0     1.008   -7.780152   10.737494    2.125873
  62 H     1.0000    0     1.008  -11.348298   13.735832    1.901875
  63 H     1.0000    0     1.008  -12.918444   15.812406    5.796164
  64 H     1.0000    0     1.008  -10.885848   14.863989    9.908426
  65 H     1.0000    0     1.008   -7.316948   11.865634   10.117519
  66 C     6.0000    0    12.011    5.857516   12.192790    5.770169
  67 C     6.0000    0    12.011    6.919226   12.804394    3.432943
  68 C     6.0000    0    12.011    8.611782   14.802689    3.209031
  69 C     6.0000    0    12.011    9.270147   16.218769    5.322530
  70 C     6.0000    0    12.011    8.225105   15.625130    7.659421
  71 C     6.0000    0    12.011    6.530797   13.627847    7.879847
  72 H     1.0000    0     1.008    6.408756   11.706968    1.782244
  73 H     1.0000    0     1.008    9.413315   15.253296    1.380417
  74 H     1.0000    0     1.008   10.588507   17.774390    5.149736
  75 H     1.0000    0     1.008    8.729487   16.715049    9.316826
  76 H     1.0000    0     1.008    5.722310   13.169268    9.703562
* core charge reduced due to ECP

--------------------------------
INTERNAL COORDINATES (ANGSTROEM)
--------------------------------
 N      0   0   0     0.000000000000     0.00000000     0.00000000
 H      1   0   0     6.091864519695     0.00000000     0.00000000
 C      1   2   0     2.293061668774   140.77976632     0.00000000
 C      2   1   3     2.186618710776    33.52783143     0.04252703
 N      4   2   1     2.293020439396    95.71126238     0.13201848
 C      2   1   3     1.076771071192     4.27097730     0.95018847
 H      4   2   1     1.076737357735   104.98917044   180.24197510
 C      5   4   2     2.996214647055   125.25434724   359.81268877
 N      1   2   6     2.876283733654   101.39950918   180.95456890
 C      9   1   2     2.293026306020   117.81294611   179.23280037
 C      8   5   4     1.395112866777    54.72016910     0.08516652
 C      8   5   4     2.206009583477   108.11038933   180.04091611
 N     12   8   5     1.371145497004    36.44556594   359.65156690
 C     12   8   5     1.440873091928    72.78845772   179.45502588
 C      5   4   2     1.371131839070    36.38876957   179.89822507
 C      5   4   2     1.371136533824    70.71949993   359.92072186
 C      1   2   6     1.371135984783    70.05647476     1.03551285
 C      1   2   6     1.371138730284   177.16104147   358.97779031
 C      3   1   2     1.353695948585    72.83217491     0.00000000
 C     15   5   4     1.395219876198   126.37442169   179.66696349
 C     18   1  17     1.395097281961   126.37748330   180.13749834
 C     14  12   8     1.353679735100   107.20709609     0.05323370
 C      9   1   2     1.371190110672    81.43098556   179.61880543
 C     10   9   1     1.353674188183    72.82860588   180.60441881
 C     12   8   5     1.395399661196   162.81723884     0.00000000
 C      9   1   2     1.371149126465   171.44610486     2.37032993
 H      3   1   2     1.076767616977   159.29162586   180.04288983
 H     19   3   1     1.076753670965   127.85564321   180.14471152
 H     22  14  12     1.076761799141   127.86843687   180.16669300
 H     14  12   8     1.076714671126   124.94922907   180.29620946
 H     24  10   9     1.076699071888   127.85290957   179.65835995
 H     10   9   1     1.076770499221   159.31197649     0.00000000
 Pd    13  12   8     2.033462073962   126.46781400   179.19972923
 C     11   8   5     1.498725461683   117.81049574   180.12635065
 C     34  11   8     1.396219767790   120.66842979   272.82165428
 C     35  34  11     1.390953825264   120.69543613   179.97740510
 C     36  35  34     1.390582364320   120.16603241   359.97529885
 C     37  36  35     1.390596386896   119.60239487     0.00000000
 C     38  37  36     1.390943109850   120.16249836     0.00000000
 H     35  34  11     1.083185124941   119.32249910   359.94042574
 H     36  35  34     1.083107498935   119.71566789   179.95479444
 H     37  36  35     1.082927975900   120.19786101   180.01705479
 H     38  37  36     1.083110082999   120.12050429   180.06128569
 H     39  38  37     1.083201384917   119.97650792   180.03150919
 C     20  15   5     1.498512414292   117.82573721   180.08675936
 C     45  20  15     1.396309957761   120.67602934   275.47228008
 C     46  45  20     1.390923913888   120.69950293   180.03028757
 C     47  46  45     1.390594937017   120.16864752   359.97146212
 C     48  47  46     1.390599546684   119.59914676     0.02391936
 C     49  48  47     1.390901187040   120.16385760     0.00000000
 H     46  45  20     1.083193415161   119.32361907   359.94790795
 H     47  46  45     1.083116076579   119.71172485   179.90374148
 H     48  47  46     1.082928541119   120.19742760   180.02050545
 H     49  48  47     1.083106931738   120.12000129   180.06956091
 H     50  49  48     1.083179315867   119.97573915   180.05227748
 C     21  18   1     1.498727198128   117.81570509   179.80364232
 C     56  21  18     1.396258338985   120.65372407   273.45074291
 C     57  56  21     1.390936594620   120.69852576   180.00777400
 C     58  57  56     1.390600697335   120.16129999     0.00000000
 C     59  58  57     1.390582904429   119.60335106     0.02620359
 C     60  59  58     1.390971536282   120.16672006     0.00000000
 H     57  56  21     1.083185608742   119.32096230   359.95749120
 H     58  57  56     1.083116967127   119.71873647   179.93453949
 H     59  58  57     1.082925507565   120.19933745   180.01377371
 H     60  59  58     1.083110391607   120.11852907   180.03003533
 H     61  60  59     1.083192681126   119.97900133   180.02036021
 C     25  12   8     1.498245128282   117.83135176   180.16993308
 C     67  25  12     1.396457852924   120.65804047    81.98986846
 C     68  67  25     1.390846818110   120.71358375   179.98302436
 C     69  68  67     1.390599469242   120.16689149     0.06630908
 C     70  69  68     1.390596912200   119.59423432   359.96944806
 C     71  70  69     1.390881522349   120.17162991   359.96512984
 H     68  67  25     1.083164020706   119.31777031     0.12948246
 H     69  68  67     1.083112177416   119.71424993   180.15314058
 H     70  69  68     1.082925280805   120.20670543   179.97266556
 H     71  70  69     1.083110359360   120.11990499   179.87743042
 H     72  71  70     1.083183646087   119.97152232   179.92136023

---------------------------
INTERNAL COORDINATES (A.U.)
---------------------------
 N      0   0   0     0.000000000000     0.00000000     0.00000000
 H      1   0   0    11.511955587176     0.00000000     0.00000000
 C      1   2   0     4.333258562175   140.77976632     0.00000000
 C      2   1   3     4.132110522674    33.52783143     0.04252703
 N      4   2   1     4.333180649942    95.71126238     0.13201848
 C      2   1   3     2.034802433482     4.27097730     0.95018847
 H      4   2   1     2.034738724282   104.98917044   180.24197510
 C      5   4   2     5.662025121378   125.25434724   359.81268877
 N      1   2   6     5.435388540058   101.39950918   180.95456890
 C      9   1   2     4.333191736256   117.81294611   179.23280037
 C      8   5   4     2.636381244118    54.72016910     0.08516652
 C      8   5   4     4.168753961577   108.11038933   180.04091611
 N     12   8   5     2.591089479096    36.44556594   359.65156690
 C     12   8   5     2.722855537480    72.78845772   179.45502588
 C      5   4   2     2.591063669343    36.38876957   179.89822507
 C      5   4   2     2.591072541142    70.71949993   359.92072186
 C      1   2   6     2.591071503605    70.05647476     1.03551285
 C      1   2   6     2.591076691848   177.16104147   358.97779031
 C      3   1   2     2.558114611425    72.83217491     0.00000000
 C     15   5   4     2.636583462617   126.37442169   179.66696349
 C     18   1  17     2.636351793084   126.37748330   180.13749834
 C     14  12   8     2.558083972379   107.20709609     0.05323370
 C      9   1   2     2.591173786711    81.43098556   179.61880543
 C     10   9   1     2.558073490223    72.82860588   180.60441881
 C     12   8   5     2.636923207027   162.81723884     0.00000000
 C      9   1   2     2.591096337784   171.44610486     2.37032993
 H      3   1   2     2.034795905961   159.29162586   180.04288983
 H     19   3   1     2.034769551817   127.85564321   180.14471152
 H     22  14  12     2.034784911844   127.86843687   180.16669300
 H     14  12   8     2.034695852804   124.94922907   180.29620946
 H     24  10   9     2.034666374516   127.85290957   179.65835995
 H     10   9   1     2.034801352614   159.31197649     0.00000000
 Pd    13  12   8     3.842686423504   126.46781400   179.19972923
 C     11   8   5     2.832180672516   117.81049574   180.12635065
 C     34  11   8     2.638472983890   120.66842979   272.82165428
 C     35  34  11     2.628521794680   120.69543613   179.97740510
 C     36  35  34     2.627819835225   120.16603241   359.97529885
 C     37  36  35     2.627846334053   119.60239487     0.00000000
 C     38  37  36     2.628501545482   120.16249836     0.00000000
 H     35  34  11     2.046923238475   119.32249910   359.94042574
 H     36  35  34     2.046776546584   119.71566789   179.95479444
 H     37  36  35     2.046437297212   120.19786101   180.01705479
 H     38  37  36     2.046781429757   120.12050429   180.06128569
 H     39  38  37     2.046953965378   119.97650792   180.03150919
 C     20  15   5     2.831778071293   117.82573721   180.08675936
 C     45  20  15     2.638643418236   120.67602934   275.47228008
 C     46  45  20     2.628465270371   120.69950293   180.03028757
 C     47  46  45     2.627843594180   120.16864752   359.97146212
 C     48  47  46     2.627852305189   119.59914676     0.02391936
 C     49  48  47     2.628422322851   120.16385760     0.00000000
 H     46  45  20     2.046938904722   119.32361907   359.94790795
 H     47  46  45     2.046792755981   119.71172485   179.90374148
 H     48  47  46     2.046438365321   120.19742760   180.02050545
 H     49  48  47     2.046775474736   120.12000129   180.06956091
 H     50  49  48     2.046912260916   119.97573915   180.05227748
 C     21  18   1     2.832183953921   117.81570509   179.80364232
 C     56  21  18     2.638545872886   120.65372407   273.45074291
 C     57  56  21     2.628489233481   120.69852576   180.00777400
 C     58  57  56     2.627854479604   120.16129999     0.00000000
 C     59  58  57     2.627820855884   119.60335106     0.02620359
 C     60  59  58     2.628555263654   120.16672006     0.00000000
 H     57  56  21     2.046924152727   119.32096230   359.95749120
 H     58  57  56     2.046794438874   119.71873647   179.93453949
 H     59  58  57     2.046432632736   120.19933745   180.01377371
 H     60  59  58     2.046782012941   120.11852907   180.03003533
 H     61  60  59     2.046937517595   119.97900133   180.02036021
 C     25  12   8     2.831272973935   117.83135176   180.16993308
 C     67  25  12     2.638922899590   120.65804047    81.98986846
 C     68  67  25     2.628319580464   120.71358375   179.98302436
 C     69  68  67     2.627852158844   120.16689149     0.06630908
 C     70  69  68     2.627847326735   119.59423432   359.96944806
 C     71  70  69     2.628385161970   120.17162991   359.96512984
 H     68  67  25     2.046883357251   119.31777031     0.12948246
 H     69  68  67     2.046785387631   119.71424993   180.15314058
 H     70  69  68     2.046432204220   120.20670543   179.97266556
 H     71  70  69     2.046781952003   120.11990499   179.87743042
 H     72  71  70     2.046920443847   119.97152232   179.92136023

---------------------
BASIS SET INFORMATION
---------------------
There are 4 groups of distinct atoms

 Group   1 Type N   : 11s6p2d1f contracted to 5s3p2d1f pattern {62111/411/11/1}
 Group   2 Type H   : 5s1p contracted to 3s1p pattern {311/1}
 Group   3 Type C   : 11s6p2d1f contracted to 5s3p2d1f pattern {62111/411/11/1}
 Group   4 Type Pd  : 7s7p6d1f contracted to 6s4p3d1f pattern {211111/4111/411/1}

Atom   0N    basis set group =>   1
Atom   1H    basis set group =>   2
Atom   2C    basis set group =>   3
Atom   3C    basis set group =>   3
Atom   4N    basis set group =>   1
Atom   5C    basis set group =>   3
Atom   6H    basis set group =>   2
Atom   7C    basis set group =>   3
Atom   8N    basis set group =>   1
Atom   9C    basis set group =>   3
Atom  10C    basis set group =>   3
Atom  11C    basis set group =>   3
Atom  12N    basis set group =>   1
Atom  13C    basis set group =>   3
Atom  14C    basis set group =>   3
Atom  15C    basis set group =>   3
Atom  16C    basis set group =>   3
Atom  17C    basis set group =>   3
Atom  18C    basis set group =>   3
Atom  19C    basis set group =>   3
Atom  20C    basis set group =>   3
Atom  21C    basis set group =>   3
Atom  22C    basis set group =>   3
Atom  23C    basis set group =>   3
Atom  24C    basis set group =>   3
Atom  25C    basis set group =>   3
Atom  26H    basis set group =>   2
Atom  27H    basis set group =>   2
Atom  28H    basis set group =>   2
Atom  29H    basis set group =>   2
Atom  30H    basis set group =>   2
Atom  31H    basis set group =>   2
Atom  32Pd   basis set group =>   4
Atom  33C    basis set group =>   3
Atom  34C    basis set group =>   3
Atom  35C    basis set group =>   3
Atom  36C    basis set group =>   3
Atom  37C    basis set group =>   3
Atom  38C    basis set group =>   3
Atom  39H    basis set group =>   2
Atom  40H    basis set group =>   2
Atom  41H    basis set group =>   2
Atom  42H    basis set group =>   2
Atom  43H    basis set group =>   2
Atom  44C    basis set group =>   3
Atom  45C    basis set group =>   3
Atom  46C    basis set group =>   3
Atom  47C    basis set group =>   3
Atom  48C    basis set group =>   3
Atom  49C    basis set group =>   3
Atom  50H    basis set group =>   2
Atom  51H    basis set group =>   2
Atom  52H    basis set group =>   2
Atom  53H    basis set group =>   2
Atom  54H    basis set group =>   2
Atom  55C    basis set group =>   3
Atom  56C    basis set group =>   3
Atom  57C    basis set group =>   3
Atom  58C    basis set group =>   3
Atom  59C    basis set group =>   3
Atom  60C    basis set group =>   3
Atom  61H    basis set group =>   2
Atom  62H    basis set group =>   2
Atom  63H    basis set group =>   2
Atom  64H    basis set group =>   2
Atom  65H    basis set group =>   2
Atom  66C    basis set group =>   3
Atom  67C    basis set group =>   3
Atom  68C    basis set group =>   3
Atom  69C    basis set group =>   3
Atom  70C    basis set group =>   3
Atom  71C    basis set group =>   3
Atom  72H    basis set group =>   2
Atom  73H    basis set group =>   2
Atom  74H    basis set group =>   2
Atom  75H    basis set group =>   2
Atom  76H    basis set group =>   2
---------------------------------
AUXILIARY/J BASIS SET INFORMATION
---------------------------------
There are 4 groups of distinct atoms

 Group   1 Type N   : 12s5p4d2f1g contracted to 6s4p3d1f1g pattern {711111/2111/211/2/1}
 Group   2 Type H   : 5s2p1d contracted to 3s1p1d pattern {311/2/1}
 Group   3 Type C   : 12s5p4d2f1g contracted to 6s4p3d1f1g pattern {711111/2111/211/2/1}
 Group   4 Type Pd  : 11s5p5d3f3g contracted to 8s5p5d2f3g pattern {41111111/11111/11111/21/111}

Atom   0N    basis set group =>   1
Atom   1H    basis set group =>   2
Atom   2C    basis set group =>   3
Atom   3C    basis set group =>   3
Atom   4N    basis set group =>   1
Atom   5C    basis set group =>   3
Atom   6H    basis set group =>   2
Atom   7C    basis set group =>   3
Atom   8N    basis set group =>   1
Atom   9C    basis set group =>   3
Atom  10C    basis set group =>   3
Atom  11C    basis set group =>   3
Atom  12N    basis set group =>   1
Atom  13C    basis set group =>   3
Atom  14C    basis set group =>   3
Atom  15C    basis set group =>   3
Atom  16C    basis set group =>   3
Atom  17C    basis set group =>   3
Atom  18C    basis set group =>   3
Atom  19C    basis set group =>   3
Atom  20C    basis set group =>   3
Atom  21C    basis set group =>   3
Atom  22C    basis set group =>   3
Atom  23C    basis set group =>   3
Atom  24C    basis set group =>   3
Atom  25C    basis set group =>   3
Atom  26H    basis set group =>   2
Atom  27H    basis set group =>   2
Atom  28H    basis set group =>   2
Atom  29H    basis set group =>   2
Atom  30H    basis set group =>   2
Atom  31H    basis set group =>   2
Atom  32Pd   basis set group =>   4
Atom  33C    basis set group =>   3
Atom  34C    basis set group =>   3
Atom  35C    basis set group =>   3
Atom  36C    basis set group =>   3
Atom  37C    basis set group =>   3
Atom  38C    basis set group =>   3
Atom  39H    basis set group =>   2
Atom  40H    basis set group =>   2
Atom  41H    basis set group =>   2
Atom  42H    basis set group =>   2
Atom  43H    basis set group =>   2
Atom  44C    basis set group =>   3
Atom  45C    basis set group =>   3
Atom  46C    basis set group =>   3
Atom  47C    basis set group =>   3
Atom  48C    basis set group =>   3
Atom  49C    basis set group =>   3
Atom  50H    basis set group =>   2
Atom  51H    basis set group =>   2
Atom  52H    basis set group =>   2
Atom  53H    basis set group =>   2
Atom  54H    basis set group =>   2
Atom  55C    basis set group =>   3
Atom  56C    basis set group =>   3
Atom  57C    basis set group =>   3
Atom  58C    basis set group =>   3
Atom  59C    basis set group =>   3
Atom  60C    basis set group =>   3
Atom  61H    basis set group =>   2
Atom  62H    basis set group =>   2
Atom  63H    basis set group =>   2
Atom  64H    basis set group =>   2
Atom  65H    basis set group =>   2
Atom  66C    basis set group =>   3
Atom  67C    basis set group =>   3
Atom  68C    basis set group =>   3
Atom  69C    basis set group =>   3
Atom  70C    basis set group =>   3
Atom  71C    basis set group =>   3
Atom  72H    basis set group =>   2
Atom  73H    basis set group =>   2
Atom  74H    basis set group =>   2
Atom  75H    basis set group =>   2
Atom  76H    basis set group =>   2
-------------------------
ECP PARAMETER INFORMATION
-------------------------

 Group 1, Type Pd ECP Def2-ECP (replacing 28 core electrons, lmax=3)

Atom  32Pd   ECP group =>   1



           ************************************************************
           *        Program running with 8 parallel MPI-processes     *
           *              working on a common directory               *
           ************************************************************
------------------------------------------------------------------------------
                             ORCA STARTUP CALCULATIONS
                           -- RI-GTO INTEGRALS CHOSEN --
------------------------------------------------------------------------------
------------------------------------------------------------------------------
                   ___                                                        
                  /   \      - P O W E R E D   B Y -                         
                 /     \                                                     
                 |  |  |   _    _      __       _____    __    __             
                 |  |  |  | |  | |    /  \     |  _  \  |  |  /  |          
                  \  \/   | |  | |   /    \    | | | |  |  | /  /          
                 / \  \   | |__| |  /  /\  \   | |_| |  |  |/  /          
                |  |  |   |  __  | /  /__\  \  |    /   |      \           
                |  |  |   | |  | | |   __   |  |    \   |  |\   \          
                \     /   | |  | | |  |  |  |  | |\  \  |  | \   \       
                 \___/    |_|  |_| |__|  |__|  |_| \__\ |__|  \__/        
                                                                              
                      - O R C A' S   B I G   F R I E N D -                    
                                      &                                       
                       - I N T E G R A L  F E E D E R -                       
                                                                              
 v1 FN, 2020, v2 2021, v3 2022-2024                                           
------------------------------------------------------------------------------


----------------------
SHARK INTEGRAL PACKAGE
----------------------

Number of atoms                             ...     77
Number of basis functions                   ...   1696
Number of shells                            ...    654
Maximum angular momentum                    ...      3
Integral batch strategy                     ... SHARK/LIBINT Hybrid
RI-J (if used) integral strategy            ... SPLIT-RIJ (Revised 2003 algorithm where possible)
Printlevel                                  ...      1
Contraction scheme used                     ... SEGMENTED contraction
Prescreening option                         ... SCHWARTZ
   Thresh                                   ... 2.500e-11
   Tcut                                     ... 2.500e-12
   Tpresel                                  ... 2.500e-12 
Coulomb Range Separation                    ... NOT USED
Exchange Range Separation                   ... Long Range
   Mu parameter                             ... 2.500e-01
   Scaling (regular/separated)              ... 1.957e-01 8.043e-01
Robust (split-)RI terms used:
  metric    (central integrals)             ... YES
  density   (r.h.s.  integrals)             ... YES
  potential (l.h.s.  integrals)             ... YES
Multipole approximations                    ... NOT USED
Finite Nucleus Model                        ... NOT USED
CABS basis                                  ... NOT available
Auxiliary Coulomb fitting basis             ... AVAILABLE
   # of basis functions in Aux-J            ...   2749
   # of shells in Aux-J                     ...    883
   Maximum angular momentum in Aux-J        ...      4
Auxiliary J/K fitting basis                 ... NOT available
Auxiliary Correlation fitting basis         ... NOT available
Auxiliary 'external' fitting basis          ... NOT available

Checking pre-screening integrals            ... done (  0.0 sec) Dimension = 654
   => SHARK Basis and OBASIS are compatible. Storing Pre-screening
Shell pair information
Shell pair cut-off parameter TPreSel        ...   2.5e-12
Total number of shell pairs                 ...    214185
Shell pairs after pre-screening             ...    104422
Total number of primitive shell pairs       ...    661828
Primitive shell pairs kept                  ...    198973
          la=0 lb=0:  24775 shell pairs
          la=1 lb=0:  30706 shell pairs
          la=1 lb=1:   9368 shell pairs
          la=2 lb=0:  14739 shell pairs
          la=2 lb=1:   9315 shell pairs
          la=2 lb=2:   2222 shell pairs
          la=3 lb=0:   6683 shell pairs
          la=3 lb=1:   4262 shell pairs
          la=3 lb=2:   1897 shell pairs
          la=3 lb=3:    455 shell pairs

Checking whether 4 symmetric matrices of dimension 1696 fit in memory
:Max Core in MB      =   3000.00
 MB in use           =    127.08
 MB left             =   2872.92
 MB needed           =     43.92
 Data fit in memory  = YES
Calculating RI/J V-Matrix + Cholesky decomp.... done (  2.0 sec)
Calculating Nuclear repulsion               ... done (  0.0 sec) ENN=   6002.744108119021 Eh

Diagonalization of the overlap matrix:
Smallest eigenvalue                        ... 2.867e-06
Time for diagonalization                   ...    2.952 sec
Threshold for overlap eigenvalues          ... 1.000e-07
Number of eigenvalues below threshold      ... 0
Time for construction of square roots      ...    0.793 sec
Total time needed                          ...    4.084 sec

-------------------
DFT GRID GENERATION
-------------------

General Integration Accuracy     IntAcc      ... 4.959
Radial Grid Type                 RadialGrid  ... OptM3 with GC (2021)
Angular Grid (max. ang.)         AngularGrid ... 6 (Lebedev-590)
Angular grid pruning method      GridPruning ... 4 (adaptive)
Weight generation scheme         WeightScheme... mBecke (2022)
Basis function cutoff            BFCut       ... 1.0000e-11
Integration weight cutoff        WCut        ... 1.0000e-14
Partially contracted basis set               ... off
Rotationally invariant grid construction     ... off
Angular grids for H and He will be reduced by one unit

Total number of grid points                  ...   931349
Total number of batches                      ...    14594
Average number of points per batch           ...       63
Average number of grid points per atom       ...    12095

--------------------
COSX GRID GENERATION
--------------------

GRIDX 1
-------
General Integration Accuracy     IntAcc      ... 4.020
Radial Grid Type                 RadialGrid  ... OptM3 with GC (2021)
Angular Grid (max. ang.)         AngularGrid ... 2 (Lebedev-110)
Angular grid pruning method      GridPruning ... 4 (adaptive)
Weight generation scheme         WeightScheme... mBecke (2022)
Basis function cutoff            BFCut       ... 1.0000e-11
Integration weight cutoff        WCut        ... 1.0000e-14
Partially contracted basis set               ... on
Rotationally invariant grid construction     ... off
Angular grids for H and He will be reduced by one unit

Total number of grid points                  ...   107306
Total number of batches                      ...      879
Average number of points per batch           ...      122
Average number of grid points per atom       ...     1394
UseSFitting                                  ... on

GRIDX 2
-------
General Integration Accuracy     IntAcc      ... 4.338
Radial Grid Type                 RadialGrid  ... OptM3 with GC (2021)
Angular Grid (max. ang.)         AngularGrid ... 3 (Lebedev-194)
Angular grid pruning method      GridPruning ... 4 (adaptive)
Weight generation scheme         WeightScheme... mBecke (2022)
Basis function cutoff            BFCut       ... 1.0000e-11
Integration weight cutoff        WCut        ... 1.0000e-14
Partially contracted basis set               ... on
Rotationally invariant grid construction     ... off
Angular grids for H and He will be reduced by one unit

Total number of grid points                  ...   229447
Total number of batches                      ...     1831
Average number of points per batch           ...      125
Average number of grid points per atom       ...     2980
UseSFitting                                  ... on

GRIDX 3
-------
General Integration Accuracy     IntAcc      ... 4.871
Radial Grid Type                 RadialGrid  ... OptM3 with GC (2021)
Angular Grid (max. ang.)         AngularGrid ... 4 (Lebedev-302)
Angular grid pruning method      GridPruning ... 4 (adaptive)
Weight generation scheme         WeightScheme... mBecke (2022)
Basis function cutoff            BFCut       ... 1.0000e-11
Integration weight cutoff        WCut        ... 1.0000e-14
Partially contracted basis set               ... on
Rotationally invariant grid construction     ... off
Angular grids for H and He will be reduced by one unit

Total number of grid points                  ...   421122
Total number of batches                      ...     3328
Average number of points per batch           ...      126
Average number of grid points per atom       ...     5469
UseSFitting                                  ... on
Grids setup in  57.4 sec
Initializing property integral containers    ... done (  0.0 sec)

SHARK setup successfully completed in  75.4 seconds

Maximum memory used throughout the entire STARTUP-calculation: 304.5 MB


           ************************************************************
           *        Program running with 8 parallel MPI-processes     *
           *              working on a common directory               *
           ************************************************************
-------------------------------------------------------------------------------
                                 ORCA GUESS
                   Start orbitals & Density for SCF / CASSCF
-------------------------------------------------------------------------------

------------
SCF SETTINGS
------------
Hamiltonian:
 Density Functional     Method          .... DFT(GTOs)
 Exchange Functional    Exchange        .... WB97X-D3
 Correlation Functional Correlation     .... WB97X-D3
 Gradients option       PostSCFGGA      .... off
 Hybrid DFT is turned on
   Fraction HF Exchange ScalHFX         ....  0.195728
   Scaling of DF-GGA-X  ScalDFX         ....  0.000000
   Scaling of DF-GGA-C  ScalDFC         ....  1.000000
   Scaling of DF-LDA-C  ScalLDAC        ....  1.000000
   Perturbative correction              ....  0.000000
 Long-range corrected/Screened/Range-Separated Hybrid DFT is turned on
   Amount of maximum screened exact exchange              ....  0.804272
   Range separation parameter mu (erf(mu*r12)/r12)        ....  0.250000
 RI-approximation to the Coulomb term is turned on
   Number of AuxJ basis functions       .... 2749
   RIJ-COSX (HFX calculated with COS-X)).... on


General Settings:
 Integral files         IntName         .... tddft
 Hartree-Fock type      HFTyp           .... RHF
 Total Charge           Charge          ....    0
 Multiplicity           Mult            ....    1
 Number of Electrons    NEL             ....  338
 Basis Dimension        Dim             .... 1696
 Nuclear Repulsion      ENuc            ....   6002.7441081190 Eh

Convergence Acceleration:
 AO-DIIS                CNVDIIS         .... on
   Start iteration      DIISMaxIt       ....    12
   Startup error        DIISStart       ....  0.200000
   # of expansion vecs  DIISMaxEq       ....     5
   Bias factor          DIISBfac        ....   1.050
   Max. coefficient     DIISMaxC        ....  10.000
 MO-DIIS                CNVKDIIS        .... off
 Trust-Rad. Augm. Hess. CNVTRAH         .... auto
   Auto Start mean grad. ratio tolernc. ....  1.125000
   Auto Start start iteration           ....    50
   Auto Start num. interpolation iter.  ....    10
   Max. Number of Micro iterations      ....    24
   Max. Number of Macro iterations      .... Maxiter - #DIIS iter
   Number of Davidson start vectors     ....     2
   Converg. threshold    (grad. norm)   ....   1.000e-05
   Grad. Scal. Fac. for Micro threshold ....   0.100
   Minimum threshold for Micro iter.    ....   1.000e-02
   NR start threshold (gradient norm)   ....   1.000e-04
   Initial trust radius                 ....   0.400
   Minimum AH scaling param. (alpha)    ....   1.000
   Maximum AH scaling param. (alpha)    .... 1000.000
   Quad. conv. algorithm                .... NR
   White noise on init. David. guess    .... on
   Maximum white noise                  ....   0.010
   Pseudo random numbers                .... off
   Inactive MOs                         .... canonical
   Orbital update algorithm             .... Taylor
   Preconditioner                       .... Diag
   Full preconditioner red. dimension   ....   250
 SOSCF                 CNVSOSCF           .... on
   Start iteration     SOSCFMaxIt         ....   150
   Startup grad/error  SOSCFStart         ....  0.003300
   Hessian update      SOSCFHessUp        .... L-BFGS
   Autom. constraints  SOSCFAutoConstrain .... off
 Level Shifting         CNVShift        .... on
   Level shift para.    LevelShift      ....    0.2500
   Turn off err/grad.   ShiftErr        ....    0.0010
 Zerner damping         CNVZerner       .... off
 Static damping         CNVDamp         .... on
   Fraction old density DampFac         ....    0.7000
   Max. Damping (<1)    DampMax         ....    0.9800
   Min. Damping (>=0)   DampMin         ....    0.0000
   Turn off err/grad.   DampErr         ....    0.1000

SCF Procedure:
 Maximum # iterations   MaxIter         ....   125
 SCF integral mode      SCFMode         .... Direct
   Integral package                     .... SHARK and LIBINT hybrid scheme
 Reset frequency        DirectResetFreq ....    20
 Integral Threshold     Thresh          ....  2.500e-11 Eh
 Primitive CutOff       TCut            ....  2.500e-12 Eh

Convergence Tolerance:
 Convergence Check Mode ConvCheckMode   .... Total+1el-Energy
 Convergence forced     ConvForced      .... 1
 Energy Change          TolE            ....  1.000e-08 Eh
 1-El. energy change                    ....  1.000e-05 Eh
 Orbital Gradient       TolG            ....  1.000e-05
 Orbital Rotation angle TolX            ....  1.000e-05
 DIIS Error             TolErr          ....  5.000e-07

------------------------------
INITIAL GUESS: MODEL POTENTIAL
------------------------------
Loading Hartree-Fock densities                     ... done
Atomic calculation to generate a density for atom 32 (Pd with ECP)
  Multiplicity assumed   :    3
  Atomic configuration   : 1s2 2s2 2p6 3s2 3p6 4s2 3d10 4p6 5s2 4d8 
  Number of open shells  : 1
  Command: /opt/orca/orca tddft_atom46.inp "" > tddft_atom46.out
Returned from the atomic calculation with res=0
Calculating cut-offs                               ... done
Initializing the effective Hamiltonian             ... done
Setting up the integral package (SHARK)            ... done
Starting the Coulomb interaction                   ... done (   7.9 sec)
Making the grid                                    ... done (   2.2 sec)
Mapping shells                                     ... done
Starting the XC term evaluation                    ... done (   3.3 sec)
  promolecular density results
     # of electrons  =    365.974760046
     EX              =   -398.259369015
     EC              =    -13.259716790
     EX+EC           =   -411.519085805
Transforming the Hamiltonian                       ... done (   1.1 sec)
Diagonalizing the Hamiltonian                      ... done (   2.4 sec)
Back transforming the eigenvectors                 ... done (   3.2 sec)
Now organizing SCF variables                       ... done
                      ------------------
                      INITIAL GUESS DONE (  24.6 sec)
                      ------------------
             **** ENERGY FILE WAS UPDATED (tddft.en.tmp) ****
Finished Guess after  33.6 sec
Maximum memory used throughout the entire GUESS-calculation: 206.4 MB


           ************************************************************
           *        Program running with 8 parallel MPI-processes     *
           *              working on a common directory               *
           ************************************************************

-------------------------------------------------------------------------------------------
                                      ORCA LEAN-SCF
                              memory conserving SCF solver
-------------------------------------------------------------------------------------------

--------------------
CPCM SOLVATION MODEL
--------------------
CPCM parameters:
  Epsilon                                         ...       2.3870
  Refrac                                          ...       1.4961
  Rsolv                                           ...       1.3000
  Surface type                                    ... GAUSSIAN VDW
  Discretization scheme                           ... Constant charge density
    Threshold for H atoms                         ...       5.0000 (charges/Ang^2)
    Threshold for non-H atoms                     ...       5.0000 (charges/Ang^2)
  Epsilon function type                           ...         CPCM
Solvent:                                          ... TOLUENE
Radii:
  Scheme                                          ... Element-dependent radii
  Radius for N  used is    3.5149 Bohr (=   1.8600 Ang.)
  Radius for H  used is    2.4944 Bohr (=   1.3200 Ang.)
  Radius for C  used is    3.8550 Bohr (=   2.0400 Ang.)
  Radius for Pd used is    3.6963 Bohr (=   1.9560 Ang.)
Calculating surface                               ...        done! (  0.1s)
Cavity surface points                             ...         6812
Cavity Volume                                     ...    4937.0056
Cavity Surface-area                               ...    2293.6117
Calculating surface distance matrix               ...        done! (  1.2s)
Performing Cholesky decomposition & store         ...        done! ( 13.5s)
Overall time for CPCM initialization              ...                14.7s

----------------------------------------D-I-I-S--------------------------------------------
Iteration    Energy (Eh)           Delta-E    RMSDP     MaxDP     DIISErr   Damp  Time(sec)
-------------------------------------------------------------------------------------------
               ***  Starting incremental Fock matrix formation  ***
    1    -2039.7868860136150033     0.00e+00  2.26e-03  9.90e-02  4.98e-01  0.700 586.4
    2    -2040.1191699680157399    -3.32e-01  1.83e-03  7.31e-02  3.46e-01  0.700 237.2
    3    -2040.3045446081987393    -1.85e-01  1.26e-03  5.54e-02  2.40e-01  0.700 204.2
                               ***Turning on AO-DIIS***
    4    -2040.4164102881213694    -1.12e-01  8.56e-04  4.42e-02  1.67e-01  0.700 229.9
    5    -2040.4910630107488032    -7.47e-02  5.95e-04  3.32e-02  1.18e-01  0.700 238.2
    6    -2040.5424010591614206    -5.13e-02  4.22e-04  2.41e-02  8.28e-02  0.700 251.0
    7    -2040.5781617077282135    -3.58e-02  1.00e-03  5.72e-02  5.81e-02  0.000 202.8
                              *** Initializing SOSCF ***
---------------------------------------S-O-S-C-F--------------------------------------
Iteration    Energy (Eh)           Delta-E    RMSDP     MaxDP     MaxGrad    Time(sec)
--------------------------------------------------------------------------------------
    8    -2040.6612330843463496    -8.31e-02  7.64e-05  2.14e-03  1.04e-03   234.3
               *** Restarting incremental Fock matrix formation ***
    9    -2040.6612658596277470    -3.28e-05  1.69e-04  4.19e-03  4.05e-04   584.2
   10    -2040.6612775113471798    -1.17e-05  8.84e-05  1.81e-03  2.09e-04   379.6
   11    -2040.6612820524178460    -4.54e-06  7.46e-05  1.65e-03  8.31e-05   355.2
   12    -2040.6612826172768109    -5.65e-07  2.29e-05  1.02e-03  2.23e-05   372.2
   13    -2040.6612827474227743    -1.30e-07  1.19e-05  3.46e-04  2.83e-05   327.2
   14    -2040.6612827852031842    -3.78e-08  2.00e-05  8.33e-04  8.68e-06   265.5
   15    -2040.6612827693788859     1.58e-08  1.29e-05  6.18e-04  7.44e-06   278.0
   16    -2040.6612827803419350    -1.10e-08  1.64e-05  6.82e-04  2.24e-06   255.7
                  *** Gradient check signals convergence ***

               *****************************************************
               *                     SUCCESS                       *
               *           SCF CONVERGED AFTER  16 CYCLES          *
               *****************************************************

Recomputing exchange energy using gridx3       ... done (  821.118 sec)
Old exchange energy                            :    -90.254203388 Eh
New exchange energy                            :    -90.254204997 Eh
Exchange energy change after final integration :     -0.000001609 Eh
Total energy after final integration           :  -2040.661284329 Eh
             **** ENERGY FILE WAS UPDATED (tddft.en.tmp) ****

----------------
TOTAL SCF ENERGY
----------------

Total Energy       :      -2040.66128432856885 Eh          -55529.21660 eV

Components:
Nuclear Repulsion  :       6002.74410811902089 Eh          163342.97138 eV
Electronic Energy  :      -8043.39321831987854 Eh         -218871.85670 eV
One Electron Energy:     -14771.43295815291822 Eh         -401951.12559 eV
Two Electron Energy:       6728.03973983303968 Eh          183079.26889 eV
CPCM Dielectric    :         -0.01217251900271 Eh              -0.33123 eV

Virial components:
Potential Energy   :      -3992.19717929109538 Eh         -108633.20805 eV
Kinetic Energy     :       1951.53589496252630 Eh           53103.99146 eV
Virial Ratio       :          2.04566935693886

DFT components:
N(Alpha)           :      168.999977759473 electrons
N(Beta)            :      168.999977759473 electrons
N(Total)           :      337.999955518945 electrons
E(XC)              :     -199.370899110565 Eh       

CPCM Solvation Model Properties:
Surface-charge          :         -0.04843036288686
Corrected charge        :          0.00000000000000
Outlying charge corr.   :          0.00005349500827 Eh               0.00146 eV
Free-energy (cav+disp)  :  This term is not implemented in the current solvation scheme

---------------
SCF CONVERGENCE
---------------

  Last Energy change         ...    1.0963e-08  Tolerance :   1.0000e-08
  Last MAX-Density change    ...    6.8176e-04  Tolerance :   1.0000e-07
  Last RMS-Density change    ...    1.6389e-05  Tolerance :   5.0000e-09
  Last DIIS Error            ...    1.0369e-03  Tolerance :   5.0000e-07
  Last Orbital Gradient      ...    2.2370e-06  Tolerance :   1.0000e-05
  Last Orbital Rotation      ...    2.1528e-06  Tolerance :   1.0000e-05


----------------
ORBITAL ENERGIES
----------------

  NO   OCC          E(Eh)            E(eV) 
   0   2.0000     -14.448045      -393.1513 
   1   2.0000     -14.448038      -393.1511 
   2   2.0000     -14.448019      -393.1506 
   3   2.0000     -14.448012      -393.1504 
   4   2.0000     -10.320516      -280.8355 
   5   2.0000     -10.320501      -280.8351 
   6   2.0000     -10.320479      -280.8345 
   7   2.0000     -10.320464      -280.8341 
   8   2.0000     -10.320419      -280.8329 
   9   2.0000     -10.320416      -280.8328 
  10   2.0000     -10.320403      -280.8325 
  11   2.0000     -10.320400      -280.8324 
  12   2.0000     -10.305879      -280.4372 
  13   2.0000     -10.305787      -280.4347 
  14   2.0000     -10.305750      -280.4337 
  15   2.0000     -10.305740      -280.4334 
  16   2.0000     -10.298199      -280.2283 
  17   2.0000     -10.298142      -280.2267 
  18   2.0000     -10.298112      -280.2259 
  19   2.0000     -10.298101      -280.2256 
  20   2.0000     -10.284413      -279.8531 
  21   2.0000     -10.284403      -279.8528 
  22   2.0000     -10.284397      -279.8527 
  23   2.0000     -10.284389      -279.8525 
  24   2.0000     -10.284370      -279.8519 
  25   2.0000     -10.284352      -279.8514 
  26   2.0000     -10.284350      -279.8514 
  27   2.0000     -10.284338      -279.8511 
  28   2.0000     -10.283931      -279.8400 
  29   2.0000     -10.283909      -279.8394 
  30   2.0000     -10.283907      -279.8393 
  31   2.0000     -10.283896      -279.8390 
  32   2.0000     -10.283765      -279.8355 
  33   2.0000     -10.283755      -279.8352 
  34   2.0000     -10.283751      -279.8351 
  35   2.0000     -10.283742      -279.8349 
  36   2.0000     -10.283221      -279.8207 
  37   2.0000     -10.283207      -279.8203 
  38   2.0000     -10.283203      -279.8202 
  39   2.0000     -10.283193      -279.8199 
  40   2.0000     -10.280620      -279.7499 
  41   2.0000     -10.280612      -279.7497 
  42   2.0000     -10.280594      -279.7492 
  43   2.0000     -10.280588      -279.7490 
  44   2.0000     -10.279850      -279.7289 
  45   2.0000     -10.279842      -279.7287 
  46   2.0000     -10.279824      -279.7282 
  47   2.0000     -10.279818      -279.7281 
  48   2.0000      -3.604400       -98.0807 
  49   2.0000      -2.294261       -62.4300 
  50   2.0000      -2.294260       -62.4300 
  51   2.0000      -2.255283       -61.3694 
  52   2.0000      -1.096715       -29.8431 
  53   2.0000      -1.086199       -29.5570 
  54   2.0000      -1.086192       -29.5568 
  55   2.0000      -1.077175       -29.3114 
  56   2.0000      -0.992765       -27.0145 
  57   2.0000      -0.988337       -26.8940 
  58   2.0000      -0.988308       -26.8932 
  59   2.0000      -0.986425       -26.8420 
  60   2.0000      -0.949180       -25.8285 
  61   2.0000      -0.930698       -25.3256 
  62   2.0000      -0.930683       -25.3252 
  63   2.0000      -0.911821       -24.8119 
  64   2.0000      -0.892083       -24.2748 
  65   2.0000      -0.891318       -24.2540 
  66   2.0000      -0.891312       -24.2538 
  67   2.0000      -0.887702       -24.1556 
  68   2.0000      -0.867233       -23.5986 
  69   2.0000      -0.867186       -23.5973 
  70   2.0000      -0.867167       -23.5968 
  71   2.0000      -0.867155       -23.5965 
  72   2.0000      -0.862250       -23.4630 
  73   2.0000      -0.855112       -23.2688 
  74   2.0000      -0.855094       -23.2683 
  75   2.0000      -0.839864       -22.8539 
  76   2.0000      -0.829274       -22.5657 
  77   2.0000      -0.777350       -21.1528 
  78   2.0000      -0.777328       -21.1522 
  79   2.0000      -0.734934       -19.9986 
  80   2.0000      -0.719780       -19.5862 
  81   2.0000      -0.719601       -19.5813 
  82   2.0000      -0.719513       -19.5790 
  83   2.0000      -0.719456       -19.5774 
  84   2.0000      -0.715651       -19.4739 
  85   2.0000      -0.715403       -19.4671 
  86   2.0000      -0.709064       -19.2946 
  87   2.0000      -0.707046       -19.2397 
  88   2.0000      -0.698519       -19.0077 
  89   2.0000      -0.675492       -18.3811 
  90   2.0000      -0.675462       -18.3802 
  91   2.0000      -0.665109       -18.0985 
  92   2.0000      -0.660335       -17.9686 
  93   2.0000      -0.659703       -17.9514 
  94   2.0000      -0.638126       -17.3643 
  95   2.0000      -0.637891       -17.3579 
  96   2.0000      -0.637856       -17.3570 
  97   2.0000      -0.629667       -17.1341 
  98   2.0000      -0.625192       -17.0123 
  99   2.0000      -0.625148       -17.0111 
 100   2.0000      -0.609731       -16.5916 
 101   2.0000      -0.597474       -16.2581 
 102   2.0000      -0.597356       -16.2549 
 103   2.0000      -0.567396       -15.4396 
 104   2.0000      -0.566515       -15.4156 
 105   2.0000      -0.563751       -15.3404 
 106   2.0000      -0.563691       -15.3388 
 107   2.0000      -0.560576       -15.2541 
 108   2.0000      -0.555132       -15.1059 
 109   2.0000      -0.555097       -15.1050 
 110   2.0000      -0.552670       -15.0389 
 111   2.0000      -0.551445       -15.0056 
 112   2.0000      -0.536470       -14.5981 
 113   2.0000      -0.530762       -14.4428 
 114   2.0000      -0.530755       -14.4426 
 115   2.0000      -0.526899       -14.3377 
 116   2.0000      -0.525944       -14.3117 
 117   2.0000      -0.523834       -14.2542 
 118   2.0000      -0.523798       -14.2533 
 119   2.0000      -0.521514       -14.1911 
 120   2.0000      -0.520727       -14.1697 
 121   2.0000      -0.520699       -14.1689 
 122   2.0000      -0.520693       -14.1688 
 123   2.0000      -0.516685       -14.0597 
 124   2.0000      -0.512343       -13.9416 
 125   2.0000      -0.506559       -13.7842 
 126   2.0000      -0.502846       -13.6831 
 127   2.0000      -0.502833       -13.6828 
 128   2.0000      -0.498531       -13.5657 
 129   2.0000      -0.497512       -13.5380 
 130   2.0000      -0.486997       -13.2519 
 131   2.0000      -0.479841       -13.0571 
 132   2.0000      -0.479830       -13.0568 
 133   2.0000      -0.477539       -12.9945 
 134   2.0000      -0.467685       -12.7264 
 135   2.0000      -0.467665       -12.7258 
 136   2.0000      -0.461893       -12.5687 
 137   2.0000      -0.454487       -12.3672 
 138   2.0000      -0.446105       -12.1391 
 139   2.0000      -0.445667       -12.1272 
 140   2.0000      -0.441451       -12.0125 
 141   2.0000      -0.441385       -12.0107 
 142   2.0000      -0.441271       -12.0076 
 143   2.0000      -0.441207       -12.0058 
 144   2.0000      -0.440100       -11.9757 
 145   2.0000      -0.438769       -11.9395 
 146   2.0000      -0.417594       -11.3633 
 147   2.0000      -0.414151       -11.2696 
 148   2.0000      -0.414039       -11.2666 
 149   2.0000      -0.405731       -11.0405 
 150   2.0000      -0.405691       -11.0394 
 151   2.0000      -0.394411       -10.7325 
 152   2.0000      -0.375731       -10.2242 
 153   2.0000      -0.375298       -10.2124 
 154   2.0000      -0.362068        -9.8524 
 155   2.0000      -0.352402        -9.5893 
 156   2.0000      -0.347888        -9.4665 
 157   2.0000      -0.347215        -9.4482 
 158   2.0000      -0.346139        -9.4189 
 159   2.0000      -0.345935        -9.4134 
 160   2.0000      -0.344368        -9.3707 
 161   2.0000      -0.343275        -9.3410 
 162   2.0000      -0.342977        -9.3329 
 163   2.0000      -0.341670        -9.2973 
 164   2.0000      -0.340780        -9.2731 
 165   2.0000      -0.319581        -8.6962 
 166   2.0000      -0.319556        -8.6956 
 167   2.0000      -0.262684        -7.1480 
 168   2.0000      -0.262676        -7.1478 
 169   0.0000      -0.041236        -1.1221 
 170   0.0000      -0.041134        -1.1193 
 171   0.0000       0.039849         1.0843 
 172   0.0000       0.039899         1.0857 
 173   0.0000       0.055662         1.5147 
 174   0.0000       0.056944         1.5495 
 175   0.0000       0.056981         1.5505 
 176   0.0000       0.057131         1.5546 
 177   0.0000       0.058388         1.5888 
 178   0.0000       0.058670         1.5965 
 179   0.0000       0.060048         1.6340 
*Only the first 10 virtual orbitals were printed.

                    ********************************
                    * MULLIKEN POPULATION ANALYSIS *
                    ********************************

-----------------------
MULLIKEN ATOMIC CHARGES
-----------------------
   0 N :   -0.292770
   1 H :    0.179554
   2 C :   -0.231854
   3 C :   -0.231305
   4 N :   -0.292882
   5 C :   -0.231338
   6 H :    0.179777
   7 C :    0.277544
   8 N :   -0.292898
   9 C :   -0.231048
  10 C :   -0.098892
  11 C :    0.275775
  12 N :   -0.292716
  13 C :   -0.231451
  14 C :    0.277401
  15 C :    0.278920
  16 C :    0.278137
  17 C :    0.279709
  18 C :   -0.231496
  19 C :   -0.096074
  20 C :   -0.099186
  21 C :   -0.231576
  22 C :    0.277421
  23 C :   -0.232377
  24 C :   -0.089614
  25 C :    0.276554
  26 H :    0.179378
  27 H :    0.179644
  28 H :    0.179400
  29 H :    0.180086
  30 H :    0.179901
  31 H :    0.179613
  32 Pd:    0.274330
  33 C :   -0.066482
  34 C :   -0.178120
  35 C :   -0.165648
  36 C :   -0.111218
  37 C :   -0.165719
  38 C :   -0.178059
  39 H :    0.151240
  40 H :    0.143399
  41 H :    0.145751
  42 H :    0.143534
  43 H :    0.151393
  44 C :   -0.061368
  45 C :   -0.183356
  46 C :   -0.163050
  47 C :   -0.112855
  48 C :   -0.163280
  49 C :   -0.183603
  50 H :    0.151575
  51 H :    0.143585
  52 H :    0.145787
  53 H :    0.143601
  54 H :    0.151579
  55 C :   -0.065166
  56 C :   -0.179032
  57 C :   -0.165395
  58 C :   -0.111287
  59 C :   -0.165441
  60 C :   -0.179029
  61 H :    0.151513
  62 H :    0.143577
  63 H :    0.145754
  64 H :    0.143408
  65 H :    0.151270
  66 C :   -0.057400
  67 C :   -0.189626
  68 C :   -0.160388
  69 C :   -0.114570
  70 C :   -0.160118
  71 C :   -0.189208
  72 H :    0.151837
  73 H :    0.143688
  74 H :    0.145807
  75 H :    0.143655
  76 H :    0.151799
Sum of atomic charges:   -0.0000000

--------------------------------
MULLIKEN REDUCED ORBITAL CHARGES
--------------------------------
  0 N s       :     3.581107  s :     3.581107
      pz      :     1.377791  p :     3.626392
      px      :     1.180637
      py      :     1.067964
      dz2     :     0.005662  d :     0.081099
      dxz     :     0.012045
      dyz     :     0.015333
      dx2y2   :     0.022731
      dxy     :     0.025328
      f0      :     0.000745  f :     0.004173
      f+1     :     0.000462
      f-1     :     0.000474
      f+2     :     0.000232
      f-2     :     0.000609
      f+3     :     0.000613
      f-3     :     0.001036

  1 H s       :     0.797952  s :     0.797952
      pz      :     0.004546  p :     0.022493
      px      :     0.008714
      py      :     0.009233

  2 C s       :     3.235262  s :     3.235262
      pz      :     0.985434  p :     2.904128
      px      :     0.933457
      py      :     0.985237
      dz2     :     0.005448  d :     0.084714
      dxz     :     0.009484
      dyz     :     0.019871
      dx2y2   :     0.019191
      dxy     :     0.030720
      f0      :     0.001524  f :     0.007751
      f+1     :     0.000782
      f-1     :     0.000663
      f+2     :     0.000934
      f-2     :     0.000429
      f+3     :     0.002253
      f-3     :     0.001166

  3 C s       :     3.234194  s :     3.234194
      pz      :     0.985890  p :     2.904634
      px      :     0.984056
      py      :     0.934688
      dz2     :     0.005056  d :     0.084725
      dxz     :     0.020444
      dyz     :     0.009348
      dx2y2   :     0.019127
      dxy     :     0.030750
      f0      :     0.001562  f :     0.007752
      f+1     :     0.000580
      f-1     :     0.000793
      f+2     :     0.000978
      f-2     :     0.000428
      f+3     :     0.001144
      f-3     :     0.002266

  4 N s       :     3.581096  s :     3.581096
      pz      :     1.378654  p :     3.626517
      px      :     1.065473
      py      :     1.182390
      dz2     :     0.005582  d :     0.081097
      dxz     :     0.015586
      dyz     :     0.011865
      dx2y2   :     0.022713
      dxy     :     0.025352
      f0      :     0.000751  f :     0.004172
      f+1     :     0.000463
      f-1     :     0.000469
      f+2     :     0.000229
      f-2     :     0.000608
      f+3     :     0.001042
      f-3     :     0.000612

  5 C s       :     3.234581  s :     3.234581
      pz      :     0.986336  p :     2.904267
      px      :     0.999987
      py      :     0.917944
      dz2     :     0.005218  d :     0.084738
      dxz     :     0.018244
      dyz     :     0.011355
      dx2y2   :     0.021056
      dxy     :     0.028864
      f0      :     0.001552  f :     0.007752
      f+1     :     0.000625
      f-1     :     0.000770
      f+2     :     0.001256
      f-2     :     0.000133
      f+3     :     0.001250
      f-3     :     0.002166

  6 H s       :     0.797714  s :     0.797714
      pz      :     0.004604  p :     0.022509
      px      :     0.006947
      py      :     0.010958

  7 C s       :     3.123267  s :     3.123267
      pz      :     0.933366  p :     2.423597
      px      :     0.801165
      py      :     0.689066
      dz2     :     0.003464  d :     0.160749
      dxz     :     0.029524
      dyz     :     0.036783
      dx2y2   :     0.045599
      dxy     :     0.045378
      f0      :     0.002286  f :     0.014844
      f+1     :     0.000983
      f-1     :     0.001153
      f+2     :     0.000723
      f-2     :     0.002348
      f+3     :     0.003625
      f-3     :     0.003727

  8 N s       :     3.581141  s :     3.581141
      pz      :     1.378961  p :     3.626486
      px      :     1.065421
      py      :     1.182104
      dz2     :     0.005593  d :     0.081098
      dxz     :     0.015603
      dyz     :     0.011864
      dx2y2   :     0.022706
      dxy     :     0.025332
      f0      :     0.000749  f :     0.004172
      f+1     :     0.000464
      f-1     :     0.000470
      f+2     :     0.000230
      f-2     :     0.000607
      f+3     :     0.001041
      f-3     :     0.000611

  9 C s       :     3.233865  s :     3.233865
      pz      :     0.985826  p :     2.904722
      px      :     1.000511
      py      :     0.918384
      dz2     :     0.005293  d :     0.084709
      dxz     :     0.018259
      dyz     :     0.011292
      dx2y2   :     0.021032
      dxy     :     0.028834
      f0      :     0.001542  f :     0.007752
      f+1     :     0.000621
      f-1     :     0.000780
      f+2     :     0.001258
      f-2     :     0.000141
      f+3     :     0.001246
      f-3     :     0.002163

 10 C s       :     3.436157  s :     3.436157
      pz      :     0.967577  p :     2.527157
      px      :     0.763522
[...]
  0-1A  -> 16-1A    4.542025   36633.9   273.0   0.000000001   0.00000  -0.00001   0.00001  -0.00001
  0-1A  -> 17-1A    4.658013   37569.4   266.2   0.038209768   0.00981   0.06408  -0.07527   0.00633
  0-1A  -> 18-1A    4.658793   37575.7   266.1   0.038640181   0.00992  -0.07585  -0.06415   0.00735
  0-1A  -> 19-1A    5.075319   40935.2   244.3   0.000005018   0.00000  -0.00042   0.00058   0.00094
  0-1A  -> 20-1A    5.109171   41208.2   242.7   0.000149426   0.00004  -0.00459  -0.00454   0.00065
  0-1A  -> 21-1A    5.201481   41952.8   238.4   0.002543656   0.00073   0.01446   0.02268  -0.00236
  0-1A  -> 22-1A    5.211694   42035.2   237.9   0.002174614   0.00062   0.02149  -0.01275   0.00068
  0-1A  -> 23-1A    5.218970   42093.8   237.6   0.002239900   0.00064   0.01455   0.02069  -0.00221
  0-1A  -> 24-1A    5.247266   42322.1   236.3   0.005330014   0.00154   0.02655   0.02875  -0.00315
  0-1A  -> 25-1A    5.358115   43216.1   231.4   0.071950985   0.02125  -0.11343   0.09141  -0.00549
  0-1A  -> 26-1A    5.359723   43229.1   231.3   0.071440807   0.02111   0.09077   0.11280  -0.01208
  0-1A  -> 27-1A    5.364690   43269.1   231.1   0.003935058   0.00116  -0.02711   0.02062  -0.00192
  0-1A  -> 28-1A    5.434216   43829.9   228.2   0.000805798   0.00024   0.00423  -0.00519  -0.01402
  0-1A  -> 29-1A    5.439180   43869.9   227.9   0.000105443   0.00003  -0.00170   0.00037  -0.00535
  0-1A  -> 30-1A    5.444870   43915.8   227.7   0.000028575   0.00001   0.00197   0.00205  -0.00073

------------------------------------------------------------------------------------------
                     CD SPECTRUM VIA TRANSITION ELECTRIC DIPOLE MOMENTS    
------------------------------------------------------------------------------------------
     Transition      Energy     Energy  Wavelength    R        MX        MY        MZ   
                      (eV)      (cm-1)    (nm)   (1e40*cgs)   (au)      (au)      (au)  
------------------------------------------------------------------------------------------
  0-1A  ->  1-1A    2.505400   20207.4   494.9    0.08035   0.00118   0.00056  -0.00011
  0-1A  ->  2-1A    2.505717   20210.0   494.8   -0.21297   0.00189  -0.00176   0.00055
  0-1A  ->  3-1A    3.633627   29307.2   341.2  -19.33642  -0.00535  -0.00542  -0.00040
  0-1A  ->  4-1A    3.635496   29322.3   341.0   11.32720  -0.00337   0.00285  -0.00041
  0-1A  ->  5-1A    3.648373   29426.1   339.8   -0.41292   0.01739   0.10853   1.12710
  0-1A  ->  6-1A    3.685640   29726.7   336.4    0.01542   0.00372  -0.00295   0.00251
  0-1A  ->  7-1A    3.738568   30153.6   331.6   -0.05689   0.00665   0.00839  -0.00333
  0-1A  ->  8-1A    3.913946   31568.1   316.8   -0.49758  -0.00418  -0.00371  -0.00000
  0-1A  ->  9-1A    3.937056   31754.5   314.9   -0.02862   0.34098   0.04132   0.00642
  0-1A  -> 10-1A    3.938139   31763.2   314.8    0.31502  -0.04083   0.33711  -0.05345
  0-1A  -> 11-1A    4.058084   32730.7   305.5   -0.00819  -0.01152   0.00841  -0.00044
  0-1A  -> 12-1A    4.178277   33700.1   296.7   -0.00909  -0.00051  -0.00098  -0.01316
  0-1A  -> 13-1A    4.220353   34039.4   293.8    0.02035  -0.01635  -0.01574   0.00166
  0-1A  -> 14-1A    4.220488   34040.5   293.8    0.01187  -0.01609   0.01629  -0.00132
  0-1A  -> 15-1A    4.302871   34705.0   288.1   -0.00041   0.00009  -0.00014   0.00555
  0-1A  -> 16-1A    4.542025   36633.9   273.0   -0.02274   0.01911   0.06680   0.75615
  0-1A  -> 17-1A    4.658013   37569.4   266.2    2.20155   0.00303  -0.00227   0.00073
  0-1A  -> 18-1A    4.658793   37575.7   266.1   -1.80976   0.00184   0.00252  -0.00045
  0-1A  -> 19-1A    5.075319   40935.2   244.3   -0.01658   0.00837  -0.00611   0.00068
  0-1A  -> 20-1A    5.109171   41208.2   242.7   -0.32945   0.01243   0.01565  -0.00214
  0-1A  -> 21-1A    5.201481   41952.8   238.4   -2.12776  -0.02193  -0.01908   0.00145
  0-1A  -> 22-1A    5.211694   42035.2   237.9    3.06245   0.03277  -0.02562   0.03182
  0-1A  -> 23-1A    5.218970   42093.8   237.6    1.83346   0.01443   0.02057  -0.00524
  0-1A  -> 24-1A    5.247266   42322.1   236.3   -0.74130  -0.00404  -0.00448   0.00176
  0-1A  -> 25-1A    5.358115   43216.1   231.4   -5.71965   0.00796   0.00495   0.10634
  0-1A  -> 26-1A    5.359723   43229.1   231.3    4.15382   0.00287   0.00396  -0.00264
  0-1A  -> 27-1A    5.364690   43269.1   231.1   -2.35504  -0.01758  -0.03309  -0.44346
  0-1A  -> 28-1A    5.434216   43829.9   228.2   -1.93532  -0.00273  -0.00136  -0.03792
  0-1A  -> 29-1A    5.439180   43869.9   227.9    0.00154   0.00525  -0.00442  -0.00099
  0-1A  -> 30-1A    5.444870   43915.8   227.7   -0.12077  -0.01468  -0.01622   0.00380

------------------------------------------------------------------------------------------
                     CD SPECTRUM VIA TRANSITION VELOCITY DIPOLE MOMENTS    
------------------------------------------------------------------------------------------
     Transition      Energy     Energy  Wavelength    R        MX        MY        MZ   
                      (eV)      (cm-1)    (nm)   (1e40*cgs)   (au)      (au)      (au)  
------------------------------------------------------------------------------------------
  0-1A  ->  1-1A    2.505400   20207.4   494.9   -0.23073   0.00118   0.00056  -0.00011
  0-1A  ->  2-1A    2.505717   20210.0   494.8    0.52681   0.00189  -0.00176   0.00055
  0-1A  ->  3-1A    3.633627   29307.2   341.2   -6.58464  -0.00535  -0.00542  -0.00040
  0-1A  ->  4-1A    3.635496   29322.3   341.0    3.84368  -0.00337   0.00285  -0.00041
  0-1A  ->  5-1A    3.648373   29426.1   339.8   -0.27876   0.01739   0.10853   1.12710
  0-1A  ->  6-1A    3.685640   29726.7   336.4    0.00665   0.00372  -0.00295   0.00251
  0-1A  ->  7-1A    3.738568   30153.6   331.6   -0.02212   0.00665   0.00839  -0.00333
  0-1A  ->  8-1A    3.913946   31568.1   316.8   -0.20529  -0.00418  -0.00371  -0.00000
  0-1A  ->  9-1A    3.937056   31754.5   314.9   -0.01687   0.34098   0.04132   0.00642
  0-1A  -> 10-1A    3.938139   31763.2   314.8    0.14255  -0.04083   0.33711  -0.05345
  0-1A  -> 11-1A    4.058084   32730.7   305.5   -0.00322  -0.01152   0.00841  -0.00044
  0-1A  -> 12-1A    4.178277   33700.1   296.7   -0.00602  -0.00051  -0.00098  -0.01316
  0-1A  -> 13-1A    4.220353   34039.4   293.8    0.00781  -0.01635  -0.01574   0.00166
  0-1A  -> 14-1A    4.220488   34040.5   293.8    0.00681  -0.01609   0.01629  -0.00132
  0-1A  -> 15-1A    4.302871   34705.0   288.1    0.00038   0.00009  -0.00014   0.00555
  0-1A  -> 16-1A    4.542025   36633.9   273.0   -0.02621   0.01911   0.06680   0.75615
  0-1A  -> 17-1A    4.658013   37569.4   266.2    1.01900   0.00303  -0.00227   0.00073
  0-1A  -> 18-1A    4.658793   37575.7   266.1   -0.83833   0.00184   0.00252  -0.00045
  0-1A  -> 19-1A    5.075319   40935.2   244.3   -0.01634   0.00837  -0.00611   0.00068
  0-1A  -> 20-1A    5.109171   41208.2   242.7   -0.32502   0.01243   0.01565  -0.00214
  0-1A  -> 21-1A    5.201481   41952.8   238.4   -1.85812  -0.02193  -0.01908   0.00145
  0-1A  -> 22-1A    5.211694   42035.2   237.9    2.59105   0.03277  -0.02562   0.03182
  0-1A  -> 23-1A    5.218970   42093.8   237.6    1.59027   0.01443   0.02057  -0.00524
  0-1A  -> 24-1A    5.247266   42322.1   236.3   -0.59052  -0.00404  -0.00448   0.00176
  0-1A  -> 25-1A    5.358115   43216.1   231.4   -2.47408   0.00796   0.00495   0.10634
  0-1A  -> 26-1A    5.359723   43229.1   231.3    1.76923   0.00287   0.00396  -0.00264
  0-1A  -> 27-1A    5.364690   43269.1   231.1    1.53917  -0.01758  -0.03309  -0.44346
  0-1A  -> 28-1A    5.434216   43829.9   228.2    1.24445  -0.00273  -0.00136  -0.03792
  0-1A  -> 29-1A    5.439180   43869.9   227.9   -0.01254   0.00525  -0.00442  -0.00099
  0-1A  -> 30-1A    5.444870   43915.8   227.7   -0.15267  -0.01468  -0.01622   0.00380

Total run time:    42390.582 sec

           *** ORCA-CIS/TD-DFT FINISHED WITHOUT ERROR ***
-----------------------
CIS/TD-DFT TOTAL ENERGY
-----------------------

    E(SCF)  =  -2040.661284329 Eh
    DE(CIS) =      0.092071761 Eh (Root  1)
    ----------------------------- ---------
    E(tot)  =  -2040.569212568 Eh


Maximum memory used throughout the entire CIS-calculation: 2439.5 MB
=> NOW LEAVING ORCA_CIS


-------------------------------------------------------------------------------
                          DFT DISPERSION CORRECTION                            
                                                                               
                              DFTD3 V3.1  Rev 1                                
                              USING zero damping                               
-------------------------------------------------------------------------------
The omegaB97X-D3 functional is recognized. Fit by Chai et al.
Active option DFTDOPT                   ...         3   

molecular C6(AA) [au] = 89186.134781 


            DFT-D V3
 parameters
 s6 scaling factor         :     1.0000 
 rs6 scaling factor        :     1.2810 
 s8 scaling factor         :     1.0000 
 rs8 scaling factor        :     1.0940 
 Damping factor alpha6     :    14.0000 
 Damping factor alpha8     :    16.0000 
 ad hoc parameters k1-k3   :    16.0000     1.3333    -4.0000 

 Edisp/kcal,au: -29.591853879625  -0.047157615855 
 E6   /kcal   : -14.431720127 
 E8   /kcal   : -15.160133753 
 % E8         :  51.230767138 

-------------------------   ----------------
Dispersion correction           -0.047157616
-------------------------   ----------------


-------------------------   --------------------
FINAL SINGLE POINT ENERGY     -2040.616370183416
-------------------------   --------------------



           ************************************************************
           *        Program running with 8 parallel MPI-processes     *
           *              working on a common directory               *
           ************************************************************

------------------------------------------------------------------------------
                              ORCA PROPERTY CALCULATIONS
------------------------------------------------------------------------------

GBWName                                 ... tddft.gbw
Number of atoms                         ...     77
Number of basis functions               ...   1696
Max core memory                         ...   3000 MB

Electric properties:
Dipole moment                           ... YES
Quadrupole moment                       ...  NO
Static polarizability (Dipole/Dipole)   ...  NO
Static polarizability (Dipole/Quad.)    ...  NO
Static polarizability (Quad./Quad.)     ...  NO
Static polarizability (Velocity)        ...  NO
Static hyperpolarizability              ...  NO

Atomic electric properties:
Dipole moment                           ...  NO
Quadrupole moment                       ...  NO
Static polarizability                   ...  NO

Choice of electric origin               ... Center of mass
Position of electric origin             ...    -0.159753     5.088910     6.548211

General magnetic properties:
Magnetizability                         ...  NO

EPR properties:
g-Tensor (aka g-matrix)                 ...  NO
Zero-Field splitting spin-orbit         ...  NO
Zero-field splitting spin-spin          ...  NO
Hyperfine couplings                     ...  NO (   0 nuclei)
Quadrupole couplings                    ...  NO (   0 nuclei)
Contact density                         ...  NO (   0 nuclei)

NMR properties:
Chemical shifts                         ...  NO (   0 nuclei)
Spin-rotation constants                 ...  NO (   0 nuclei)
Spin-spin couplings                     ...  NO (   0 nuclei,    0 pairs)

Choice of magnetic origin               ... GIAO
Position of magnetic origin             ...     0.000000     0.000000     0.000000

Properties with geometric perturbations:
SCF Hessian                             ...  NO
IR spectrum                             ...  NO
VCD spectrum                            ...  NO
X-ray spectroscopy properties:
SCF XES/XAS/RIXS spectra                ...  NO

SCF SOC stabilization energy            ...  NO
Diagonal Born-Oppenheimer correction    ...  NO

-------------
DIPOLE MOMENT
-------------

Method             : SCF
Type of density    : Electron Density
Multiplicity       :   1
Irrep              :   0
Energy             : -2040.6612843285688541 Eh
Basis              : AO
                                X                 Y                 Z
Electronic contribution:     -0.004880633      -0.000912957       0.039625612
Nuclear contribution   :      0.005433271       0.002089139      -0.040561520
                        -----------------------------------------
Total Dipole Moment    :      0.000552637       0.001176182      -0.000935908
                        -----------------------------------------
Magnitude (a.u.)       :      0.001601479
Magnitude (Debye)      :      0.004070636



--------------------
Rotational spectrum 
--------------------
 
Rotational constants in cm-1:             0.001953             0.001952             0.001017 
Rotational constants in MHz :            58.536381            58.523332            30.495208 

Dipole components along the rotational axes: 
x,y,z [a.u.] :     0.000681     0.001200    -0.000813 
x,y,z [Debye]:     0.001731     0.003049    -0.002068 

 

Dipole moment calculation done in   0.3 sec 

Maximum memory used throughout the entire PROP-calculation: 233.3 MB

--------------------------------
SUGGESTED CITATIONS FOR THIS RUN
--------------------------------

Below you find a list of papers that are relevant to this ORCA run
We neither can nor want to force you to cite these papers, but we appreciate if you do
You receive ORCA, which is the product of decades of hard work by many enthusiastic individuals, for free
The only thing we kindly ask in return is that you cite our papers,
We deeply appreciate it, if you show your appreciation for ORCA by not just citing the generic ORCA reference.

Please note that relegating all ORCA citations to the supporting information does *not* help us.
SI sections are not indexed - citations you put there will not count into any citation statistics
But we need these citations in order to attract the funding resources that allow us to do what we are doing

Therefore, if you are a happy ORCA user, please consider citing a few of the papers listed below in the main body of your paper

In addition to the list printed below, the program has created the file tddft.bibtex that contains the list in bibtex format
You can import this file easily into all common literature databanks and citation aid programs

It goes without saying that in many instances, there are alternative algorithms to achieve similar
results as the ones you have gotten from ORCA. It is, of course, also the case that in some instances
ORCA just re-implements algorithms worked out by others. We are fully aware of that and we are also
fully appreciative of our colleagues work. Hence this citation list should not be read as indicating
that the listed papers, which are focused on our own work, are the only ones worth citing. It simply
meant to make it easier for users to cite ORCA specific papers. It is not a substitute for doing your
own literature research and citing the relevant literature in a scientifically appropriate manner.

List of essential papers. We consider these as the minimum necessary citations

  1. Neese, F.
     Software update: the ORCA program system, version 6.0
     WIRES Comput. Molec. Sci. 2025 15(1), e70019
     doi.org/10.1002/wcms.70019

List of papers to cite with high priority. The work reported in these papers was absolutely
necessary for this run to complete.
Our perspective: the developers of density functionals and basis sets usually get cited in chemistry papers
Good! But without the algorithms to do something with them, the functionals or basis sets would not do anything.
Hence, in our opinion, the algorithm design and method developments papers are equally worthy of getting cited

  1. Neese, F.; Olbrich, G.
     Efficient use of the resolution of the identity approximation in time-dependent density functional calculations with hybrid density functionals
     Chem. Phys. Lett. 2002 362 , 170-178
     doi.org/10.1016/s0009-2614(02)01053-9
  2. Neese, F.
     An improvement of the resolution of the identity approximation for the formation of the Coulomb matrix
     J. Comp. Chem. 2003 24(14), 1740-1747
     doi.org/10.1002/jcc.10318
  3. Neese, F.; Wennmohs, F.; Hansen, A.; Becker, U.
     Efficient, approximate and parallel Hartree-Fock and hybrid DFT calculations. A 'chain-of-spheres' algorithm for the Hartree-Fock exchange
     Chem. Phys. 2009 356(1-3), 98-109
     doi.org/10.1016/j.chemphys.2008.10.036
  4. Grimme, S.; Antony, J.; Ehrlich, S.; Krieg, H.
     A consistent and accurate ab initio parametrization of density functional dispersion correction (DFT-D) for the 94 elements H-Pu
     J. Chem. Phys. 2010 132 , 154104
     doi.org/10.1063/1.3382344
  5. Garcia-Rates, M.; Neese, F.
     Effect of the Solute Cavity on the Solvation Energy and its Derivatives within the Framework of the Gaussian Charge Scheme
     J. Comput. Chem. 2020 41 , 922-939
     doi.org/10.1002/jcc.26139
  6. Helmich-Paris, B.; de Souza, B.; Neese, F.; Izsák, R.
     An improved chain of spheres for exchange algorithm
     J. Chem. Phys. 2021 155(10), 104109
     doi.org/10.1063/5.0058766
  7. Neese, F.
     The SHARK Integral Generation and Digestion System
     J. Comp. Chem. 2022 44(3), 381
     doi.org/10.1002/jcc.26942

List of suggested additional citations. These are papers that are important in the 'surrounding' of 
of this run, or papers that preceded the highly important papers. If you like your results we are grateful for a citation.

  1. Izsak, R.; Neese, F.
     An overlap fitted chain of spheres exchange method
     J. Chem. Phys. 2011 135 , 144105
     doi.org/10.1063/1.3646921
  2. Izsak, R.; Hansen, A.; Neese, F.
     The resolution of identity and chain of spheres approximations for the LPNO-CCSD singles Fock term
     Molec. Phys. 2012 110 , 2413-2417
     doi.org/10.1080/00268976.2012.687466
  3. Neese, F.
     The ORCA program system
     WIRES Comput. Molec. Sci. 2012 2(1), 73-78
     doi.org/10.1002/wcms.81
  4. Izsak, R.; Neese, F.; Klopper, W.
     Robust fitting techniques in the chain of spheres approximation to the Fock exchange: The role of the complementary space
     J. Chem. Phys. 2013 139 , 
     doi.org/10.1063/1.4819264
  5. Neese, F.
     Software update: the ORCA program system, version 4.0
     WIRES Comput. Molec. Sci. 2018 8(1), 1-6
     doi.org/10.1002/wcms.1327
  6. Neese, F.; Wennmohs, F.; Becker, U.; Riplinger, C.
     The ORCA quantum chemistry program package
     J. Chem. Phys. 2020 152(22), 224108
     doi.org/10.1063/5.0004608
  7. Neese, F.
     Software update: The ORCA program system—Version 5.0
     WIRES Comput. Molec. Sci. 2022 12(1), e1606
     doi.org/10.1002/wcms.1606

List of optional additional citations

  1. Neese, F.
     Approximate second-order SCF convergence for spin unrestricted wavefunctions
     Chem. Phys. Lett. 2000 325(1-3), 93-98
     doi.org/10.1016/s0009-2614(00)00662-x

Timings for individual modules:

Sum of individual times          ...    48634.883 sec (= 810.581 min)
Startup calculation              ...       77.242 sec (=   1.287 min)   0.2 %
SCF iterations                   ...     6150.862 sec (= 102.514 min)  12.6 %
Property integrals               ...        9.953 sec (=   0.166 min)   0.0 %
Property calculations            ...        4.240 sec (=   0.071 min)   0.0 %
CIS module                       ...    42392.585 sec (= 706.543 min)  87.2 %
                             ****ORCA TERMINATED NORMALLY****
TOTAL RUN TIME: 0 days 13 hours 30 minutes 37 seconds 40 msec
