
                                 *****************
                                 * O   R   C   A *
                                 *****************

                                            #,                                       
                                            ###                                      
                                            ####                                     
                                            #####                                    
                                            ######                                   
                                           ########,                                 
                                     ,,################,,,,,                         
                               ,,#################################,,                 
                          ,,##########################################,,             
                       ,#########################################, ''#####,          
                    ,#############################################,,   '####,        
                  ,##################################################,,,,####,       
                ,###########''''           ''''###############################       
              ,#####''   ,,,,##########,,,,          '''####'''          '####       
            ,##' ,,,,###########################,,,                        '##       
           ' ,,###''''                  '''############,,,                           
         ,,##''                                '''############,,,,        ,,,,,,###''
      ,#''                                            '''#######################'''  
     '                                                          ''''####''''         
             ,#######,   #######,   ,#######,      ##                                
            ,#'     '#,  ##    ##  ,#'     '#,    #''#        ,####,    ,#,          
            ##       ##  ##   ,#'  ##            #'  '#       #'       ,# #          
            ##       ##  #######   ##           ,######,      #####,      #          
            '#,     ,#'  ##    ##  '#,     ,#' ,#      #,     #,   #      #          
             '#######'   ##     ##  '#######'  #'      '#     '####' #    #          



                #########################################################
                #                        -***-                          #
                #          Department of theory and spectroscopy        #
                #                                                       #
                #                      Frank Neese                      #
                #                                                       #
                #     Directorship, Architecture, Infrastructure        #
                #                    SHARK, DRIVERS                     #
                #        Core code/Algorithms in most modules           #
                #                                                       #
                #        Max Planck Institute fuer Kohlenforschung      #
                #                Kaiser Wilhelm Platz 1                 #
                #                 D-45470 Muelheim/Ruhr                 #
                #                      Germany                          #
                #                                                       #
                #                  All rights reserved                  #
                #                        -***-                          #
                #########################################################


                         Program Version 6.1.1  -  RELEASE   -
                                (GIT: $487d211c$)
                          ($2025-11-21 10:33:24 +0100$)


 With contributions from (in alphabetic order):
[Max-Planck-Institut fuer Kohlenforschung]                               
  Daniel Aravena         : Magnetic Suceptibility                        
  Michael Atanasov       : Ab Initio Ligand Field Theory (pilot matlab implementation)
  Alexander A. Auer      : GIAO ZORA, VPT2 properties, NMR spectrum      
  Ute Becker             : All parallelization in ORCA, NUMFREQ, NUMCALC 
  Giovanni Bistoni       : ED, misc. LED, open-shell LED, HFLD           
  Dmytro Bykov           : pre 5.0 version of the SCF Hessian            
  Marcos Casanova-Páez   : Triplet and SCS-CIS(D). UHF-(DLPNO)-IP/EA/STEOM-CCSD. UHF-CVS-IP/STEOM-CCSD   
  Vijay G. Chilkuri      : MRCI spin determinant printing, contributions to CSF-ICE 
  Pauline Colinet        : FMM embedding                                 
  Dipayan Datta          : RHF DLPNO-CCSD density                        
  Achintya Kumar Dutta   : EOM-CC, STEOM-CC                              
  Nicolas Foglia         : Exact transition moments, OPA infrastructure, MCD improvements    
  Dmitry Ganyushin       : Spin-Orbit,Spin-Spin,Magnetic field MRCI      
  Miquel Garcia-Rates    : C-PCM and meta-GGA Hessian, CCSD/C-PCM, Gaussian charge scheme 
  Tiago L. C. Gouveia    : GS-ROHF, GS-ROCIS                             
  Yang Guo               : DLPNO-NEVPT2, F12-NEVPT2, CIM, IAO-localization        
  Andreas Hansen         : Spin unrestricted coupled pair/coupled cluster methods 
  Ingolf Harden          : AUTO-CI MPn and infrastructure                
  Benjamin Helmich-Paris : MC-RPA, TRAH-(SCF,CASSCF), AVAS, COSX integrals, SCF dyn. polar., MC-PDFT, srDFT 
  Lee Huntington         : MR-EOM, pCC                                   
  Robert Izsak           : Overlap fitted RIJCOSX, COSX-SCS-MP3, EOM     
  Riya Kayal             : Wick's Theorem for AUTO-CI, AUTO-CI UHF-CCSDT 
  Emily Kempfer          : AUTO-CI RHF CISDT and CCSDT, approximate NEVPT4
  Christian Kollmar      : KDIIS, OOCD, Brueckner-CCSD(T), CCSD density, CASPT2, CASPT2-K, improved NEVPT2 
  Axel Koslowski         : Symmetry handling                             
  Simone Kossmann        : meta-GGA functionals, TD-DFT gradient, OOMP2, (MP2 Hessian; deprecated post 5.0) 
  Lucas Lang             : DCDCAS, Hyperfine gauge corrections, ICE-SOC+SSC
  Marvin Lechner         : AUTO-CI (C++ implementation), FIC-MRCC        
  Spencer Leger          : CASSCF response                               
  Dagmar Lenk            : GEPOL surface, SMD, ORCA-2-JSON               
  Dimitrios Liakos       : Extrapolation schemes; Compound Job, Property file
  Dimitrios Manganas     : Further ROCIS development; embedding schemes. LFT, Crystal Embedding 
  Dimitrios Pantazis     : SARC Basis sets                               
  Anastasios Papadopoulos: AUTO-CI, single reference methods and gradients 
  Taras Petrenko         : pre 6.0 DFT Hessian and TD-DFT gradient,  ECA, NRVS 
  Petra Pikulova         : Analytic Raman intensities                    
  Peter Pinski           : DLPNO-MP2, DLPNO-MP2 Gradient                 
  Shashank Vittal Rao    : ES-AILFT, MagRelax                            
  Christoph Reimann      : Effective Core Potentials                     
  Marius Retegan         : Local ZFS, SOC                                
  Christoph Riplinger    : Optimizer, TS searches, QM/MM, DLPNO-CCSD(T), (RO)-DLPNO pert. Triples 
  Michael Roemelt        : Original ROCIS implementation, recursive CI coupling coefficients
  Masaaki Saitow         : Open-shell DLPNO-CCSD energy and density      
  Barbara Sandhoefer     : DKH picture change effects                    
  Yorick L. A. Schmerwitz: GMF and freeze-and-release deltaSCF, NEB S-IDPP initial path                    
  Kantharuban Sivalingam : CASSCF convergence/infrastructure, NEVPT2, NEVPT3, NEVPT4(SD), FIC-MRCI and CEPA variants
  Bernardo de Souza      : ESD, SOC TD-DFT                               
  Georgi L. Stoychev     : AutoAux, RI-MP2 NMR, DLPNO-MP2 response, X2C  
  Van Anh Tran           : RI-MP2 g-tensors                              
  Willem Van den Heuvel  : Paramagnetic NMR                              
  Zikuan Wang            : NOTCH, Electric field optimization            
  Frank Wennmohs         : Technical directorship and infrastructure     
  Hang Xu                : AUTO-CI-Response properties                   
                                                                         
[FACCTs GmbH]                                                            
  Markus Bursch, Nicolas Foglia, Miquel Garcia-Rates, Ingolf Harden, Hagen Neugebauer, Anastasios Papadopoulos, 
  Christoph Riplinger, Bernardo de Souza, Georgi L. Stoychev                                                    
                                                                 
  APM, various basis sets, CI-OPT, improved COSX, DLPNO-Multilevel,           
  DOCKER, DRACO, updates on ESD, Fragmentator, GOAT, IRC, LR-CPCM, L-BFGS, MBIS, meta-GGA TD-DFT gradient, ML-optimized integration grids, 
  MM, NACMEs, nearIR, NEB, NEB-TS, NL-DFT gradient (VV10), 2- and 3-layer-ONIOM, interface openCOSMO-RS, QMMM,   
  Crystal-QMMM, RESP, rigid body optimization, SF, symmetry and pop. for TD-DFT, various functionals, SOLVATOR                                   
                                                                         
[Other institutions]                                                     
  V. Asgeirsson          : NEB                                           
  Christoph Bannwarth    : sTDA-DFT, sTD-DFT, PBEh-3c, B97-3c, D3        
  Giovanni Bistoni       : ETS/NOCV, ADLD/ADEX, COVALED                  
  Martin Brehm           : Molecular dynamics                            
  Ronald Cardenas        : ETS/NOCV                                      
  Martina Colucci        : COVALED                                       
  Sebastian Ehlert       : rSCAN, r2SCAN, r2SCAN-3c, D4, dhf basis sets  
  Marvin Friede          : D4 for Fr, Ra, Ac-Lr                          
  Lars Goerigk           : TD-DFT with DH, B97 family of functionals     
  Stefan Grimme          : VdW corrections, initial TS optimization, DFT functionals, gCP, sTDA/sTD-DF 
  Waldemar Hujo          : DFT-NL                                        
  H. Jonsson             : NEB                                           
  Holger Kruse           : gCP                                           
  Marcel Mueller         : wB97X-3c, vDZP basis set                      
  Hagen Neugebauer       : wr2SCAN, Native XTB                           
  Gianluca Regni         : ADLD/ADEX                                     
  Tobias Risthaus        : pre 6.0 range-separated hybrid DFT and stability analysis
  Lukas Wittmann         : regularized MP2, r2SCAN double-hybrids, wr2SCAN        
                                                                         
We gratefully acknowledge several colleagues who have allowed us to      
interface, adapt or use parts of their codes:                            
  Ed Valeev, F. Pavosevic, A. Kumar             : LibInt (2-el integral package), F12 methods 
  Garnet Chan, S. Sharma, J. Yang, R. Olivares  : DMRG                   
  Ulf Ekstrom                                   : XCFun DFT Library      
  Mihaly Kallay                                 : mrcc  (arbitrary order and MRCC methods)
  Frank Weinhold                                : gennbo (NPA and NBO analysis)           
  Simon Mueller                                 : openCOSMO-RS                            
  Christopher J. Cramer and Donald G. Truhlar   : smd solvation model                     
  S Lehtola, MJT Oliveira, MAL Marques          : LibXC Library                           
  Liviu Ungur et al                             : ANISO software                          


 Your calculation uses the libint2 library for the computation of 2-el integrals
 For citations please refer to: http://libint.valeyev.net

 Your ORCA version has been built with support for libXC version: 7.0.0
 For citations please refer to: https://libxc.gitlab.io

 This ORCA versions uses:
   CBLAS   interface :  Fast vector & matrix operations
   LAPACKE interface :  Fast linear algebra routines
   SCALAPACK package :  Parallel linear algebra routines
   Shared memory     :  Shared parallel matrices
   BLAS/LAPACK       :  OpenBLAS 0.3.29  USE64BITINT DYNAMIC_ARCH NO_AFFINITY Haswell SINGLE_THREADED
        Core in use  :  Haswell
   Copyright (c) 2011-2014, The OpenBLAS Project


  ***********************************
  * Starting time: Fri Jun 19 14:03:27 2026
  * Host name:     steezy
  * Process ID:    4180935
  * Working dir.:  /home/jannes/metaltpp/pdtpp/02_tddft_tda_comparison/runs/tdaoff_tpss
  ***********************************

NOTE: MaxCore=3000 MB was set to SCF,MP2,MDCI,CIPSI,MRCI,RASCI and CIS
      => If you want to overwrite this, your respective input block should be placed after the MaxCore statement


***************************************
The coordinates will be read from file: /home/jannes/metaltpp/pdtpp/01_opt/pdtpp_opt_b3lyp_tzvp.xyz
***************************************


================================================================================

cite the ECPs for Pd [Def2-ECP] as follows:
Ce-Yb(ecp-28): M. Dolg, H. Stoll, H.Preuss, J. Chem. Phys., 1989, 90, 1730-1734.
Y-Cd(ecp-28), Hf-Hg(ecp-46): D. Andrae,U. Haeussermann, M. Dolg, H. Stoll, H. Preuss, Theor. Chim. Acta, 1990, 77, 123-141.
In-Sb(ecp-28), Tl-Bi(ecp-46): B. Metz, H. Stoll, M. Dolg, J. Chem. Phys., 2000, 113, 2563-2569.
Te-Xe(ecp-28), Po-Rn(ecp-46): K. A. Peterson, D. Figgen, E. Goll, H. Stoll, M. Dolg, J. Chem. Phys., 2003, 119, 11113-11123.
Rb(ecp-28), Cs(ecp-46): T. Leininger, A. Nicklass, W. Kuechle, H. Stoll, M. Dolg, A. Bergner, Chem. Phys. Lett., 1996, 255, 274-280.
Sr(ecp-28), Ba(ecp-46): M. Kaupp, P. V. Schleyer, H. Stoll and H. Preuss, J. Chem. Phys., 1991, 94, 1360-1366.
La(ecp-46): M. Dolg, H. Stoll, A. Savin, H. Preuss, Theor. Chim. Acta, 1989, 75, 173-194.
Lu(ecp-28): X. Cao, M. Dolg, J. Chem. Phys., 2001, 115, 7348-7355.

ECP parameters for Pd [Def2-ECP] have been obtained from:
TURBOMOLE (7.0.2)

----- Orbital basis set information -----
Your calculation utilizes the basis: def2-TZVP
   F. Weigend and R. Ahlrichs, Phys. Chem. Chem. Phys. 7, 3297 (2005).

----- AuxJ basis set information -----
Your calculation utilizes the auxiliary basis: def2/J
   H-Rn: F. Weigend, Phys. Chem. Chem. Phys. 8, 1057 (2006).
   Fr-Lr: K. Eichkorn, F. Weigend, O. Treutler, R. Ahlrichs; Theor. Chem. Acc. 97, 119 (1997).

================================================================================
                                        WARNINGS
                       Please study these warnings very carefully!
================================================================================



WARNING: Found flag for RIJCOSX approximation but no HF exchange needed!
  ===> : RIJCOSX  will be disabled and Split-RI-J is turned on

WARNING: CIS/ROCIS methods need fully converged wavefunctions
  ===> : Setting SCFConvForced true
         You can overwrite this default with %scf ConvForced false 


================================================================================
                                       INPUT FILE
================================================================================
NAME = tddft.inp
|  1> %pal nprocs 8 end
|  2> %maxcore 3000
|  3> ! TPSS def2-TZVP def2/J RIJCOSX DefGrid3 TightSCF CPCM(Toluene)
|  4> %tddft
|  5>   nroots 30
|  6>   triplets false
|  7>   tda false
|  8> end
|  9> * xyzfile 0 1 /home/jannes/metaltpp/pdtpp/01_opt/pdtpp_opt_b3lyp_tzvp.xyz
| 10> 
| 11>                          ****END OF INPUT****
================================================================================

                       ****************************
                       * Single Point Calculation *
                       ****************************

---------------------------------
CARTESIAN COORDINATES (ANGSTROEM)
---------------------------------
  N     -2.110111    2.523986    3.526306
  H      1.680708   -2.231879    3.875943
  C     -4.350164    3.014180    3.528684
  C     -0.398700   -1.555848    3.857345
  N      0.088372    0.674508    3.642372
  C      0.949750   -1.443294    3.818760
  H     -0.984444   -2.454130    3.954075
  C      2.846209    1.835215    3.486172
  N     -0.257514    4.711523    3.290563
  C     -1.119661    6.826869    3.090611
  C      2.549230    0.478205    3.615278
  C      2.658674    4.024328    3.288459
  N      1.940905    2.861709    3.403183
  C      4.066237    3.716718    3.304558
  C     -0.940811   -0.225622    3.745087
  C      1.256652   -0.041925    3.685527
  C     -2.827643    1.361920    3.647811
  C     -3.015449    3.550925    3.450264
  C     -4.235016    1.670650    3.647688
  C     -2.303720    0.072859    3.750245
  C     -2.718588    4.907514    3.316718
  C      4.181200    2.373289    3.424687
  C     -1.426068    5.427219    3.241348
  C      0.228751    6.939530    3.051533
  C      2.134675    5.313015    3.179589
  C      0.771452    5.610948    3.179597
  H     -5.253072    3.599850    3.494400
  H     -5.025746    0.944187    3.727651
  H      5.084270    1.788820    3.472387
  H      4.857333    4.443914    3.236243
  H      0.813904    7.836710    2.942245
  H     -1.850874    7.614165    3.020414
  Pd    -0.084580    2.692939    3.465620
  C      3.695443   -0.484867    3.685036
  C      4.258932   -1.006943    2.519126
  C      5.323036   -1.900436    2.583197
  C      5.839686   -2.284575    3.815767
  C      5.286069   -1.770214    4.983115
  C      4.221669   -0.877211    4.917385
  H      3.858687   -0.709905    1.557428
  H      5.747577   -2.296217    1.668734
  H      6.668315   -2.979959    3.866242
  H      5.682559   -2.062933    5.947603
  H      3.793063   -0.478014    5.828574
  C     -3.268878   -1.066687    3.874522
  C     -3.667918   -1.788375    2.747750
  C     -4.564234   -2.845791    2.862457
  C     -5.074526   -3.197454    4.107322
  C     -4.683635   -2.485348    5.235983
  C     -3.787778   -1.427761    5.119547
  H     -3.273041   -1.516543    1.776417
  H     -4.864104   -3.393742    1.977602
  H     -5.772141   -4.020854    4.197211
  H     -5.074971   -2.752745    6.209880
  H     -3.484718   -0.875694    6.000826
  C     -3.864733    5.870703    3.247417
  C     -4.478147    6.160659    2.027095
  C     -5.541818    7.054544    1.961680
  C     -6.007913    7.671692    3.117385
  C     -5.403930    7.390113    4.337892
  C     -4.339974    6.496389    4.401583
  H     -4.117079    5.682037    1.124963
  H     -6.005261    7.268689    1.006429
  H     -6.836146    8.367565    3.067198
  H     -5.760543    7.865684    5.243313
  H     -3.871962    6.279023    5.353961
  C      3.099664    6.452146    3.053442
  C      3.661497    6.775794    1.816635
  C      4.557159    7.833246    1.698146
  C      4.905551    8.582603    2.816561
  C      4.352538    8.268463    4.053191
  C      3.455949    7.211546    4.169835
  H      3.391367    6.195061    0.943123
  H      4.981312    8.071697    0.730485
  H      5.603197    9.405802    2.725123
  H      4.619446    8.845223    4.930252
  H      3.028116    6.968877    5.134904

----------------------------
CARTESIAN COORDINATES (A.U.)
----------------------------
  NO LB      ZA    FRAG     MASS         X           Y           Z
   0 N     7.0000    0    14.007   -3.987532    4.769643    6.663752
   1 H     1.0000    0     1.008    3.176078   -4.217640    7.324470
   2 C     6.0000    0    12.011   -8.220618    5.695974    6.668247
   3 C     6.0000    0    12.011   -0.753433   -2.940127    7.289325
   4 N     7.0000    0    14.007    0.167000    1.274636    6.883085
   5 C     6.0000    0    12.011    1.794768   -2.727430    7.216410
   6 H     1.0000    0     1.008   -1.860330   -4.637633    7.472119
   7 C     6.0000    0    12.011    5.378556    3.468053    6.587911
   8 N     7.0000    0    14.007   -0.486630    8.903488    6.218263
   9 C     6.0000    0    12.011   -2.115853   12.900913    5.840409
  10 C     6.0000    0    12.011    4.817346    0.903677    6.831886
  11 C     6.0000    0    12.011    5.024166    7.604878    6.214287
  12 N     7.0000    0    14.007    3.667778    5.407845    6.431083
  13 C     6.0000    0    12.011    7.684074    7.023580    6.244710
  14 C     6.0000    0    12.011   -1.777875   -0.426364    7.077189
  15 C     6.0000    0    12.011    2.374728   -0.079226    6.964637
  16 C     6.0000    0    12.011   -5.343471    2.573656    6.893365
  17 C     6.0000    0    12.011   -5.698373    6.710275    6.520053
  18 C     6.0000    0    12.011   -8.003020    3.157071    6.893131
  19 C     6.0000    0    12.011   -4.353399    0.137684    7.086935
  20 C     6.0000    0    12.011   -5.137387    9.273858    6.267689
  21 C     6.0000    0    12.011    7.901322    4.484867    6.471720
  22 C     6.0000    0    12.011   -2.694878   10.255957    6.125260
  23 C     6.0000    0    12.011    0.432276   13.113811    5.766562
  24 C     6.0000    0    12.011    4.033951   10.040142    6.008552
  25 C     6.0000    0    12.011    1.457834   10.603155    6.008567
  26 H     1.0000    0     1.008   -9.926868    6.802731    6.603459
  27 H     1.0000    0     1.008   -9.497284    1.784254    7.044239
  28 H     1.0000    0     1.008    9.607878    3.380380    6.561861
  29 H     1.0000    0     1.008    9.179030    8.397781    6.115613
  30 H     1.0000    0     1.008    1.538055   14.809236    5.560037
  31 H     1.0000    0     1.008   -3.497646   14.388686    5.707755
  32 Pd   18.0000*   0   106.400   -0.159833    5.088918    6.549072
  33 C     6.0000    0    12.011    6.983374   -0.916266    6.963708
  34 C     6.0000    0    12.011    8.048215   -1.902846    4.760457
  35 C     6.0000    0    12.011   10.059080   -3.591304    4.881536
  36 C     6.0000    0    12.011   11.035408   -4.317220    7.210756
  37 C     6.0000    0    12.011    9.989222   -3.345220    9.416722
  38 C     6.0000    0    12.011    7.977797   -1.657689    9.292512
  39 H     1.0000    0     1.008    7.291861   -1.341526    2.943112
  40 H     1.0000    0     1.008   10.861347   -4.339222    3.153449
  41 H     1.0000    0     1.008   12.601290   -5.631306    7.306139
  42 H     1.0000    0     1.008   10.738480   -3.898379   11.239342
  43 H     1.0000    0     1.008    7.167849   -0.903316   11.014408
  44 C     6.0000    0    12.011   -6.177283   -2.015746    7.321785
  45 C     6.0000    0    12.011   -6.931360   -3.379539    5.192495
  46 C     6.0000    0    12.011   -8.625153   -5.377765    5.409260
  47 C     6.0000    0    12.011   -9.589465   -6.042312    7.761714
  48 C     6.0000    0    12.011   -8.850788   -4.696626    9.894574
  49 C     6.0000    0    12.011   -7.157863   -2.698078    9.674541
  50 H     1.0000    0     1.008   -6.185151   -2.865852    3.356941
  51 H     1.0000    0     1.008   -9.191825   -6.413243    3.737127
  52 H     1.0000    0     1.008  -10.907766   -7.598313    7.931580
  53 H     1.0000    0     1.008   -9.590305   -5.201934   11.734973
  54 H     1.0000    0     1.008   -6.585162   -1.654821   11.339918
  55 C     6.0000    0    12.011   -7.303287   11.094021    6.136729
  56 C     6.0000    0    12.011   -8.462472   11.641958    3.830655
  57 C     6.0000    0    12.011  -10.472518   13.331156    3.707038
  58 C     6.0000    0    12.011  -11.353310   14.497398    5.891003
  59 C     6.0000    0    12.011  -10.211947   13.965290    8.197428
  60 C     6.0000    0    12.011   -8.201361   12.276396    8.317786
  61 H     1.0000    0     1.008   -7.780152   10.737494    2.125873
  62 H     1.0000    0     1.008  -11.348298   13.735832    1.901875
  63 H     1.0000    0     1.008  -12.918444   15.812406    5.796164
  64 H     1.0000    0     1.008  -10.885848   14.863989    9.908426
  65 H     1.0000    0     1.008   -7.316948   11.865634   10.117519
  66 C     6.0000    0    12.011    5.857516   12.192790    5.770169
  67 C     6.0000    0    12.011    6.919226   12.804394    3.432943
  68 C     6.0000    0    12.011    8.611782   14.802689    3.209031
  69 C     6.0000    0    12.011    9.270147   16.218769    5.322530
  70 C     6.0000    0    12.011    8.225105   15.625130    7.659421
  71 C     6.0000    0    12.011    6.530797   13.627847    7.879847
  72 H     1.0000    0     1.008    6.408756   11.706968    1.782244
  73 H     1.0000    0     1.008    9.413315   15.253296    1.380417
  74 H     1.0000    0     1.008   10.588507   17.774390    5.149736
  75 H     1.0000    0     1.008    8.729487   16.715049    9.316826
  76 H     1.0000    0     1.008    5.722310   13.169268    9.703562
* core charge reduced due to ECP

--------------------------------
INTERNAL COORDINATES (ANGSTROEM)
--------------------------------
 N      0   0   0     0.000000000000     0.00000000     0.00000000
 H      1   0   0     6.091864519695     0.00000000     0.00000000
 C      1   2   0     2.293061668774   140.77976632     0.00000000
 C      2   1   3     2.186618710776    33.52783143     0.04252703
 N      4   2   1     2.293020439396    95.71126238     0.13201848
 C      2   1   3     1.076771071192     4.27097730     0.95018847
 H      4   2   1     1.076737357735   104.98917044   180.24197510
 C      5   4   2     2.996214647055   125.25434724   359.81268877
 N      1   2   6     2.876283733654   101.39950918   180.95456890
 C      9   1   2     2.293026306020   117.81294611   179.23280037
 C      8   5   4     1.395112866777    54.72016910     0.08516652
 C      8   5   4     2.206009583477   108.11038933   180.04091611
 N     12   8   5     1.371145497004    36.44556594   359.65156690
 C     12   8   5     1.440873091928    72.78845772   179.45502588
 C      5   4   2     1.371131839070    36.38876957   179.89822507
 C      5   4   2     1.371136533824    70.71949993   359.92072186
 C      1   2   6     1.371135984783    70.05647476     1.03551285
 C      1   2   6     1.371138730284   177.16104147   358.97779031
 C      3   1   2     1.353695948585    72.83217491     0.00000000
 C     15   5   4     1.395219876198   126.37442169   179.66696349
 C     18   1  17     1.395097281961   126.37748330   180.13749834
 C     14  12   8     1.353679735100   107.20709609     0.05323370
 C      9   1   2     1.371190110672    81.43098556   179.61880543
 C     10   9   1     1.353674188183    72.82860588   180.60441881
 C     12   8   5     1.395399661196   162.81723884     0.00000000
 C      9   1   2     1.371149126465   171.44610486     2.37032993
 H      3   1   2     1.076767616977   159.29162586   180.04288983
 H     19   3   1     1.076753670965   127.85564321   180.14471152
 H     22  14  12     1.076761799141   127.86843687   180.16669300
 H     14  12   8     1.076714671126   124.94922907   180.29620946
 H     24  10   9     1.076699071888   127.85290957   179.65835995
 H     10   9   1     1.076770499221   159.31197649     0.00000000
 Pd    13  12   8     2.033462073962   126.46781400   179.19972923
 C     11   8   5     1.498725461683   117.81049574   180.12635065
 C     34  11   8     1.396219767790   120.66842979   272.82165428
 C     35  34  11     1.390953825264   120.69543613   179.97740510
 C     36  35  34     1.390582364320   120.16603241   359.97529885
 C     37  36  35     1.390596386896   119.60239487     0.00000000
 C     38  37  36     1.390943109850   120.16249836     0.00000000
 H     35  34  11     1.083185124941   119.32249910   359.94042574
 H     36  35  34     1.083107498935   119.71566789   179.95479444
 H     37  36  35     1.082927975900   120.19786101   180.01705479
 H     38  37  36     1.083110082999   120.12050429   180.06128569
 H     39  38  37     1.083201384917   119.97650792   180.03150919
 C     20  15   5     1.498512414292   117.82573721   180.08675936
 C     45  20  15     1.396309957761   120.67602934   275.47228008
 C     46  45  20     1.390923913888   120.69950293   180.03028757
 C     47  46  45     1.390594937017   120.16864752   359.97146212
 C     48  47  46     1.390599546684   119.59914676     0.02391936
 C     49  48  47     1.390901187040   120.16385760     0.00000000
 H     46  45  20     1.083193415161   119.32361907   359.94790795
 H     47  46  45     1.083116076579   119.71172485   179.90374148
 H     48  47  46     1.082928541119   120.19742760   180.02050545
 H     49  48  47     1.083106931738   120.12000129   180.06956091
 H     50  49  48     1.083179315867   119.97573915   180.05227748
 C     21  18   1     1.498727198128   117.81570509   179.80364232
 C     56  21  18     1.396258338985   120.65372407   273.45074291
 C     57  56  21     1.390936594620   120.69852576   180.00777400
 C     58  57  56     1.390600697335   120.16129999     0.00000000
 C     59  58  57     1.390582904429   119.60335106     0.02620359
 C     60  59  58     1.390971536282   120.16672006     0.00000000
 H     57  56  21     1.083185608742   119.32096230   359.95749120
 H     58  57  56     1.083116967127   119.71873647   179.93453949
 H     59  58  57     1.082925507565   120.19933745   180.01377371
 H     60  59  58     1.083110391607   120.11852907   180.03003533
 H     61  60  59     1.083192681126   119.97900133   180.02036021
 C     25  12   8     1.498245128282   117.83135176   180.16993308
 C     67  25  12     1.396457852924   120.65804047    81.98986846
 C     68  67  25     1.390846818110   120.71358375   179.98302436
 C     69  68  67     1.390599469242   120.16689149     0.06630908
 C     70  69  68     1.390596912200   119.59423432   359.96944806
 C     71  70  69     1.390881522349   120.17162991   359.96512984
 H     68  67  25     1.083164020706   119.31777031     0.12948246
 H     69  68  67     1.083112177416   119.71424993   180.15314058
 H     70  69  68     1.082925280805   120.20670543   179.97266556
 H     71  70  69     1.083110359360   120.11990499   179.87743042
 H     72  71  70     1.083183646087   119.97152232   179.92136023

---------------------------
INTERNAL COORDINATES (A.U.)
---------------------------
 N      0   0   0     0.000000000000     0.00000000     0.00000000
 H      1   0   0    11.511955587176     0.00000000     0.00000000
 C      1   2   0     4.333258562175   140.77976632     0.00000000
 C      2   1   3     4.132110522674    33.52783143     0.04252703
 N      4   2   1     4.333180649942    95.71126238     0.13201848
 C      2   1   3     2.034802433482     4.27097730     0.95018847
 H      4   2   1     2.034738724282   104.98917044   180.24197510
 C      5   4   2     5.662025121378   125.25434724   359.81268877
 N      1   2   6     5.435388540058   101.39950918   180.95456890
 C      9   1   2     4.333191736256   117.81294611   179.23280037
 C      8   5   4     2.636381244118    54.72016910     0.08516652
 C      8   5   4     4.168753961577   108.11038933   180.04091611
 N     12   8   5     2.591089479096    36.44556594   359.65156690
 C     12   8   5     2.722855537480    72.78845772   179.45502588
 C      5   4   2     2.591063669343    36.38876957   179.89822507
 C      5   4   2     2.591072541142    70.71949993   359.92072186
 C      1   2   6     2.591071503605    70.05647476     1.03551285
 C      1   2   6     2.591076691848   177.16104147   358.97779031
 C      3   1   2     2.558114611425    72.83217491     0.00000000
 C     15   5   4     2.636583462617   126.37442169   179.66696349
 C     18   1  17     2.636351793084   126.37748330   180.13749834
 C     14  12   8     2.558083972379   107.20709609     0.05323370
 C      9   1   2     2.591173786711    81.43098556   179.61880543
 C     10   9   1     2.558073490223    72.82860588   180.60441881
 C     12   8   5     2.636923207027   162.81723884     0.00000000
 C      9   1   2     2.591096337784   171.44610486     2.37032993
 H      3   1   2     2.034795905961   159.29162586   180.04288983
 H     19   3   1     2.034769551817   127.85564321   180.14471152
 H     22  14  12     2.034784911844   127.86843687   180.16669300
 H     14  12   8     2.034695852804   124.94922907   180.29620946
 H     24  10   9     2.034666374516   127.85290957   179.65835995
 H     10   9   1     2.034801352614   159.31197649     0.00000000
 Pd    13  12   8     3.842686423504   126.46781400   179.19972923
 C     11   8   5     2.832180672516   117.81049574   180.12635065
 C     34  11   8     2.638472983890   120.66842979   272.82165428
 C     35  34  11     2.628521794680   120.69543613   179.97740510
 C     36  35  34     2.627819835225   120.16603241   359.97529885
 C     37  36  35     2.627846334053   119.60239487     0.00000000
 C     38  37  36     2.628501545482   120.16249836     0.00000000
 H     35  34  11     2.046923238475   119.32249910   359.94042574
 H     36  35  34     2.046776546584   119.71566789   179.95479444
 H     37  36  35     2.046437297212   120.19786101   180.01705479
 H     38  37  36     2.046781429757   120.12050429   180.06128569
 H     39  38  37     2.046953965378   119.97650792   180.03150919
 C     20  15   5     2.831778071293   117.82573721   180.08675936
 C     45  20  15     2.638643418236   120.67602934   275.47228008
 C     46  45  20     2.628465270371   120.69950293   180.03028757
 C     47  46  45     2.627843594180   120.16864752   359.97146212
 C     48  47  46     2.627852305189   119.59914676     0.02391936
 C     49  48  47     2.628422322851   120.16385760     0.00000000
 H     46  45  20     2.046938904722   119.32361907   359.94790795
 H     47  46  45     2.046792755981   119.71172485   179.90374148
 H     48  47  46     2.046438365321   120.19742760   180.02050545
 H     49  48  47     2.046775474736   120.12000129   180.06956091
 H     50  49  48     2.046912260916   119.97573915   180.05227748
 C     21  18   1     2.832183953921   117.81570509   179.80364232
 C     56  21  18     2.638545872886   120.65372407   273.45074291
 C     57  56  21     2.628489233481   120.69852576   180.00777400
 C     58  57  56     2.627854479604   120.16129999     0.00000000
 C     59  58  57     2.627820855884   119.60335106     0.02620359
 C     60  59  58     2.628555263654   120.16672006     0.00000000
 H     57  56  21     2.046924152727   119.32096230   359.95749120
 H     58  57  56     2.046794438874   119.71873647   179.93453949
 H     59  58  57     2.046432632736   120.19933745   180.01377371
 H     60  59  58     2.046782012941   120.11852907   180.03003533
 H     61  60  59     2.046937517595   119.97900133   180.02036021
 C     25  12   8     2.831272973935   117.83135176   180.16993308
 C     67  25  12     2.638922899590   120.65804047    81.98986846
 C     68  67  25     2.628319580464   120.71358375   179.98302436
 C     69  68  67     2.627852158844   120.16689149     0.06630908
 C     70  69  68     2.627847326735   119.59423432   359.96944806
 C     71  70  69     2.628385161970   120.17162991   359.96512984
 H     68  67  25     2.046883357251   119.31777031     0.12948246
 H     69  68  67     2.046785387631   119.71424993   180.15314058
 H     70  69  68     2.046432204220   120.20670543   179.97266556
 H     71  70  69     2.046781952003   120.11990499   179.87743042
 H     72  71  70     2.046920443847   119.97152232   179.92136023

---------------------
BASIS SET INFORMATION
---------------------
There are 4 groups of distinct atoms

 Group   1 Type N   : 11s6p2d1f contracted to 5s3p2d1f pattern {62111/411/11/1}
 Group   2 Type H   : 5s1p contracted to 3s1p pattern {311/1}
 Group   3 Type C   : 11s6p2d1f contracted to 5s3p2d1f pattern {62111/411/11/1}
 Group   4 Type Pd  : 7s7p6d1f contracted to 6s4p3d1f pattern {211111/4111/411/1}

Atom   0N    basis set group =>   1
Atom   1H    basis set group =>   2
Atom   2C    basis set group =>   3
Atom   3C    basis set group =>   3
Atom   4N    basis set group =>   1
Atom   5C    basis set group =>   3
Atom   6H    basis set group =>   2
Atom   7C    basis set group =>   3
Atom   8N    basis set group =>   1
Atom   9C    basis set group =>   3
Atom  10C    basis set group =>   3
Atom  11C    basis set group =>   3
Atom  12N    basis set group =>   1
Atom  13C    basis set group =>   3
Atom  14C    basis set group =>   3
Atom  15C    basis set group =>   3
Atom  16C    basis set group =>   3
Atom  17C    basis set group =>   3
Atom  18C    basis set group =>   3
Atom  19C    basis set group =>   3
Atom  20C    basis set group =>   3
Atom  21C    basis set group =>   3
Atom  22C    basis set group =>   3
Atom  23C    basis set group =>   3
Atom  24C    basis set group =>   3
Atom  25C    basis set group =>   3
Atom  26H    basis set group =>   2
Atom  27H    basis set group =>   2
Atom  28H    basis set group =>   2
Atom  29H    basis set group =>   2
Atom  30H    basis set group =>   2
Atom  31H    basis set group =>   2
Atom  32Pd   basis set group =>   4
Atom  33C    basis set group =>   3
Atom  34C    basis set group =>   3
Atom  35C    basis set group =>   3
Atom  36C    basis set group =>   3
Atom  37C    basis set group =>   3
Atom  38C    basis set group =>   3
Atom  39H    basis set group =>   2
Atom  40H    basis set group =>   2
Atom  41H    basis set group =>   2
Atom  42H    basis set group =>   2
Atom  43H    basis set group =>   2
Atom  44C    basis set group =>   3
Atom  45C    basis set group =>   3
Atom  46C    basis set group =>   3
Atom  47C    basis set group =>   3
Atom  48C    basis set group =>   3
Atom  49C    basis set group =>   3
Atom  50H    basis set group =>   2
Atom  51H    basis set group =>   2
Atom  52H    basis set group =>   2
Atom  53H    basis set group =>   2
Atom  54H    basis set group =>   2
Atom  55C    basis set group =>   3
Atom  56C    basis set group =>   3
Atom  57C    basis set group =>   3
Atom  58C    basis set group =>   3
Atom  59C    basis set group =>   3
Atom  60C    basis set group =>   3
Atom  61H    basis set group =>   2
Atom  62H    basis set group =>   2
Atom  63H    basis set group =>   2
Atom  64H    basis set group =>   2
Atom  65H    basis set group =>   2
Atom  66C    basis set group =>   3
Atom  67C    basis set group =>   3
Atom  68C    basis set group =>   3
Atom  69C    basis set group =>   3
Atom  70C    basis set group =>   3
Atom  71C    basis set group =>   3
Atom  72H    basis set group =>   2
Atom  73H    basis set group =>   2
Atom  74H    basis set group =>   2
Atom  75H    basis set group =>   2
Atom  76H    basis set group =>   2
---------------------------------
AUXILIARY/J BASIS SET INFORMATION
---------------------------------
There are 4 groups of distinct atoms

 Group   1 Type N   : 12s5p4d2f1g contracted to 6s4p3d1f1g pattern {711111/2111/211/2/1}
 Group   2 Type H   : 5s2p1d contracted to 3s1p1d pattern {311/2/1}
 Group   3 Type C   : 12s5p4d2f1g contracted to 6s4p3d1f1g pattern {711111/2111/211/2/1}
 Group   4 Type Pd  : 11s5p5d3f3g contracted to 8s5p5d2f3g pattern {41111111/11111/11111/21/111}

Atom   0N    basis set group =>   1
Atom   1H    basis set group =>   2
Atom   2C    basis set group =>   3
Atom   3C    basis set group =>   3
Atom   4N    basis set group =>   1
Atom   5C    basis set group =>   3
Atom   6H    basis set group =>   2
Atom   7C    basis set group =>   3
Atom   8N    basis set group =>   1
Atom   9C    basis set group =>   3
Atom  10C    basis set group =>   3
Atom  11C    basis set group =>   3
Atom  12N    basis set group =>   1
Atom  13C    basis set group =>   3
Atom  14C    basis set group =>   3
Atom  15C    basis set group =>   3
Atom  16C    basis set group =>   3
Atom  17C    basis set group =>   3
Atom  18C    basis set group =>   3
Atom  19C    basis set group =>   3
Atom  20C    basis set group =>   3
Atom  21C    basis set group =>   3
Atom  22C    basis set group =>   3
Atom  23C    basis set group =>   3
Atom  24C    basis set group =>   3
Atom  25C    basis set group =>   3
Atom  26H    basis set group =>   2
Atom  27H    basis set group =>   2
Atom  28H    basis set group =>   2
Atom  29H    basis set group =>   2
Atom  30H    basis set group =>   2
Atom  31H    basis set group =>   2
Atom  32Pd   basis set group =>   4
Atom  33C    basis set group =>   3
Atom  34C    basis set group =>   3
Atom  35C    basis set group =>   3
Atom  36C    basis set group =>   3
Atom  37C    basis set group =>   3
Atom  38C    basis set group =>   3
Atom  39H    basis set group =>   2
Atom  40H    basis set group =>   2
Atom  41H    basis set group =>   2
Atom  42H    basis set group =>   2
Atom  43H    basis set group =>   2
Atom  44C    basis set group =>   3
Atom  45C    basis set group =>   3
Atom  46C    basis set group =>   3
Atom  47C    basis set group =>   3
Atom  48C    basis set group =>   3
Atom  49C    basis set group =>   3
Atom  50H    basis set group =>   2
Atom  51H    basis set group =>   2
Atom  52H    basis set group =>   2
Atom  53H    basis set group =>   2
Atom  54H    basis set group =>   2
Atom  55C    basis set group =>   3
Atom  56C    basis set group =>   3
Atom  57C    basis set group =>   3
Atom  58C    basis set group =>   3
Atom  59C    basis set group =>   3
Atom  60C    basis set group =>   3
Atom  61H    basis set group =>   2
Atom  62H    basis set group =>   2
Atom  63H    basis set group =>   2
Atom  64H    basis set group =>   2
Atom  65H    basis set group =>   2
Atom  66C    basis set group =>   3
Atom  67C    basis set group =>   3
Atom  68C    basis set group =>   3
Atom  69C    basis set group =>   3
Atom  70C    basis set group =>   3
Atom  71C    basis set group =>   3
Atom  72H    basis set group =>   2
Atom  73H    basis set group =>   2
Atom  74H    basis set group =>   2
Atom  75H    basis set group =>   2
Atom  76H    basis set group =>   2
-------------------------
ECP PARAMETER INFORMATION
-------------------------

 Group 1, Type Pd ECP Def2-ECP (replacing 28 core electrons, lmax=3)

Atom  32Pd   ECP group =>   1



           ************************************************************
           *        Program running with 8 parallel MPI-processes     *
           *              working on a common directory               *
           ************************************************************
------------------------------------------------------------------------------
                             ORCA STARTUP CALCULATIONS
                           -- RI-GTO INTEGRALS CHOSEN --
------------------------------------------------------------------------------
------------------------------------------------------------------------------
                   ___                                                        
                  /   \      - P O W E R E D   B Y -                         
                 /     \                                                     
                 |  |  |   _    _      __       _____    __    __             
                 |  |  |  | |  | |    /  \     |  _  \  |  |  /  |          
                  \  \/   | |  | |   /    \    | | | |  |  | /  /          
                 / \  \   | |__| |  /  /\  \   | |_| |  |  |/  /          
                |  |  |   |  __  | /  /__\  \  |    /   |      \           
                |  |  |   | |  | | |   __   |  |    \   |  |\   \          
                \     /   | |  | | |  |  |  |  | |\  \  |  | \   \       
                 \___/    |_|  |_| |__|  |__|  |_| \__\ |__|  \__/        
                                                                              
                      - O R C A' S   B I G   F R I E N D -                    
                                      &                                       
                       - I N T E G R A L  F E E D E R -                       
                                                                              
 v1 FN, 2020, v2 2021, v3 2022-2024                                           
------------------------------------------------------------------------------


----------------------
SHARK INTEGRAL PACKAGE
----------------------

Number of atoms                             ...     77
Number of basis functions                   ...   1696
Number of shells                            ...    654
Maximum angular momentum                    ...      3
Integral batch strategy                     ... SHARK/LIBINT Hybrid
RI-J (if used) integral strategy            ... SPLIT-RIJ (Revised 2003 algorithm where possible)
Printlevel                                  ...      1
Contraction scheme used                     ... SEGMENTED contraction
Prescreening option                         ... SCHWARTZ
   Thresh                                   ... 2.500e-11
   Tcut                                     ... 2.500e-12
   Tpresel                                  ... 2.500e-12 
Coulomb Range Separation                    ... NOT USED
Exchange Range Separation                   ... NOT USED
Multipole approximations                    ... NOT USED
Finite Nucleus Model                        ... NOT USED
CABS basis                                  ... NOT available
Auxiliary Coulomb fitting basis             ... AVAILABLE
   # of basis functions in Aux-J            ...   2749
   # of shells in Aux-J                     ...    883
   Maximum angular momentum in Aux-J        ...      4
Auxiliary J/K fitting basis                 ... NOT available
Auxiliary Correlation fitting basis         ... NOT available
Auxiliary 'external' fitting basis          ... NOT available

Checking pre-screening integrals            ... done (  0.0 sec) Dimension = 654
   => SHARK Basis and OBASIS are compatible. Storing Pre-screening
Shell pair information
Shell pair cut-off parameter TPreSel        ...   2.5e-12
Total number of shell pairs                 ...    214185
Shell pairs after pre-screening             ...    104422
Total number of primitive shell pairs       ...    661828
Primitive shell pairs kept                  ...    198973
          la=0 lb=0:  24775 shell pairs
          la=1 lb=0:  30706 shell pairs
          la=1 lb=1:   9368 shell pairs
          la=2 lb=0:  14739 shell pairs
          la=2 lb=1:   9315 shell pairs
          la=2 lb=2:   2222 shell pairs
          la=3 lb=0:   6683 shell pairs
          la=3 lb=1:   4262 shell pairs
          la=3 lb=2:   1897 shell pairs
          la=3 lb=3:    455 shell pairs

Checking whether 4 symmetric matrices of dimension 1696 fit in memory
:Max Core in MB      =   3000.00
 MB in use           =    127.08
 MB left             =   2872.92
 MB needed           =     43.92
 Data fit in memory  = YES
Calculating RI/J V-Matrix + Cholesky decomp.... done (  2.6 sec)
Calculating Nuclear repulsion               ... done (  0.0 sec) ENN=   6002.744108119021 Eh

Diagonalization of the overlap matrix:
Smallest eigenvalue                        ... 2.867e-06
Time for diagonalization                   ...    0.941 sec
Threshold for overlap eigenvalues          ... 1.000e-07
Number of eigenvalues below threshold      ... 0
Time for construction of square roots      ...    1.887 sec
Total time needed                          ...    2.933 sec

-------------------
DFT GRID GENERATION
-------------------

General Integration Accuracy     IntAcc      ... 4.959
Radial Grid Type                 RadialGrid  ... OptM3 with GC (2021)
Angular Grid (max. ang.)         AngularGrid ... 6 (Lebedev-590)
Angular grid pruning method      GridPruning ... 4 (adaptive)
Weight generation scheme         WeightScheme... mBecke (2022)
Basis function cutoff            BFCut       ... 1.0000e-11
Integration weight cutoff        WCut        ... 1.0000e-14
Partially contracted basis set               ... off
Rotationally invariant grid construction     ... off
Angular grids for H and He will be reduced by one unit

Total number of grid points                  ...   931349
Total number of batches                      ...    14594
Average number of points per batch           ...       63
Average number of grid points per atom       ...    12095
Grids setup in  22.9 sec
Initializing property integral containers    ... done (  0.0 sec)

SHARK setup successfully completed in  40.3 seconds

Maximum memory used throughout the entire STARTUP-calculation: 304.5 MB


           ************************************************************
           *        Program running with 8 parallel MPI-processes     *
           *              working on a common directory               *
           ************************************************************
-------------------------------------------------------------------------------
                                 ORCA GUESS
                   Start orbitals & Density for SCF / CASSCF
-------------------------------------------------------------------------------

------------
SCF SETTINGS
------------
Hamiltonian:
 Density Functional     Method          .... DFT(GTOs)
 Exchange Functional    Exchange        .... TPSS
 Correlation Functional Correlation     .... TPSS
 LDA part of GGA corr.  LDAOpt          .... PW91-LDA
 Gradients option       PostSCFGGA      .... off
   NL short-range parameter             ....  5.000000
 RI-approximation to the Coulomb term is turned on
   Number of AuxJ basis functions       .... 2749


General Settings:
 Integral files         IntName         .... tddft
 Hartree-Fock type      HFTyp           .... RHF
 Total Charge           Charge          ....    0
 Multiplicity           Mult            ....    1
 Number of Electrons    NEL             ....  338
 Basis Dimension        Dim             .... 1696
 Nuclear Repulsion      ENuc            ....   6002.7441081190 Eh

Convergence Acceleration:
 AO-DIIS                CNVDIIS         .... on
   Start iteration      DIISMaxIt       ....    12
   Startup error        DIISStart       ....  0.200000
   # of expansion vecs  DIISMaxEq       ....     5
   Bias factor          DIISBfac        ....   1.050
   Max. coefficient     DIISMaxC        ....  10.000
 MO-DIIS                CNVKDIIS        .... off
 Trust-Rad. Augm. Hess. CNVTRAH         .... auto
   Auto Start mean grad. ratio tolernc. ....  1.125000
   Auto Start start iteration           ....    50
   Auto Start num. interpolation iter.  ....    10
   Max. Number of Micro iterations      ....    24
   Max. Number of Macro iterations      .... Maxiter - #DIIS iter
   Number of Davidson start vectors     ....     2
   Converg. threshold    (grad. norm)   ....   1.000e-05
   Grad. Scal. Fac. for Micro threshold ....   0.100
   Minimum threshold for Micro iter.    ....   1.000e-02
   NR start threshold (gradient norm)   ....   1.000e-04
   Initial trust radius                 ....   0.400
   Minimum AH scaling param. (alpha)    ....   1.000
   Maximum AH scaling param. (alpha)    .... 1000.000
   Quad. conv. algorithm                .... NR
   White noise on init. David. guess    .... on
   Maximum white noise                  ....   0.010
   Pseudo random numbers                .... off
   Inactive MOs                         .... canonical
   Orbital update algorithm             .... Taylor
   Preconditioner                       .... Diag
   Full preconditioner red. dimension   ....   250
 SOSCF                 CNVSOSCF           .... on
   Start iteration     SOSCFMaxIt         ....   150
   Startup grad/error  SOSCFStart         ....  0.003300
   Hessian update      SOSCFHessUp        .... L-BFGS
   Autom. constraints  SOSCFAutoConstrain .... off
 Level Shifting         CNVShift        .... on
   Level shift para.    LevelShift      ....    0.2500
   Turn off err/grad.   ShiftErr        ....    0.0010
 Zerner damping         CNVZerner       .... off
 Static damping         CNVDamp         .... on
   Fraction old density DampFac         ....    0.7000
   Max. Damping (<1)    DampMax         ....    0.9800
   Min. Damping (>=0)   DampMin         ....    0.0000
   Turn off err/grad.   DampErr         ....    0.1000

SCF Procedure:
 Maximum # iterations   MaxIter         ....   125
 SCF integral mode      SCFMode         .... Direct
   Integral package                     .... SHARK and LIBINT hybrid scheme
 Reset frequency        DirectResetFreq ....    20
 Integral Threshold     Thresh          ....  2.500e-11 Eh
 Primitive CutOff       TCut            ....  2.500e-12 Eh

Convergence Tolerance:
 Convergence Check Mode ConvCheckMode   .... Total+1el-Energy
 Convergence forced     ConvForced      .... 1
 Energy Change          TolE            ....  1.000e-08 Eh
 1-El. energy change                    ....  1.000e-05 Eh
 Orbital Gradient       TolG            ....  1.000e-05
 Orbital Rotation angle TolX            ....  1.000e-05
 DIIS Error             TolErr          ....  5.000e-07

------------------------------
INITIAL GUESS: MODEL POTENTIAL
------------------------------
Loading Hartree-Fock densities                     ... done
Atomic calculation to generate a density for atom 32 (Pd with ECP)
  Multiplicity assumed   :    3
  Atomic configuration   : 1s2 2s2 2p6 3s2 3p6 4s2 3d10 4p6 5s2 4d8 
  Number of open shells  : 1
  Command: /opt/orca/orca tddft_atom46.inp "" > tddft_atom46.out
Returned from the atomic calculation with res=0
Calculating cut-offs                               ... done
Initializing the effective Hamiltonian             ... done
Setting up the integral package (SHARK)            ... done
Starting the Coulomb interaction                   ... done (   6.9 sec)
Making the grid                                    ... done (   1.8 sec)
Mapping shells                                     ... done
Starting the XC term evaluation                    ... done (   2.3 sec)
  promolecular density results
     # of electrons  =    365.974760046
     EX              =   -398.259369015
     EC              =    -13.259716790
     EX+EC           =   -411.519085805
Transforming the Hamiltonian                       ... done (   0.6 sec)
Diagonalizing the Hamiltonian                      ... done (   0.8 sec)
Back transforming the eigenvectors                 ... done (   0.3 sec)
Now organizing SCF variables                       ... done
                      ------------------
                      INITIAL GUESS DONE (  14.6 sec)
                      ------------------
             **** ENERGY FILE WAS UPDATED (tddft.en.tmp) ****
Finished Guess after  17.6 sec
Maximum memory used throughout the entire GUESS-calculation: 206.4 MB


           ************************************************************
           *        Program running with 8 parallel MPI-processes     *
           *              working on a common directory               *
           ************************************************************

-------------------------------------------------------------------------------------------
                                      ORCA LEAN-SCF
                              memory conserving SCF solver
-------------------------------------------------------------------------------------------

--------------------
CPCM SOLVATION MODEL
--------------------
CPCM parameters:
  Epsilon                                         ...       2.3870
  Refrac                                          ...       1.4961
  Rsolv                                           ...       1.3000
  Surface type                                    ... GAUSSIAN VDW
  Discretization scheme                           ... Constant charge density
    Threshold for H atoms                         ...       5.0000 (charges/Ang^2)
    Threshold for non-H atoms                     ...       5.0000 (charges/Ang^2)
  Epsilon function type                           ...         CPCM
Solvent:                                          ... TOLUENE
Radii:
  Scheme                                          ... Element-dependent radii
  Radius for N  used is    3.5149 Bohr (=   1.8600 Ang.)
  Radius for H  used is    2.4944 Bohr (=   1.3200 Ang.)
  Radius for C  used is    3.8550 Bohr (=   2.0400 Ang.)
  Radius for Pd used is    3.6963 Bohr (=   1.9560 Ang.)
Calculating surface                               ...        done! (  0.1s)
Cavity surface points                             ...         6812
Cavity Volume                                     ...    4937.0056
Cavity Surface-area                               ...    2293.6117
Calculating surface distance matrix               ...        done! (  1.6s)
Performing Cholesky decomposition & store         ...        done! (  2.4s)
Overall time for CPCM initialization              ...                 4.0s

----------------------------------------D-I-I-S--------------------------------------------
Iteration    Energy (Eh)           Delta-E    RMSDP     MaxDP     DIISErr   Damp  Time(sec)
-------------------------------------------------------------------------------------------
               ***  Starting incremental Fock matrix formation  ***
    1    -2040.7664345782850432     0.00e+00  2.36e-03  1.11e-01  4.67e-01  0.700  94.3
Warning: op=0 Small HOMO/LUMO gap (   0.078) - skipping pre-diagonalization
         Will do a full diagonalization
    2    -2041.1380475596270117    -3.72e-01  2.25e-03  6.73e-02  3.19e-01  0.700  90.4
    3    -2041.2939387891292427    -1.56e-01  1.22e-03  3.67e-02  2.18e-01  0.700  90.7
                               ***Turning on AO-DIIS***
    4    -2041.3789259088407562    -8.50e-02  6.62e-04  2.98e-02  1.51e-01  0.700 101.1
    5    -2041.4394775211549131    -6.06e-02  5.30e-04  2.40e-02  1.05e-01  0.700  76.4
    6    -2041.4816790308186683    -4.22e-02  4.14e-04  1.73e-02  7.37e-02  0.700  76.5
    7    -2041.5111474262257616    -2.95e-02  1.01e-03  4.04e-02  5.17e-02  0.000  76.8
                              *** Initializing SOSCF ***
---------------------------------------S-O-S-C-F--------------------------------------
Iteration    Energy (Eh)           Delta-E    RMSDP     MaxDP     MaxGrad    Time(sec)
--------------------------------------------------------------------------------------
    8    -2041.5797509926796920    -6.86e-02  6.73e-05  2.31e-03  8.54e-04    81.6
               *** Restarting incremental Fock matrix formation ***
    9    -2041.5797645600741816    -1.36e-05  8.61e-05  2.36e-03  2.64e-04    93.9
   10    -2041.5797434139285542     2.11e-05  2.48e-05  8.60e-04  7.01e-04    65.8
   11    -2041.5797706158664369    -2.72e-05  3.06e-05  2.28e-03  2.64e-04    55.7
   12    -2041.5797653383688157     5.28e-06  1.69e-05  1.94e-03  7.44e-04    63.2
   13    -2041.5797716372026116    -6.30e-06  3.24e-05  1.39e-03  1.23e-04    50.8
   14    -2041.5797710186270706     6.19e-07  1.13e-05  5.76e-04  1.28e-04    58.2
   15    -2041.5797719931770189    -9.75e-07  1.57e-05  6.12e-04  1.13e-05    55.7
   16    -2041.5797718637741127     1.29e-07  9.29e-06  3.78e-04  1.45e-05    55.9
   17    -2041.5797721080243718    -2.44e-07  2.09e-05  1.66e-03  1.88e-06    50.8
                  *** Gradient check signals convergence ***

               *****************************************************
               *                     SUCCESS                       *
               *           SCF CONVERGED AFTER  17 CYCLES          *
               *****************************************************

             **** ENERGY FILE WAS UPDATED (tddft.en.tmp) ****

----------------
TOTAL SCF ENERGY
----------------

Total Energy       :      -2041.57977215100618 Eh          -55554.20992 eV

Components:
Nuclear Repulsion  :       6002.74410811902089 Eh          163342.97138 eV
Electronic Energy  :      -8044.31344070161686 Eh         -218896.89722 eV
One Electron Energy:     -14772.12887150568167 Eh         -401970.06236 eV
Two Electron Energy:       6727.81543080406482 Eh          183073.16513 eV
CPCM Dielectric    :         -0.01043956841025 Eh              -0.28408 eV

Virial components:
Potential Energy   :      -3994.99043462587269 Eh         -108709.21640 eV
Kinetic Energy     :       1953.41066247486629 Eh           53155.00647 eV
Virial Ratio       :          2.04513598260206

DFT components:
N(Alpha)           :      168.999977586096 electrons
N(Beta)            :      168.999977586096 electrons
N(Total)           :      337.999955172192 electrons
E(X)               :     -279.100523324934 Eh       
E(C)               :      -11.612159672113 Eh       
E(XC)              :     -290.712682997047 Eh       

CPCM Solvation Model Properties:
Surface-charge          :         -0.04913570146815
Corrected charge        :          0.00000000000000
Outlying charge corr.   :          0.00005506455496 Eh               0.00150 eV
Free-energy (cav+disp)  :  This term is not implemented in the current solvation scheme

---------------
SCF CONVERGENCE
---------------

  Last Energy change         ...    2.4425e-07  Tolerance :   1.0000e-08
  Last MAX-Density change    ...    1.6582e-03  Tolerance :   1.0000e-07
  Last RMS-Density change    ...    2.0905e-05  Tolerance :   5.0000e-09
  Last DIIS Error            ...    8.5372e-04  Tolerance :   5.0000e-07
  Last Orbital Gradient      ...    1.8768e-06  Tolerance :   1.0000e-05
  Last Orbital Rotation      ...    8.3943e-06  Tolerance :   1.0000e-05


----------------
ORBITAL ENERGIES
----------------

  NO   OCC          E(Eh)            E(eV) 
   0   2.0000     -14.124805      -384.3555 
   1   2.0000     -14.124801      -384.3554 
   2   2.0000     -14.124786      -384.3550 
   3   2.0000     -14.124783      -384.3549 
   4   2.0000     -10.023152      -272.7438 
   5   2.0000     -10.023141      -272.7435 
   6   2.0000     -10.023114      -272.7428 
   7   2.0000     -10.023102      -272.7425 
   8   2.0000     -10.023069      -272.7416 
   9   2.0000     -10.023066      -272.7415 
  10   2.0000     -10.023058      -272.7413 
  11   2.0000     -10.023052      -272.7411 
  12   2.0000     -10.008412      -272.3427 
  13   2.0000     -10.008336      -272.3407 
  14   2.0000     -10.008299      -272.3397 
  15   2.0000     -10.008291      -272.3394 
  16   2.0000     -10.002227      -272.1744 
  17   2.0000     -10.002171      -272.1729 
  18   2.0000     -10.002144      -272.1722 
  19   2.0000     -10.002137      -272.1720 
  20   2.0000      -9.990464      -271.8544 
  21   2.0000      -9.990452      -271.8540 
  22   2.0000      -9.990439      -271.8537 
  23   2.0000      -9.990435      -271.8536 
  24   2.0000      -9.990427      -271.8534 
  25   2.0000      -9.990425      -271.8533 
  26   2.0000      -9.990418      -271.8531 
  27   2.0000      -9.990407      -271.8528 
  28   2.0000      -9.990074      -271.8437 
  29   2.0000      -9.990053      -271.8432 
  30   2.0000      -9.990050      -271.8431 
  31   2.0000      -9.990040      -271.8428 
  32   2.0000      -9.989940      -271.8401 
  33   2.0000      -9.989923      -271.8396 
  34   2.0000      -9.989922      -271.8396 
  35   2.0000      -9.989912      -271.8393 
  36   2.0000      -9.989476      -271.8275 
  37   2.0000      -9.989450      -271.8268 
  38   2.0000      -9.989446      -271.8266 
  39   2.0000      -9.989435      -271.8263 
  40   2.0000      -9.985177      -271.7105 
  41   2.0000      -9.985173      -271.7104 
  42   2.0000      -9.985155      -271.7099 
  43   2.0000      -9.985152      -271.7098 
  44   2.0000      -9.984615      -271.6952 
  45   2.0000      -9.984611      -271.6951 
  46   2.0000      -9.984593      -271.6946 
  47   2.0000      -9.984590      -271.6945 
  48   2.0000      -3.363057       -91.5134 
  49   2.0000      -2.082754       -56.6746 
  50   2.0000      -2.082752       -56.6746 
  51   2.0000      -2.044349       -55.6296 
  52   2.0000      -0.910255       -24.7693 
  53   2.0000      -0.900508       -24.5041 
  54   2.0000      -0.900501       -24.5039 
  55   2.0000      -0.892290       -24.2804 
  56   2.0000      -0.809772       -22.0350 
  57   2.0000      -0.805970       -21.9316 
  58   2.0000      -0.805937       -21.9307 
  59   2.0000      -0.804291       -21.8859 
  60   2.0000      -0.768888       -20.9225 
  61   2.0000      -0.751815       -20.4579 
  62   2.0000      -0.751799       -20.4575 
  63   2.0000      -0.735067       -20.0022 
  64   2.0000      -0.716008       -19.4836 
  65   2.0000      -0.716002       -19.4834 
  66   2.0000      -0.715815       -19.4783 
  67   2.0000      -0.713013       -19.4021 
  68   2.0000      -0.693975       -18.8840 
  69   2.0000      -0.693930       -18.8828 
  70   2.0000      -0.693910       -18.8823 
  71   2.0000      -0.693900       -18.8820 
  72   2.0000      -0.688893       -18.7457 
  73   2.0000      -0.682422       -18.5697 
  74   2.0000      -0.682412       -18.5694 
  75   2.0000      -0.667361       -18.1598 
  76   2.0000      -0.658842       -17.9280 
  77   2.0000      -0.610832       -16.6216 
  78   2.0000      -0.610811       -16.6210 
  79   2.0000      -0.573276       -15.5996 
  80   2.0000      -0.560172       -15.2431 
  81   2.0000      -0.560035       -15.2393 
  82   2.0000      -0.559968       -15.2375 
  83   2.0000      -0.559926       -15.2364 
  84   2.0000      -0.555944       -15.1280 
  85   2.0000      -0.555749       -15.1227 
  86   2.0000      -0.549450       -14.9513 
  87   2.0000      -0.548185       -14.9169 
  88   2.0000      -0.538592       -14.6558 
  89   2.0000      -0.519817       -14.1449 
  90   2.0000      -0.519790       -14.1442 
  91   2.0000      -0.510338       -13.8870 
  92   2.0000      -0.506366       -13.7789 
  93   2.0000      -0.504454       -13.7269 
  94   2.0000      -0.485825       -13.2200 
  95   2.0000      -0.485791       -13.2190 
  96   2.0000      -0.485320       -13.2062 
  97   2.0000      -0.478861       -13.0305 
  98   2.0000      -0.474604       -12.9146 
  99   2.0000      -0.474564       -12.9136 
 100   2.0000      -0.461167       -12.5490 
 101   2.0000      -0.449261       -12.2250 
 102   2.0000      -0.449152       -12.2220 
 103   2.0000      -0.423005       -11.5105 
 104   2.0000      -0.417697       -11.3661 
 105   2.0000      -0.415153       -11.2969 
 106   2.0000      -0.415027       -11.2935 
 107   2.0000      -0.413091       -11.2408 
 108   2.0000      -0.412528       -11.2255 
 109   2.0000      -0.412220       -11.2171 
 110   2.0000      -0.410554       -11.1717 
 111   2.0000      -0.408282       -11.1099 
 112   2.0000      -0.389264       -10.5924 
 113   2.0000      -0.385794       -10.4980 
 114   2.0000      -0.384275       -10.4567 
 115   2.0000      -0.384222       -10.4552 
 116   2.0000      -0.382967       -10.4211 
 117   2.0000      -0.382032       -10.3956 
 118   2.0000      -0.381997       -10.3947 
 119   2.0000      -0.381489       -10.3808 
 120   2.0000      -0.380714       -10.3598 
 121   2.0000      -0.380150       -10.3444 
 122   2.0000      -0.380138       -10.3441 
 123   2.0000      -0.378136       -10.2896 
 124   2.0000      -0.372288       -10.1305 
 125   2.0000      -0.364421        -9.9164 
 126   2.0000      -0.364377        -9.9152 
 127   2.0000      -0.363654        -9.8955 
 128   2.0000      -0.359429        -9.7806 
 129   2.0000      -0.357247        -9.7212 
 130   2.0000      -0.345921        -9.4130 
 131   2.0000      -0.340407        -9.2629 
 132   2.0000      -0.340400        -9.2628 
 133   2.0000      -0.337418        -9.1816 
 134   2.0000      -0.330766        -9.0006 
 135   2.0000      -0.330723        -8.9994 
 136   2.0000      -0.326545        -8.8857 
 137   2.0000      -0.319209        -8.6861 
 138   2.0000      -0.313816        -8.5394 
 139   2.0000      -0.312923        -8.5151 
 140   2.0000      -0.309802        -8.4301 
 141   2.0000      -0.309754        -8.4288 
 142   2.0000      -0.309377        -8.4186 
 143   2.0000      -0.309309        -8.4167 
 144   2.0000      -0.308760        -8.4018 
 145   2.0000      -0.305153        -8.3036 
 146   2.0000      -0.287798        -7.8314 
 147   2.0000      -0.287522        -7.8239 
 148   2.0000      -0.287253        -7.8166 
 149   2.0000      -0.264603        -7.2002 
 150   2.0000      -0.264567        -7.1992 
 151   2.0000      -0.257835        -7.0160 
 152   2.0000      -0.257493        -7.0067 
 153   2.0000      -0.250485        -6.8161 
 154   2.0000      -0.239492        -6.5169 
 155   2.0000      -0.236640        -6.4393 
 156   2.0000      -0.235913        -6.4195 
 157   2.0000      -0.234341        -6.3767 
 158   2.0000      -0.234194        -6.3727 
 159   2.0000      -0.233205        -6.3458 
 160   2.0000      -0.232135        -6.3167 
 161   2.0000      -0.231878        -6.3097 
 162   2.0000      -0.229825        -6.2538 
 163   2.0000      -0.226081        -6.1520 
 164   2.0000      -0.206812        -5.6276 
 165   2.0000      -0.197411        -5.3718 
 166   2.0000      -0.197396        -5.3714 
 167   2.0000      -0.188950        -5.1416 
 168   2.0000      -0.184026        -5.0076 
 169   0.0000      -0.104838        -2.8528 
 170   0.0000      -0.104786        -2.8514 
 171   0.0000      -0.071529        -1.9464 
 172   0.0000      -0.055869        -1.5203 
 173   0.0000      -0.041873        -1.1394 
 174   0.0000      -0.040692        -1.1073 
 175   0.0000      -0.040686        -1.1071 
 176   0.0000      -0.039586        -1.0772 
 177   0.0000      -0.039118        -1.0644 
 178   0.0000      -0.038479        -1.0471 
 179   0.0000      -0.037547        -1.0217 
*Only the first 10 virtual orbitals were printed.

                    ********************************
                    * MULLIKEN POPULATION ANALYSIS *
                    ********************************

-----------------------
MULLIKEN ATOMIC CHARGES
-----------------------
   0 N :   -0.245282
   1 H :    0.138994
   2 C :   -0.194555
   3 C :   -0.194287
   4 N :   -0.245427
   5 C :   -0.194474
   6 H :    0.139168
   7 C :    0.292903
   8 N :   -0.245267
   9 C :   -0.194651
  10 C :   -0.150595
  11 C :    0.292080
  12 N :   -0.245206
  13 C :   -0.194627
  14 C :    0.293136
  15 C :    0.293802
  16 C :    0.293319
  17 C :    0.293685
  18 C :   -0.194275
  19 C :   -0.149697
  20 C :   -0.150302
  21 C :   -0.194365
  22 C :    0.292905
  23 C :   -0.194516
  24 C :   -0.146993
  25 C :    0.292245
  26 H :    0.138989
  27 H :    0.139237
  28 H :    0.139057
  29 H :    0.139475
  30 H :    0.139492
  31 H :    0.139097
  32 Pd:    0.112981
  33 C :   -0.050434
  34 C :   -0.125782
  35 C :   -0.154279
  36 C :   -0.075407
  37 C :   -0.154187
  38 C :   -0.125115
  39 H :    0.113793
  40 H :    0.114988
  41 H :    0.118856
  42 H :    0.115071
  43 H :    0.113835
  44 C :   -0.044853
  45 C :   -0.130508
  46 C :   -0.151438
  47 C :   -0.077183
  48 C :   -0.151312
  49 C :   -0.130527
  50 H :    0.113704
  51 H :    0.115197
  52 H :    0.118870
  53 H :    0.115185
  54 H :    0.113687
  55 C :   -0.049216
  56 C :   -0.126053
  57 C :   -0.153537
  58 C :   -0.075746
  59 C :   -0.153832
  60 C :   -0.126786
  61 H :    0.113789
  62 H :    0.115100
  63 H :    0.118840
  64 H :    0.115024
  65 H :    0.113785
  66 C :   -0.038772
  67 C :   -0.136077
  68 C :   -0.148398
  69 C :   -0.078753
  70 C :   -0.148424
  71 C :   -0.136012
  72 H :    0.113619
  73 H :    0.115346
  74 H :    0.118949
  75 H :    0.115332
  76 H :    0.113617
Sum of atomic charges:    0.0000000

--------------------------------
MULLIKEN REDUCED ORBITAL CHARGES
--------------------------------
  0 N s       :     3.584663  s :     3.584663
      pz      :     1.357771  p :     3.576911
      px      :     1.144590
      py      :     1.074549
      dz2     :     0.005316  d :     0.079483
      dxz     :     0.012617
      dyz     :     0.015607
      dx2y2   :     0.022013
      dxy     :     0.023931
      f0      :     0.000726  f :     0.004224
      f+1     :     0.000444
      f-1     :     0.000459
      f+2     :     0.000226
      f-2     :     0.000632
      f+3     :     0.000683
      f-3     :     0.001055

  1 H s       :     0.840616  s :     0.840616
      pz      :     0.004795  p :     0.020390
      px      :     0.007695
      py      :     0.007900

  2 C s       :     3.295132  s :     3.295132
      pz      :     0.991292  p :     2.801427
      px      :     0.893276
      py      :     0.916858
      dz2     :     0.005600  d :     0.089897
      dxz     :     0.010157
      dyz     :     0.019186
      dx2y2   :     0.019307
      dxy     :     0.035648
      f0      :     0.001352  f :     0.008099
      f+1     :     0.000858
      f-1     :     0.000587
      f+2     :     0.001043
      f-2     :     0.000454
      f+3     :     0.002364
      f-3     :     0.001440

  3 C s       :     3.295110  s :     3.295110
      pz      :     0.991108  p :     2.801177
      px      :     0.915362
      py      :     0.894707
      dz2     :     0.005255  d :     0.089901
      dxz     :     0.019725
      dyz     :     0.010018
      dx2y2   :     0.019251
      dxy     :     0.035653
      f0      :     0.001398  f :     0.008099
      f+1     :     0.000510
      f-1     :     0.000858
      f+2     :     0.001084
      f-2     :     0.000453
      f+3     :     0.001416
      f-3     :     0.002380

  4 N s       :     3.584592  s :     3.584592
      pz      :     1.358335  p :     3.577127
      px      :     1.072353
      py      :     1.146438
      dz2     :     0.005254  d :     0.079483
      dxz     :     0.015854
      dyz     :     0.012410
      dx2y2   :     0.022009
      dxy     :     0.023956
      f0      :     0.000730  f :     0.004224
      f+1     :     0.000449
      f-1     :     0.000450
      f+2     :     0.000222
      f-2     :     0.000629
      f+3     :     0.001061
      f-3     :     0.000682

  5 C s       :     3.295240  s :     3.295240
      pz      :     0.992793  p :     2.801232
      px      :     0.916773
      py      :     0.891666
      dz2     :     0.005416  d :     0.089903
      dxz     :     0.017581
      dyz     :     0.011931
      dx2y2   :     0.019017
      dxy     :     0.035958
      f0      :     0.001382  f :     0.008098
      f+1     :     0.000577
      f-1     :     0.000818
      f+2     :     0.001365
      f-2     :     0.000155
      f+3     :     0.001509
      f-3     :     0.002292

  6 H s       :     0.840433  s :     0.840433
      pz      :     0.004840  p :     0.020399
      px      :     0.006356
      py      :     0.009203

  7 C s       :     3.138089  s :     3.138089
      pz      :     0.947496  p :     2.385829
      px      :     0.715541
      py      :     0.722792
      dz2     :     0.005760  d :     0.168193
      dxz     :     0.029735
      dyz     :     0.037517
      dx2y2   :     0.049224
      dxy     :     0.045957
      f0      :     0.002093  f :     0.014985
      f+1     :     0.000933
      f-1     :     0.001117
      f+2     :     0.000774
      f-2     :     0.002409
      f+3     :     0.003811
      f-3     :     0.003848

  8 N s       :     3.584617  s :     3.584617
      pz      :     1.358682  p :     3.576943
      px      :     1.072217
      py      :     1.146044
      dz2     :     0.005271  d :     0.079483
      dxz     :     0.015862
      dyz     :     0.012404
      dx2y2   :     0.022000
      dxy     :     0.023946
      f0      :     0.000728  f :     0.004224
      f+1     :     0.000450
      f-1     :     0.000452
      f+2     :     0.000224
      f-2     :     0.000629
      f+3     :     0.001060
      f-3     :     0.000681

  9 C s       :     3.294942  s :     3.294942
      pz      :     0.991924  p :     2.801718
      px      :     0.917177
      py      :     0.892616
      dz2     :     0.005499  d :     0.089893
      dxz     :     0.017617
      dyz     :     0.011866
      dx2y2   :     0.018991
      dxy     :     0.035921
      f0      :     0.001376  f :     0.008098
      f+1     :     0.000573
      f-1     :     0.000825
      f+2     :     0.001366
      f-2     :     0.000165
      f+3     :     0.001504
      f-3     :     0.002289

 10 C s       :     3.400837  s :     3.400837
      pz      :     0.967932  p :     2.610613
      px      :     0.814060
      py      :     0.828620
      dz2     :     0.003432  d :     0.129175
      dxz     :     0.023611
      dyz     :     0.024855
      dx2y2   :     0.030869
      dxy     :     0.046408
      f0      :     0.001532  f :     0.009971
      f+1     :     0.000754
      f-1     :     0.000767
      f+2     :     0.000950
      f-2     :     0.001153
      f+3     :     0.002812
      f-3     :     0.002003

 11 C s       :     3.139103  s :     3.139103
      pz      :     0.949123  p :     2.385574
      px      :     0.709975
      py      :     0.726477
      dz2     :     0.005783  d :     0.168255
      dxz     :     0.028462
      dyz     :     0.038630
      dx2y2   :     0.045700
      dxy     :     0.049681
      f0      :     0.002095  f :     0.014988
      f+1     :     0.000865
      f-1     :     0.001185
      f+2     :     0.001231
      f-2     :     0.001960
      f+3     :     0.002663
      f-3     :     0.004989

 12 N s       :     3.584655  s :     3.584655
      pz      :     1.357663  p :     3.576843
      px      :     1.144669
      py      :     1.074511
      dz2     :     0.005313  d :     0.079485
      dxz     :     0.012619
      dyz     :     0.015610
      dx2y2   :     0.022013
      dxy     :     0.023931
      f0      :     0.000726  f :     0.004224
      f+1     :     0.000443
      f-1     :     0.000459
      f+2     :     0.000226
      f-2     :     0.000632
      f+3     :     0.000683
      f-3     :     0.001055

 13 C s       :     3.295093  s :     3.295093
      pz      :     0.991223  p :     2.801568
      px      :     0.891756
      py      :     0.918589
      dz2     :     0.005422  d :     0.089868
      dxz     :     0.012284
      dyz     :     0.017284
      dx2y2   :     0.018998
      dxy     :     0.035878
      f0      :     0.001364  f :     0.008099
      f+1     :     0.000769
      f-1     :     0.000657
      f+2     :     0.001336
      f-2     :     0.000170
      f+3     :     0.002273
      f-3     :     0.001531

 14 C s       :     3.137603  s :     3.137603
      pz      :     0.948464  p :     2.386039
      px      :     0.720828
      py      :     0.716747
      dz2     :     0.005622  d :     0.168236
      dxz     :     0.038316
      dyz     :     0.029209
      dx2y2   :     0.049089
      dxy     :     0.046000
      f0      :     0.002119  f :     0.014986
      f+1     :     0.001069
      f-1     :     0.000942
      f+2     :     0.000802
      f-2     :     0.002381
      f+3     :     0.003870
      f-3     :     0.003802

 15 C s       :     3.138038  s :     3.138038
      pz      :     0.947748  p :     2.384919
      px      :     0.725677
      py      :     0.711494
      dz2     :     0.005453  d :     0.168254
      dxz     :     0.039597
      dyz     :     0.027988
      dx2y2   :     0.045496
      dxy     :     0.049719
      f0      :     0.002121  f :     0.014987
      f+1     :     0.001114
      f-1     :     0.000896
      f+2     :     0.001205
      f-2     :     0.001967
      f+3     :     0.005013
      f-3     :     0.002671

 16 C s       :     3.138173  s :     3.138173
      pz      :     0.948611  p :     2.385250
      px      :     0.709843
      py      :     0.726796
      dz2     :     0.005822  d :     0.168270
      dxz     :     0.028466
      dyz     :     0.038632
      dx2y2   :     0.045680
      dxy     :     0.049669
      f0      :     0.002096  f :     0.014987
      f+1     :     0.000862
      f-1     :     0.001187
      f+2     :     0.001231
      f-2     :     0.001961
      f+3     :     0.002666
      f-3     :     0.004984

 17 C s       :     3.137412  s :     3.137412
      pz      :     0.948449  p :     2.385693
      px      :     0.715566
      py      :     0.721678
      dz2     :     0.005802  d :     0.168224
      dxz     :     0.029659
      dyz     :     0.037505
      dx2y2   :     0.049253
      dxy     :     0.046005
      f0      :     0.002089  f :     0.014986
      f+1     :     0.000938
[...]
  0-1A  -> 26-1A    3.538113   28536.8   350.4   0.000017463   0.00020   0.00807   0.01161  -0.00117
  0-1A  -> 27-1A    3.583031   28899.1   346.0   0.000016664   0.00019   0.01044   0.00894  -0.00089
  0-1A  -> 28-1A    3.583689   28904.4   346.0   0.000067387   0.00077   0.01977  -0.01909   0.00352
  0-1A  -> 29-1A    3.586016   28923.2   345.7   0.016821485   0.19147  -0.34277   0.26827  -0.04483
  0-1A  -> 30-1A    3.587253   28933.2   345.6   0.016772434   0.19084  -0.27142  -0.34014   0.03843

----------------------------------------------------------------------------------------------------
                     ABSORPTION SPECTRUM VIA TRANSITION VELOCITY DIPOLE MOMENTS    
----------------------------------------------------------------------------------------------------
     Transition      Energy     Energy  Wavelength fosc(P2)      P2        PX        PY        PZ   
                      (eV)      (cm-1)    (nm)                 (au**2)    (au)      (au)      (au)  
----------------------------------------------------------------------------------------------------
  0-1A  ->  1-1A    2.345347   18916.5   528.6   0.002360785   0.00031   0.01045  -0.01400   0.00039
  0-1A  ->  2-1A    2.345357   18916.6   528.6   0.003057540   0.00040   0.01520   0.01271  -0.00159
  0-1A  ->  3-1A    2.567939   20711.8   482.8   0.000000015   0.00000  -0.00001   0.00001  -0.00004
  0-1A  ->  4-1A    2.604868   21009.7   476.0   0.000000165   0.00000   0.00011   0.00010  -0.00002
  0-1A  ->  5-1A    2.611625   21064.2   474.7   0.000000466   0.00000  -0.00017   0.00016  -0.00012
  0-1A  ->  6-1A    2.779230   22416.0   446.1   0.000000024   0.00000   0.00002  -0.00006  -0.00001
  0-1A  ->  7-1A    2.780602   22427.1   445.9   0.000002892   0.00000   0.00040   0.00053  -0.00006
  0-1A  ->  8-1A    2.827844   22808.1   438.4   0.000000043   0.00000   0.00002   0.00008  -0.00000
  0-1A  ->  9-1A    2.972296   23973.2   417.1   1.172989665   0.19219  -0.29120  -0.32575   0.03580
  0-1A  -> 10-1A    2.973368   23981.8   417.0   1.161830147   0.19043   0.32612  -0.28929   0.01968
  0-1A  -> 11-1A    3.088728   24912.3   401.4   0.004927275   0.00084   0.01752   0.02293  -0.00246
  0-1A  -> 12-1A    3.198868   25800.6   387.6   0.000767770   0.00014   0.00926  -0.00704   0.00044
  0-1A  -> 13-1A    3.398140   27407.9   364.9   0.033899427   0.00635   0.05912  -0.05329   0.00387
  0-1A  -> 14-1A    3.399632   27419.9   364.7   0.032117845   0.00602  -0.05204  -0.05720   0.00627
  0-1A  -> 15-1A    3.405697   27468.8   364.0   0.000370805   0.00007   0.00632   0.00545  -0.00021
  0-1A  -> 16-1A    3.406002   27471.3   364.0   0.005889062   0.00111   0.02155   0.02516  -0.00290
  0-1A  -> 17-1A    3.459551   27903.2   358.4   0.000006750   0.00000  -0.00066   0.00085  -0.00037
  0-1A  -> 18-1A    3.461211   27916.5   358.2   0.001203282   0.00023  -0.00363   0.00362  -0.01426
  0-1A  -> 19-1A    3.468615   27976.3   357.4   0.000325577   0.00006  -0.00455  -0.00626   0.00152
  0-1A  -> 20-1A    3.473101   28012.4   357.0   0.011596830   0.00222  -0.03536   0.02849  -0.01258
  0-1A  -> 21-1A    3.498587   28218.0   354.4   0.000454052   0.00009   0.00741  -0.00525   0.00224
  0-1A  -> 22-1A    3.499204   28223.0   354.3   0.001079777   0.00021  -0.00899  -0.01122   0.00127
  0-1A  -> 23-1A    3.524623   28428.0   351.8   0.000004867   0.00000  -0.00046   0.00080  -0.00029
  0-1A  -> 24-1A    3.528901   28462.5   351.3   0.000078265   0.00002   0.00278  -0.00251  -0.00110
  0-1A  -> 25-1A    3.529717   28469.1   351.3   0.000011484   0.00000   0.00110   0.00097  -0.00028
  0-1A  -> 26-1A    3.538113   28536.8   350.4   0.000016384   0.00000  -0.00101  -0.00146   0.00015
  0-1A  -> 27-1A    3.583031   28899.1   346.0   0.000016183   0.00000  -0.00136  -0.00116   0.00012
  0-1A  -> 28-1A    3.583689   28904.4   346.0   0.000064315   0.00001  -0.00254   0.00246  -0.00043
  0-1A  -> 29-1A    3.586016   28923.2   345.7   0.015674169   0.00310   0.04360  -0.03411   0.00584
  0-1A  -> 30-1A    3.587253   28933.2   345.6   0.015615636   0.00309   0.03452   0.04327  -0.00489

------------------------------------------------------------------------------------------
                     CD SPECTRUM VIA TRANSITION ELECTRIC DIPOLE MOMENTS    
------------------------------------------------------------------------------------------
     Transition      Energy     Energy  Wavelength    R        MX        MY        MZ   
                      (eV)      (cm-1)    (nm)   (1e40*cgs)   (au)      (au)      (au)  
------------------------------------------------------------------------------------------
  0-1A  ->  1-1A    2.345347   18916.5   528.6    0.01113  -0.00040  -0.00045  -0.00033
  0-1A  ->  2-1A    2.345357   18916.6   528.6    0.33154   0.00188   0.00231  -0.00032
  0-1A  ->  3-1A    2.567939   20711.8   482.8   -0.14651   0.01852   0.09696   1.03250
  0-1A  ->  4-1A    2.604868   21009.7   476.0   -0.00065  -0.00065  -0.00098  -0.00314
  0-1A  ->  5-1A    2.611625   21064.2   474.7   -0.00377   0.00176   0.00028   0.01585
  0-1A  ->  6-1A    2.779230   22416.0   446.1    0.01107   0.06764  -0.05536  -0.00161
  0-1A  ->  7-1A    2.780602   22427.1   445.9   -0.26457  -0.05500  -0.06743   0.00695
  0-1A  ->  8-1A    2.827844   22808.1   438.4   -0.00063  -0.00152  -0.00156   0.00016
  0-1A  ->  9-1A    2.972296   23973.2   417.1   14.75625  -0.00456  -0.00610   0.00051
  0-1A  -> 10-1A    2.973368   23981.8   417.0    0.06406  -0.00015  -0.00020   0.00028
  0-1A  -> 11-1A    3.088728   24912.3   401.4    0.06979   0.00033   0.00046  -0.00005
  0-1A  -> 12-1A    3.198868   25800.6   387.6   -0.00148  -0.00019  -0.00071  -0.00809
  0-1A  -> 13-1A    3.398140   27407.9   364.9    1.85470   0.00442  -0.00382   0.00163
  0-1A  -> 14-1A    3.399632   27419.9   364.7    7.58414  -0.01647  -0.01842   0.00198
  0-1A  -> 15-1A    3.405697   27468.8   364.0   -0.35529   0.06717  -0.09316  -0.00152
  0-1A  -> 16-1A    3.406002   27471.3   364.0  -13.78901  -0.09039  -0.06167   0.00990
  0-1A  -> 17-1A    3.459551   27903.2   358.4   -0.00355  -0.00002  -0.00109   0.00008
  0-1A  -> 18-1A    3.461211   27916.5   358.2   -0.29027  -0.00112   0.00159   0.00623
  0-1A  -> 19-1A    3.468615   27976.3   357.4    0.25420  -0.00546  -0.00634   0.00061
  0-1A  -> 20-1A    3.473101   28012.4   357.0   -2.56304   0.01182  -0.01044  -0.00324
  0-1A  -> 21-1A    3.498587   28218.0   354.4    2.91948   0.05452  -0.04474   0.06309
  0-1A  -> 22-1A    3.499204   28223.0   354.3   -5.05098   0.06315   0.06828  -0.00616
  0-1A  -> 23-1A    3.524623   28428.0   351.8    0.05292   0.02232  -0.04070  -0.18386
  0-1A  -> 24-1A    3.528901   28462.5   351.3    1.74885   0.02678  -0.05102  -0.24649
  0-1A  -> 25-1A    3.529717   28469.1   351.3   -0.03608  -0.00343  -0.01230  -0.02361
  0-1A  -> 26-1A    3.538113   28536.8   350.4   -0.10207   0.01008   0.01153  -0.00101
  0-1A  -> 27-1A    3.583031   28899.1   346.0   -1.23061   0.10464   0.16768  -0.02023
  0-1A  -> 28-1A    3.583689   28904.4   346.0    2.52776  -0.16855   0.10289  -0.01864
  0-1A  -> 29-1A    3.586016   28923.2   345.7   -1.21623  -0.00540   0.00234  -0.00231
  0-1A  -> 30-1A    3.587253   28933.2   345.6   -1.97630  -0.00605  -0.00734   0.00140

------------------------------------------------------------------------------------------
                     CD SPECTRUM VIA TRANSITION VELOCITY DIPOLE MOMENTS    
------------------------------------------------------------------------------------------
     Transition      Energy     Energy  Wavelength    R        MX        MY        MZ   
                      (eV)      (cm-1)    (nm)   (1e40*cgs)   (au)      (au)      (au)  
------------------------------------------------------------------------------------------
  0-1A  ->  1-1A    2.345347   18916.5   528.6    0.01083  -0.00040  -0.00045  -0.00033
  0-1A  ->  2-1A    2.345357   18916.6   528.6    0.31975   0.00188   0.00231  -0.00032
  0-1A  ->  3-1A    2.567939   20711.8   482.8   -0.22973   0.01852   0.09696   1.03250
  0-1A  ->  4-1A    2.604868   21009.7   476.0   -0.00060  -0.00065  -0.00098  -0.00314
  0-1A  ->  5-1A    2.611625   21064.2   474.7   -0.01039   0.00176   0.00028   0.01585
  0-1A  ->  6-1A    2.779230   22416.0   446.1    0.02021   0.06764  -0.05536  -0.00161
  0-1A  ->  7-1A    2.780602   22427.1   445.9   -0.26800  -0.05500  -0.06743   0.00695
  0-1A  ->  8-1A    2.827844   22808.1   438.4   -0.00071  -0.00152  -0.00156   0.00016
  0-1A  ->  9-1A    2.972296   23973.2   417.1   14.39143  -0.00456  -0.00610   0.00051
  0-1A  -> 10-1A    2.973368   23981.8   417.0    0.06259  -0.00015  -0.00020   0.00028
  0-1A  -> 11-1A    3.088728   24912.3   401.4    0.06809   0.00033   0.00046  -0.00005
  0-1A  -> 12-1A    3.198868   25800.6   387.6   -0.00151  -0.00019  -0.00071  -0.00809
  0-1A  -> 13-1A    3.398140   27407.9   364.9    1.77893   0.00442  -0.00382   0.00163
  0-1A  -> 14-1A    3.399632   27419.9   364.7    7.25541  -0.01647  -0.01842   0.00198
  0-1A  -> 15-1A    3.405697   27468.8   364.0   -0.31104   0.06717  -0.09316  -0.00152
  0-1A  -> 16-1A    3.406002   27471.3   364.0  -13.28757  -0.09039  -0.06167   0.00990
  0-1A  -> 17-1A    3.459551   27903.2   358.4   -0.00348  -0.00002  -0.00109   0.00008
  0-1A  -> 18-1A    3.461211   27916.5   358.2   -0.29293  -0.00112   0.00159   0.00623
  0-1A  -> 19-1A    3.468615   27976.3   357.4    0.24204  -0.00546  -0.00634   0.00061
  0-1A  -> 20-1A    3.473101   28012.4   357.0   -2.49162   0.01182  -0.01044  -0.00324
  0-1A  -> 21-1A    3.498587   28218.0   354.4    2.86291   0.05452  -0.04474   0.06309
  0-1A  -> 22-1A    3.499204   28223.0   354.3   -4.91813   0.06315   0.06828  -0.00616
  0-1A  -> 23-1A    3.524623   28428.0   351.8    0.03902   0.02232  -0.04070  -0.18386
  0-1A  -> 24-1A    3.528901   28462.5   351.3    1.72526   0.02678  -0.05102  -0.24649
  0-1A  -> 25-1A    3.529717   28469.1   351.3   -0.03347  -0.00343  -0.01230  -0.02361
  0-1A  -> 26-1A    3.538113   28536.8   350.4   -0.09885   0.01008   0.01153  -0.00101
  0-1A  -> 27-1A    3.583031   28899.1   346.0   -1.21268   0.10464   0.16768  -0.02023
  0-1A  -> 28-1A    3.583689   28904.4   346.0    2.46931  -0.16855   0.10289  -0.01864
  0-1A  -> 29-1A    3.586016   28923.2   345.7   -1.17497  -0.00540   0.00234  -0.00231
  0-1A  -> 30-1A    3.587253   28933.2   345.6   -1.90694  -0.00605  -0.00734   0.00140

Total run time:     7217.779 sec

           *** ORCA-CIS/TD-DFT FINISHED WITHOUT ERROR ***
-----------------------
CIS/TD-DFT TOTAL ENERGY
-----------------------

    E(SCF)  =  -2041.579772151 Eh
    DE(CIS) =      0.086189932 Eh (Root  1)
    ----------------------------- ---------
    E(tot)  =  -2041.493582219 Eh


Maximum memory used throughout the entire CIS-calculation: 2982.8 MB
=> NOW LEAVING ORCA_CIS

-------------------------   --------------------
FINAL SINGLE POINT ENERGY     -2041.493582218552
-------------------------   --------------------



           ************************************************************
           *        Program running with 8 parallel MPI-processes     *
           *              working on a common directory               *
           ************************************************************

------------------------------------------------------------------------------
                              ORCA PROPERTY CALCULATIONS
------------------------------------------------------------------------------

GBWName                                 ... tddft.gbw
Number of atoms                         ...     77
Number of basis functions               ...   1696
Max core memory                         ...   3000 MB

Electric properties:
Dipole moment                           ... YES
Quadrupole moment                       ...  NO
Static polarizability (Dipole/Dipole)   ...  NO
Static polarizability (Dipole/Quad.)    ...  NO
Static polarizability (Quad./Quad.)     ...  NO
Static polarizability (Velocity)        ...  NO
Static hyperpolarizability              ...  NO

Atomic electric properties:
Dipole moment                           ...  NO
Quadrupole moment                       ...  NO
Static polarizability                   ...  NO

Choice of electric origin               ... Center of mass
Position of electric origin             ...    -0.159753     5.088910     6.548211

General magnetic properties:
Magnetizability                         ...  NO

EPR properties:
g-Tensor (aka g-matrix)                 ...  NO
Zero-Field splitting spin-orbit         ...  NO
Zero-field splitting spin-spin          ...  NO
Hyperfine couplings                     ...  NO (   0 nuclei)
Quadrupole couplings                    ...  NO (   0 nuclei)
Contact density                         ...  NO (   0 nuclei)

NMR properties:
Chemical shifts                         ...  NO (   0 nuclei)
Spin-rotation constants                 ...  NO (   0 nuclei)
Spin-spin couplings                     ...  NO (   0 nuclei,    0 pairs)

Choice of magnetic origin               ... GIAO
Position of magnetic origin             ...     0.000000     0.000000     0.000000

Properties with geometric perturbations:
SCF Hessian                             ...  NO
IR spectrum                             ...  NO
VCD spectrum                            ...  NO
X-ray spectroscopy properties:
SCF XES/XAS/RIXS spectra                ...  NO

SCF SOC stabilization energy            ...  NO
Diagonal Born-Oppenheimer correction    ...  NO

-------------
DIPOLE MOMENT
-------------

Method             : SCF
Type of density    : Electron Density
Multiplicity       :   1
Irrep              :   0
Energy             : -2041.5797721510061820 Eh
Basis              : AO
                                X                 Y                 Z
Electronic contribution:     -0.004635283      -0.000607781       0.039653730
Nuclear contribution   :      0.005433271       0.002089139      -0.040561520
                        -----------------------------------------
Total Dipole Moment    :      0.000797988       0.001481358      -0.000907790
                        -----------------------------------------
Magnitude (a.u.)       :      0.001911881
Magnitude (Debye)      :      0.004859615



--------------------
Rotational spectrum 
--------------------
 
Rotational constants in cm-1:             0.001953             0.001952             0.001017 
Rotational constants in MHz :            58.536381            58.523332            30.495208 

Dipole components along the rotational axes: 
x,y,z [a.u.] :     0.000951     0.001478    -0.000753 
x,y,z [Debye]:     0.002418     0.003756    -0.001913 

 

Dipole moment calculation done in   0.3 sec 

Maximum memory used throughout the entire PROP-calculation: 233.3 MB

--------------------------------
SUGGESTED CITATIONS FOR THIS RUN
--------------------------------

Below you find a list of papers that are relevant to this ORCA run
We neither can nor want to force you to cite these papers, but we appreciate if you do
You receive ORCA, which is the product of decades of hard work by many enthusiastic individuals, for free
The only thing we kindly ask in return is that you cite our papers,
We deeply appreciate it, if you show your appreciation for ORCA by not just citing the generic ORCA reference.

Please note that relegating all ORCA citations to the supporting information does *not* help us.
SI sections are not indexed - citations you put there will not count into any citation statistics
But we need these citations in order to attract the funding resources that allow us to do what we are doing

Therefore, if you are a happy ORCA user, please consider citing a few of the papers listed below in the main body of your paper

In addition to the list printed below, the program has created the file tddft.bibtex that contains the list in bibtex format
You can import this file easily into all common literature databanks and citation aid programs

It goes without saying that in many instances, there are alternative algorithms to achieve similar
results as the ones you have gotten from ORCA. It is, of course, also the case that in some instances
ORCA just re-implements algorithms worked out by others. We are fully aware of that and we are also
fully appreciative of our colleagues work. Hence this citation list should not be read as indicating
that the listed papers, which are focused on our own work, are the only ones worth citing. It simply
meant to make it easier for users to cite ORCA specific papers. It is not a substitute for doing your
own literature research and citing the relevant literature in a scientifically appropriate manner.

List of essential papers. We consider these as the minimum necessary citations

  1. Neese, F.
     Software update: the ORCA program system, version 6.0
     WIRES Comput. Molec. Sci. 2025 15(1), e70019
     doi.org/10.1002/wcms.70019

List of papers to cite with high priority. The work reported in these papers was absolutely
necessary for this run to complete.
Our perspective: the developers of density functionals and basis sets usually get cited in chemistry papers
Good! But without the algorithms to do something with them, the functionals or basis sets would not do anything.
Hence, in our opinion, the algorithm design and method developments papers are equally worthy of getting cited

  1. Neese, F.; Olbrich, G.
     Efficient use of the resolution of the identity approximation in time-dependent density functional calculations with hybrid density functionals
     Chem. Phys. Lett. 2002 362 , 170-178
     doi.org/10.1016/s0009-2614(02)01053-9
  2. Neese, F.
     An improvement of the resolution of the identity approximation for the formation of the Coulomb matrix
     J. Comp. Chem. 2003 24(14), 1740-1747
     doi.org/10.1002/jcc.10318
  3. Garcia-Rates, M.; Neese, F.
     Effect of the Solute Cavity on the Solvation Energy and its Derivatives within the Framework of the Gaussian Charge Scheme
     J. Comput. Chem. 2020 41 , 922-939
     doi.org/10.1002/jcc.26139
  4. Neese, F.
     The SHARK Integral Generation and Digestion System
     J. Comp. Chem. 2022 44(3), 381
     doi.org/10.1002/jcc.26942

List of suggested additional citations. These are papers that are important in the 'surrounding' of 
of this run, or papers that preceded the highly important papers. If you like your results we are grateful for a citation.

  1. Neese, F.
     The ORCA program system
     WIRES Comput. Molec. Sci. 2012 2(1), 73-78
     doi.org/10.1002/wcms.81
  2. Neese, F.
     Software update: the ORCA program system, version 4.0
     WIRES Comput. Molec. Sci. 2018 8(1), 1-6
     doi.org/10.1002/wcms.1327
  3. Neese, F.; Wennmohs, F.; Becker, U.; Riplinger, C.
     The ORCA quantum chemistry program package
     J. Chem. Phys. 2020 152(22), 224108
     doi.org/10.1063/5.0004608
  4. Neese, F.
     Software update: The ORCA program system—Version 5.0
     WIRES Comput. Molec. Sci. 2022 12(1), e1606
     doi.org/10.1002/wcms.1606

List of optional additional citations

  1. Neese, F.
     Approximate second-order SCF convergence for spin unrestricted wavefunctions
     Chem. Phys. Lett. 2000 325(1-3), 93-98
     doi.org/10.1016/s0009-2614(00)00662-x

Timings for individual modules:

Sum of individual times          ...     8600.923 sec (= 143.349 min)
Startup calculation              ...       41.256 sec (=   0.688 min)   0.5 %
SCF iterations                   ...     1327.470 sec (=  22.124 min)  15.4 %
Property integrals               ...        6.047 sec (=   0.101 min)   0.1 %
Property calculations            ...        3.083 sec (=   0.051 min)   0.0 %
CIS module                       ...     7223.067 sec (= 120.384 min)  84.0 %
                             ****ORCA TERMINATED NORMALLY****
TOTAL RUN TIME: 0 days 2 hours 23 minutes 21 seconds 708 msec
