
                                 *****************
                                 * O   R   C   A *
                                 *****************

                                            #,                                       
                                            ###                                      
                                            ####                                     
                                            #####                                    
                                            ######                                   
                                           ########,                                 
                                     ,,################,,,,,                         
                               ,,#################################,,                 
                          ,,##########################################,,             
                       ,#########################################, ''#####,          
                    ,#############################################,,   '####,        
                  ,##################################################,,,,####,       
                ,###########''''           ''''###############################       
              ,#####''   ,,,,##########,,,,          '''####'''          '####       
            ,##' ,,,,###########################,,,                        '##       
           ' ,,###''''                  '''############,,,                           
         ,,##''                                '''############,,,,        ,,,,,,###''
      ,#''                                            '''#######################'''  
     '                                                          ''''####''''         
             ,#######,   #######,   ,#######,      ##                                
            ,#'     '#,  ##    ##  ,#'     '#,    #''#        ,####,    ,#,          
            ##       ##  ##   ,#'  ##            #'  '#       #'       ,# #          
            ##       ##  #######   ##           ,######,      #####,      #          
            '#,     ,#'  ##    ##  '#,     ,#' ,#      #,     #,   #      #          
             '#######'   ##     ##  '#######'  #'      '#     '####' #    #          



                #########################################################
                #                        -***-                          #
                #          Department of theory and spectroscopy        #
                #                                                       #
                #                      Frank Neese                      #
                #                                                       #
                #     Directorship, Architecture, Infrastructure        #
                #                    SHARK, DRIVERS                     #
                #        Core code/Algorithms in most modules           #
                #                                                       #
                #        Max Planck Institute fuer Kohlenforschung      #
                #                Kaiser Wilhelm Platz 1                 #
                #                 D-45470 Muelheim/Ruhr                 #
                #                      Germany                          #
                #                                                       #
                #                  All rights reserved                  #
                #                        -***-                          #
                #########################################################


                         Program Version 6.1.1  -  RELEASE   -
                                (GIT: $487d211c$)
                          ($2025-11-21 10:33:24 +0100$)


 With contributions from (in alphabetic order):
[Max-Planck-Institut fuer Kohlenforschung]                               
  Daniel Aravena         : Magnetic Suceptibility                        
  Michael Atanasov       : Ab Initio Ligand Field Theory (pilot matlab implementation)
  Alexander A. Auer      : GIAO ZORA, VPT2 properties, NMR spectrum      
  Ute Becker             : All parallelization in ORCA, NUMFREQ, NUMCALC 
  Giovanni Bistoni       : ED, misc. LED, open-shell LED, HFLD           
  Dmytro Bykov           : pre 5.0 version of the SCF Hessian            
  Marcos Casanova-Páez   : Triplet and SCS-CIS(D). UHF-(DLPNO)-IP/EA/STEOM-CCSD. UHF-CVS-IP/STEOM-CCSD   
  Vijay G. Chilkuri      : MRCI spin determinant printing, contributions to CSF-ICE 
  Pauline Colinet        : FMM embedding                                 
  Dipayan Datta          : RHF DLPNO-CCSD density                        
  Achintya Kumar Dutta   : EOM-CC, STEOM-CC                              
  Nicolas Foglia         : Exact transition moments, OPA infrastructure, MCD improvements    
  Dmitry Ganyushin       : Spin-Orbit,Spin-Spin,Magnetic field MRCI      
  Miquel Garcia-Rates    : C-PCM and meta-GGA Hessian, CCSD/C-PCM, Gaussian charge scheme 
  Tiago L. C. Gouveia    : GS-ROHF, GS-ROCIS                             
  Yang Guo               : DLPNO-NEVPT2, F12-NEVPT2, CIM, IAO-localization        
  Andreas Hansen         : Spin unrestricted coupled pair/coupled cluster methods 
  Ingolf Harden          : AUTO-CI MPn and infrastructure                
  Benjamin Helmich-Paris : MC-RPA, TRAH-(SCF,CASSCF), AVAS, COSX integrals, SCF dyn. polar., MC-PDFT, srDFT 
  Lee Huntington         : MR-EOM, pCC                                   
  Robert Izsak           : Overlap fitted RIJCOSX, COSX-SCS-MP3, EOM     
  Riya Kayal             : Wick's Theorem for AUTO-CI, AUTO-CI UHF-CCSDT 
  Emily Kempfer          : AUTO-CI RHF CISDT and CCSDT, approximate NEVPT4
  Christian Kollmar      : KDIIS, OOCD, Brueckner-CCSD(T), CCSD density, CASPT2, CASPT2-K, improved NEVPT2 
  Axel Koslowski         : Symmetry handling                             
  Simone Kossmann        : meta-GGA functionals, TD-DFT gradient, OOMP2, (MP2 Hessian; deprecated post 5.0) 
  Lucas Lang             : DCDCAS, Hyperfine gauge corrections, ICE-SOC+SSC
  Marvin Lechner         : AUTO-CI (C++ implementation), FIC-MRCC        
  Spencer Leger          : CASSCF response                               
  Dagmar Lenk            : GEPOL surface, SMD, ORCA-2-JSON               
  Dimitrios Liakos       : Extrapolation schemes; Compound Job, Property file
  Dimitrios Manganas     : Further ROCIS development; embedding schemes. LFT, Crystal Embedding 
  Dimitrios Pantazis     : SARC Basis sets                               
  Anastasios Papadopoulos: AUTO-CI, single reference methods and gradients 
  Taras Petrenko         : pre 6.0 DFT Hessian and TD-DFT gradient,  ECA, NRVS 
  Petra Pikulova         : Analytic Raman intensities                    
  Peter Pinski           : DLPNO-MP2, DLPNO-MP2 Gradient                 
  Shashank Vittal Rao    : ES-AILFT, MagRelax                            
  Christoph Reimann      : Effective Core Potentials                     
  Marius Retegan         : Local ZFS, SOC                                
  Christoph Riplinger    : Optimizer, TS searches, QM/MM, DLPNO-CCSD(T), (RO)-DLPNO pert. Triples 
  Michael Roemelt        : Original ROCIS implementation, recursive CI coupling coefficients
  Masaaki Saitow         : Open-shell DLPNO-CCSD energy and density      
  Barbara Sandhoefer     : DKH picture change effects                    
  Yorick L. A. Schmerwitz: GMF and freeze-and-release deltaSCF, NEB S-IDPP initial path                    
  Kantharuban Sivalingam : CASSCF convergence/infrastructure, NEVPT2, NEVPT3, NEVPT4(SD), FIC-MRCI and CEPA variants
  Bernardo de Souza      : ESD, SOC TD-DFT                               
  Georgi L. Stoychev     : AutoAux, RI-MP2 NMR, DLPNO-MP2 response, X2C  
  Van Anh Tran           : RI-MP2 g-tensors                              
  Willem Van den Heuvel  : Paramagnetic NMR                              
  Zikuan Wang            : NOTCH, Electric field optimization            
  Frank Wennmohs         : Technical directorship and infrastructure     
  Hang Xu                : AUTO-CI-Response properties                   
                                                                         
[FACCTs GmbH]                                                            
  Markus Bursch, Nicolas Foglia, Miquel Garcia-Rates, Ingolf Harden, Hagen Neugebauer, Anastasios Papadopoulos, 
  Christoph Riplinger, Bernardo de Souza, Georgi L. Stoychev                                                    
                                                                 
  APM, various basis sets, CI-OPT, improved COSX, DLPNO-Multilevel,           
  DOCKER, DRACO, updates on ESD, Fragmentator, GOAT, IRC, LR-CPCM, L-BFGS, MBIS, meta-GGA TD-DFT gradient, ML-optimized integration grids, 
  MM, NACMEs, nearIR, NEB, NEB-TS, NL-DFT gradient (VV10), 2- and 3-layer-ONIOM, interface openCOSMO-RS, QMMM,   
  Crystal-QMMM, RESP, rigid body optimization, SF, symmetry and pop. for TD-DFT, various functionals, SOLVATOR                                   
                                                                         
[Other institutions]                                                     
  V. Asgeirsson          : NEB                                           
  Christoph Bannwarth    : sTDA-DFT, sTD-DFT, PBEh-3c, B97-3c, D3        
  Giovanni Bistoni       : ETS/NOCV, ADLD/ADEX, COVALED                  
  Martin Brehm           : Molecular dynamics                            
  Ronald Cardenas        : ETS/NOCV                                      
  Martina Colucci        : COVALED                                       
  Sebastian Ehlert       : rSCAN, r2SCAN, r2SCAN-3c, D4, dhf basis sets  
  Marvin Friede          : D4 for Fr, Ra, Ac-Lr                          
  Lars Goerigk           : TD-DFT with DH, B97 family of functionals     
  Stefan Grimme          : VdW corrections, initial TS optimization, DFT functionals, gCP, sTDA/sTD-DF 
  Waldemar Hujo          : DFT-NL                                        
  H. Jonsson             : NEB                                           
  Holger Kruse           : gCP                                           
  Marcel Mueller         : wB97X-3c, vDZP basis set                      
  Hagen Neugebauer       : wr2SCAN, Native XTB                           
  Gianluca Regni         : ADLD/ADEX                                     
  Tobias Risthaus        : pre 6.0 range-separated hybrid DFT and stability analysis
  Lukas Wittmann         : regularized MP2, r2SCAN double-hybrids, wr2SCAN        
                                                                         
We gratefully acknowledge several colleagues who have allowed us to      
interface, adapt or use parts of their codes:                            
  Ed Valeev, F. Pavosevic, A. Kumar             : LibInt (2-el integral package), F12 methods 
  Garnet Chan, S. Sharma, J. Yang, R. Olivares  : DMRG                   
  Ulf Ekstrom                                   : XCFun DFT Library      
  Mihaly Kallay                                 : mrcc  (arbitrary order and MRCC methods)
  Frank Weinhold                                : gennbo (NPA and NBO analysis)           
  Simon Mueller                                 : openCOSMO-RS                            
  Christopher J. Cramer and Donald G. Truhlar   : smd solvation model                     
  S Lehtola, MJT Oliveira, MAL Marques          : LibXC Library                           
  Liviu Ungur et al                             : ANISO software                          


 Your calculation uses the libint2 library for the computation of 2-el integrals
 For citations please refer to: http://libint.valeyev.net

 Your ORCA version has been built with support for libXC version: 7.0.0
 For citations please refer to: https://libxc.gitlab.io

 This ORCA versions uses:
   CBLAS   interface :  Fast vector & matrix operations
   LAPACKE interface :  Fast linear algebra routines
   SCALAPACK package :  Parallel linear algebra routines
   Shared memory     :  Shared parallel matrices
   BLAS/LAPACK       :  OpenBLAS 0.3.29  USE64BITINT DYNAMIC_ARCH NO_AFFINITY Haswell SINGLE_THREADED
        Core in use  :  Haswell
   Copyright (c) 2011-2014, The OpenBLAS Project


  ***********************************
  * Starting time: Fri Jun 19 22:08:10 2026
  * Host name:     steezy
  * Process ID:    45125
  * Working dir.:  /home/jannes/metaltpp/pttpp/02_tddft_tda_comparison/runs/tdaon_pbe0
  ***********************************

NOTE: MaxCore=3000 MB was set to SCF,MP2,MDCI,CIPSI,MRCI,RASCI and CIS
      => If you want to overwrite this, your respective input block should be placed after the MaxCore statement


***************************************
The coordinates will be read from file: /home/jannes/metaltpp/pttpp/01_opt/pttpp_opt_b3lyp_tzvp.xyz
***************************************


================================================================================

cite the ECPs for Pt [Def2-ECP] as follows:
Ce-Yb(ecp-28): M. Dolg, H. Stoll, H.Preuss, J. Chem. Phys., 1989, 90, 1730-1734.
Y-Cd(ecp-28), Hf-Hg(ecp-46): D. Andrae,U. Haeussermann, M. Dolg, H. Stoll, H. Preuss, Theor. Chim. Acta, 1990, 77, 123-141.
In-Sb(ecp-28), Tl-Bi(ecp-46): B. Metz, H. Stoll, M. Dolg, J. Chem. Phys., 2000, 113, 2563-2569.
Te-Xe(ecp-28), Po-Rn(ecp-46): K. A. Peterson, D. Figgen, E. Goll, H. Stoll, M. Dolg, J. Chem. Phys., 2003, 119, 11113-11123.
Rb(ecp-28), Cs(ecp-46): T. Leininger, A. Nicklass, W. Kuechle, H. Stoll, M. Dolg, A. Bergner, Chem. Phys. Lett., 1996, 255, 274-280.
Sr(ecp-28), Ba(ecp-46): M. Kaupp, P. V. Schleyer, H. Stoll and H. Preuss, J. Chem. Phys., 1991, 94, 1360-1366.
La(ecp-46): M. Dolg, H. Stoll, A. Savin, H. Preuss, Theor. Chim. Acta, 1989, 75, 173-194.
Lu(ecp-28): X. Cao, M. Dolg, J. Chem. Phys., 2001, 115, 7348-7355.

ECP parameters for Pt [Def2-ECP] have been obtained from:
TURBOMOLE (7.0.2)

----- Orbital basis set information -----
Your calculation utilizes the basis: def2-TZVP
   F. Weigend and R. Ahlrichs, Phys. Chem. Chem. Phys. 7, 3297 (2005).

----- AuxJ basis set information -----
Your calculation utilizes the auxiliary basis: def2/J
   H-Rn: F. Weigend, Phys. Chem. Chem. Phys. 8, 1057 (2006).
   Fr-Lr: K. Eichkorn, F. Weigend, O. Treutler, R. Ahlrichs; Theor. Chem. Acc. 97, 119 (1997).

================================================================================
                                        WARNINGS
                       Please study these warnings very carefully!
================================================================================


WARNING: CIS/ROCIS methods need fully converged wavefunctions
  ===> : Setting SCFConvForced true
         You can overwrite this default with %scf ConvForced false 


================================================================================
                                       INPUT FILE
================================================================================
NAME = tddft.inp
|  1> %pal nprocs 8 end
|  2> %maxcore 3000
|  3> ! PBE0 def2-TZVP def2/J RIJCOSX DefGrid3 TightSCF CPCM(Toluene)
|  4> %tddft
|  5>   nroots 30
|  6>   triplets false
|  7> end
|  8> * xyzfile 0 1 /home/jannes/metaltpp/pttpp/01_opt/pttpp_opt_b3lyp_tzvp.xyz
|  9> 
| 10>                          ****END OF INPUT****
================================================================================

                       ****************************
                       * Single Point Calculation *
                       ****************************

---------------------------------
CARTESIAN COORDINATES (ANGSTROEM)
---------------------------------
  N     -2.108080    2.524279    3.521821
  H      1.680411   -2.228696    3.899477
  C     -4.349458    3.013050    3.514433
  C     -0.398442   -1.553009    3.873584
  N      0.088560    0.677670    3.651248
  C      0.949551   -1.440517    3.837518
  H     -0.984376   -2.450922    3.971525
  C      2.847257    1.833976    3.491404
  N     -0.257703    4.708353    3.279334
  C     -1.118860    6.826069    3.088574
  C      2.549630    0.479041    3.625472
  C      2.659016    4.025761    3.287331
  N      1.938935    2.861735    3.408577
  C      4.065124    3.715852    3.296533
  C     -0.942186   -0.224960    3.755982
  C      1.258712   -0.041150    3.698386
  C     -2.828125    1.360316    3.643826
  C     -3.016407    3.552146    3.440624
  C     -4.234182    1.670468    3.638051
  C     -2.303522    0.073788    3.753890
  C     -2.718800    4.906972    3.305530
  C      4.180359    2.373315    3.420619
  C     -1.427914    5.427035    3.231148
  C      0.229118    6.938555    3.051954
  C      2.134390    5.312204    3.175775
  C      0.772994    5.610851    3.172929
  H     -5.252396    3.598102    3.474038
  H     -5.024648    0.943812    3.717750
  H      5.083333    1.788511    3.463607
  H      4.855696    4.442619    3.219060
  H      0.814935    7.836215    2.951066
  H     -1.849779    7.614007    3.024296
  Pt    -0.084568    2.693014    3.465252
  C      3.695876   -0.484126    3.696986
  C      4.229424   -1.043081    2.534214
  C      5.293291   -1.936753    2.599920
  C      5.839023   -2.284185    3.830859
  C      5.314808   -1.733093    4.995018
  C      4.250819   -0.839685    4.927786
  H      3.806461   -0.774496    1.573874
  H      5.695024   -2.361196    1.688023
  H      6.667376   -2.979810    3.882542
  H      5.733653   -1.997749    5.958156
  H      3.844807   -0.411992    5.836385
  C     -3.268760   -1.066099    3.878097
  C     -3.705976   -1.754908    2.745100
  C     -4.601614   -2.812950    2.859511
  C     -5.072736   -3.197536    4.110076
  C     -4.643439   -2.517963    5.244832
  C     -3.748094   -1.459835    5.128853
  H     -3.340989   -1.457561    1.769571
  H     -4.931069   -3.336024    1.970147
  H     -5.769853   -4.021390    4.199691
  H     -5.004692   -2.810883    6.222985
  H     -3.415304   -0.932587    6.014595
  C     -3.865024    5.870187    3.234394
  C     -4.430187    6.214194    2.004966
  C     -5.494016    7.107822    1.938107
  C     -6.007887    7.670629    3.101275
  C     -5.451911    7.334755    4.330839
  C     -4.388123    6.440956    4.396165
  H     -4.032155    5.777467    1.097137
  H     -5.920696    7.363647    0.976017
  H     -6.836127    8.366411    3.049884
  H     -5.845584    7.768322    5.241963
  H     -3.957179    6.181389    5.355434
  C      3.099632    6.451912    3.050615
  C      3.597036    6.829503    1.801896
  C      4.492529    7.887381    1.684927
  C      4.904107    8.582789    2.816650
  C      4.415074    8.214280    4.065178
  C      3.519150    7.156593    4.180557
  H      3.277964    6.290038    0.918467
  H      4.867638    8.167831    0.708334
  H      5.601401    9.406404    2.726278
  H      4.730926    8.749507    4.952246
  H      3.140359    6.871707    5.154542

----------------------------
CARTESIAN COORDINATES (A.U.)
----------------------------
  NO LB      ZA    FRAG     MASS         X           Y           Z
   0 N     7.0000    0    14.007   -3.983695    4.770195    6.655278
   1 H     1.0000    0     1.008    3.175517   -4.211625    7.368943
   2 C     6.0000    0    12.011   -8.219284    5.693840    6.641315
   3 C     6.0000    0    12.011   -0.752946   -2.934761    7.320012
   4 N     7.0000    0    14.007    0.167354    1.280611    6.899858
   5 C     6.0000    0    12.011    1.794392   -2.722182    7.251858
   6 H     1.0000    0     1.008   -1.860201   -4.631572    7.505095
   7 C     6.0000    0    12.011    5.380536    3.465712    6.597798
   8 N     7.0000    0    14.007   -0.486989    8.897498    6.197042
   9 C     6.0000    0    12.011   -2.114338   12.899400    5.836559
  10 C     6.0000    0    12.011    4.818103    0.905256    6.851149
  11 C     6.0000    0    12.011    5.024812    7.607586    6.212156
  12 N     7.0000    0    14.007    3.664057    5.407895    6.441276
  13 C     6.0000    0    12.011    7.681970    7.021942    6.229544
  14 C     6.0000    0    12.011   -1.780474   -0.425112    7.097777
  15 C     6.0000    0    12.011    2.378621   -0.077763    6.988937
  16 C     6.0000    0    12.011   -5.344382    2.570625    6.885832
  17 C     6.0000    0    12.011   -5.700183    6.712584    6.501837
  18 C     6.0000    0    12.011   -8.001444    3.156728    6.874921
  19 C     6.0000    0    12.011   -4.353026    0.139440    7.093824
  20 C     6.0000    0    12.011   -5.137787    9.272834    6.246547
  21 C     6.0000    0    12.011    7.899733    4.484916    6.464033
  22 C     6.0000    0    12.011   -2.698366   10.255611    6.105984
  23 C     6.0000    0    12.011    0.432971   13.111968    5.767357
  24 C     6.0000    0    12.011    4.033413   10.038611    6.001345
  25 C     6.0000    0    12.011    1.460747   10.602973    5.995967
  26 H     1.0000    0     1.008   -9.925590    6.799427    6.564980
  27 H     1.0000    0     1.008   -9.495208    1.783546    7.025529
  28 H     1.0000    0     1.008    9.606108    3.379796    6.545268
  29 H     1.0000    0     1.008    9.175936    8.395334    6.083142
  30 H     1.0000    0     1.008    1.540005   14.808300    5.576706
  31 H     1.0000    0     1.008   -3.495577   14.388387    5.715091
  32 Pt   18.0000*   0   195.090   -0.159811    5.089059    6.548377
  33 C     6.0000    0    12.011    6.984193   -0.914865    6.986290
  34 C     6.0000    0    12.011    7.992453   -1.971137    4.788970
  35 C     6.0000    0    12.011   10.002871   -3.659933    4.913137
  36 C     6.0000    0    12.011   11.034155   -4.316485    7.239275
  37 C     6.0000    0    12.011   10.043531   -3.275071    9.439216
  38 C     6.0000    0    12.011    8.032884   -1.586774    9.312167
  39 H     1.0000    0     1.008    7.193169   -1.463586    2.974191
  40 H     1.0000    0     1.008   10.762035   -4.462014    3.189901
  41 H     1.0000    0     1.008   12.599515   -5.631026    7.336940
  42 H     1.0000    0     1.008   10.835033   -3.775199   11.259284
  43 H     1.0000    0     1.008    7.265632   -0.778551   11.029169
  44 C     6.0000    0    12.011   -6.177061   -2.014635    7.328540
  45 C     6.0000    0    12.011   -7.003279   -3.316296    5.187487
  46 C     6.0000    0    12.011   -8.695790   -5.315704    5.403693
  47 C     6.0000    0    12.011   -9.586081   -6.042468    7.766919
  48 C     6.0000    0    12.011   -8.774829   -4.758261    9.911296
  49 C     6.0000    0    12.011   -7.082871   -2.758689    9.692128
  50 H     1.0000    0     1.008   -6.313555   -2.754391    3.344005
  51 H     1.0000    0     1.008   -9.318370   -6.304172    3.723038
  52 H     1.0000    0     1.008  -10.903441   -7.599325    7.936267
  53 H     1.0000    0     1.008   -9.457497   -5.311799   11.759738
  54 H     1.0000    0     1.008   -6.453989   -1.762334   11.365937
  55 C     6.0000    0    12.011   -7.303836   11.093045    6.112119
  56 C     6.0000    0    12.011   -8.371839   11.743125    3.788836
  57 C     6.0000    0    12.011  -10.382185   13.431836    3.662491
  58 C     6.0000    0    12.011  -11.353260   14.495389    5.860560
  59 C     6.0000    0    12.011  -10.302620   13.860678    8.184099
  60 C     6.0000    0    12.011   -8.292350   12.171643    8.307548
  61 H     1.0000    0     1.008   -7.619669   10.917831    2.073289
  62 H     1.0000    0     1.008  -11.188494   13.915276    1.844404
  63 H     1.0000    0     1.008  -12.918407   15.810225    5.763445
  64 H     1.0000    0     1.008  -11.046554   14.680001    9.905874
  65 H     1.0000    0     1.008   -7.477985   11.681133   10.120303
  66 C     6.0000    0    12.011    5.857456   12.192346    5.764826
  67 C     6.0000    0    12.011    6.797412   12.905891    3.405090
  68 C     6.0000    0    12.011    8.489649   14.904990    3.184050
  69 C     6.0000    0    12.011    9.267419   16.219121    5.322696
  70 C     6.0000    0    12.011    8.343282   15.522739    7.682073
  71 C     6.0000    0    12.011    6.650230   13.524000    7.900107
  72 H     1.0000    0     1.008    6.194455   11.886449    1.735651
  73 H     1.0000    0     1.008    9.198503   15.434964    1.338557
  74 H     1.0000    0     1.008   10.585114   17.775528    5.151919
  75 H     1.0000    0     1.008    8.940155   16.534172    9.358389
  76 H     1.0000    0     1.008    5.934418   12.985645    9.740672
* core charge reduced due to ECP

--------------------------------
INTERNAL COORDINATES (ANGSTROEM)
--------------------------------
 N      0   0   0     0.000000000000     0.00000000     0.00000000
 H      1   0   0     6.089832256915     0.00000000     0.00000000
 C      1   2   0     2.294063090683   140.74176214     0.00000000
 C      2   1   3     2.186058927993    33.53335273   359.92265709
 N      4   2   1     2.294020897270    95.72890635     0.10546907
 C      2   1   3     1.076671203535     4.28148201     0.76320005
 H      4   2   1     1.076643136205   104.99163936   180.17044812
 C      5   4   2     2.995496821757   125.17232846   359.95170789
 N      1   2   6     2.872782191544   101.41443537   180.92446091
 C      9   1   2     2.294057415200   117.84326184   179.81391117
 C      8   5   4     1.393701733153    54.75457960     0.05078862
 C      8   5   4     2.209298860825   108.02399739   180.06849786
 N     12   8   5     1.374108023534    36.49594011   359.85291816
 C     12   8   5     1.439884359416    72.70322819   179.77047234
 C      5   4   2     1.374098890945    36.35271280   179.94709567
 C      5   4   2     1.374110759826    70.65740558     0.00000000
 C      1   2   6     1.374102513224    70.08426492     0.83102631
 C      1   2   6     1.374104181827   177.09106081   359.91368685
 C      3   1   2     1.353180115826    72.84740619     0.03202793
 C     17   1   2     1.393727591634   126.27704883   359.94255782
 C     18   1  17     1.393690734403   126.28058068   180.12050265
 C     14  12   8     1.353174432699   107.29474691     0.04043156
 C      9   1   2     1.374124689963    81.49261096   179.89296568
 C     10   9   1     1.353158739827    72.84487769   180.14128539
 C     12   8   5     1.393776449906   162.77292880     0.09131181
 C      9   1   2     1.374104260394   171.49629015     0.30752931
 H      3   1   2     1.076668202645   159.27279615   180.19803218
 H     19   3   1     1.076670016901   127.86795644   180.12045937
 H     22  14  12     1.076664815862   127.87750005   180.06413545
 H     14  12   8     1.076660440674   124.84173600   180.15159032
 H     24  10   9     1.076639923869   127.87044857   179.86867986
 H     10   9   1     1.076671380117   159.28883997   359.97600660
 Pt     9   1   2     2.031288587650    44.99884979     0.06872539
 C     11   8   5     1.498893804608   117.77447688   180.03602460
 C     34  11   8     1.396117137706   120.64945491   270.75706970
 C     35  34  11     1.390964009505   120.67588829   179.98774264
 C     36  35  34     1.390591350226   120.16522925     0.00000000
 C     37  36  35     1.390600507021   119.61009114     0.00000000
 C     38  37  36     1.390960194315   120.16113054     0.00000000
 H     35  34  11     1.083183971663   119.33427522     0.00000000
 H     36  35  34     1.083096432234   119.71547006   179.99024958
 H     37  36  35     1.082928204555   120.19365915   180.00752098
 H     38  37  36     1.083101984056   120.12085939   180.01353522
 H     39  38  37     1.083198271163   119.98542222   180.01026686
 C     20  17   1     1.498817712446   117.78589349   180.00672480
 C     45  20  17     1.396172247109   120.63921366    92.70159491
 C     46  45  20     1.390938263792   120.67528316   179.99310832
 C     47  46  45     1.390602710218   120.16502648     0.00000000
 C     48  47  46     1.390606348796   119.61039275     0.00000000
 C     49  48  47     1.390945348680   120.16114394     0.00000000
 H     46  45  20     1.083183654099   119.33385303   359.96149731
 H     47  46  45     1.083104870825   119.71443278   179.95626462
 H     48  47  46     1.082929845840   120.19248561   180.01608382
 H     49  48  47     1.083092545972   120.12054737   180.03134760
 H     50  49  48     1.083179847693   119.99160542   180.01693933
 C     21  18   1     1.498890074798   117.77510857   179.97480889
 C     56  21  18     1.396153045327   120.64301280   269.93028884
 C     57  56  21     1.390961388547   120.67863705   179.99069446
 C     58  57  56     1.390602143068   120.16110562     0.00000000
 C     59  58  57     1.390592629437   119.60993104     0.00000000
 C     60  59  58     1.390967213387   120.16543600     0.00000000
 H     57  56  21     1.083195112918   119.33581920     0.00000000
 H     58  57  56     1.083106776980   119.71810161   180.00814271
 H     59  58  57     1.082928610081   120.19622210   180.00101373
 H     60  59  58     1.083100398606   120.11925419   179.99040517
 H     61  60  59     1.083182393446   119.98960067   179.99577222
 C     25  12   8     1.498762696980   117.78410027   179.91129462
 C     67  25  12     1.396167459671   120.64989280    86.19362558
 C     68  67  25     1.390932972506   120.68172546   179.97943157
 C     69  68  67     1.390606407520   120.16175598     0.03388652
 C     70  69  68     1.390602219423   119.60930377     0.00000000
 C     71  70  69     1.390932733128   120.16570505   359.97464563
 H     68  67  25     1.083178963886   119.32855364     0.04057871
 H     69  68  67     1.083094482234   119.71784167   180.07288493
 H     70  69  68     1.082925406610   120.19800962   179.99037437
 H     71  70  69     1.083107173769   120.12069447   179.93332528
 H     72  71  70     1.083184899321   119.98886455   179.97420670

---------------------------
INTERNAL COORDINATES (A.U.)
---------------------------
 N      0   0   0     0.000000000000     0.00000000     0.00000000
 H      1   0   0    11.508115167089     0.00000000     0.00000000
 C      1   2   0     4.335150975327   140.74176214     0.00000000
 C      2   1   3     4.131052686520    33.53335273   359.92265709
 N      4   2   1     4.335071241333    95.72890635     0.10546907
 C      2   1   3     2.034613710961     4.28148201     0.76320005
 H      4   2   1     2.034560671393   104.99163936   180.17044812
 C      5   4   2     5.660668628152   125.17232846   359.95170789
 N      1   2   6     5.428771584425   101.41443537   180.92446091
 C      9   1   2     4.335140250219   117.84326184   179.81391117
 C      8   5   4     2.633714588030    54.75457960     0.05078862
 C      8   5   4     4.174969794943   108.02399739   180.06849786
 N     12   8   5     2.596687842903    36.49594011   359.85291816
 C     12   8   5     2.720987103814    72.70322819   179.77047234
 C      5   4   2     2.596670584811    36.35271280   179.94709567
 C      5   4   2     2.596693013746    70.65740558     0.00000000
 C      1   2   6     2.596677429926    70.08426492     0.83102631
 C      1   2   6     2.596680583128   177.09106081   359.91368685
 C      3   1   2     2.557139828778    72.84740619     0.03202793
 C     17   1   2     2.633763453477   126.27704883   359.94255782
 C     18   1  17     2.633693803405   126.28058068   180.12050265
 C     14  12   8     2.557129089226   107.29474691     0.04043156
 C      9   1   2     2.596719337889    81.49261096   179.89296568
 C     10   9   1     2.557099433996    72.84487769   180.14128539
 C     12   8   5     2.633855782231   162.77292880     0.09131181
 C      9   1   2     2.596680731599   171.49629015     0.30752931
 H      3   1   2     2.034608040100   159.27279615   180.19803218
 H     19   3   1     2.034611468547   127.86795644   180.12045937
 H     22  14  12     2.034601640007   127.87750005   180.06413545
 H     14  12   8     2.034593372101   124.84173600   180.15159032
 H     24  10   9     2.034554600958   127.87044857   179.86867986
 H     10   9   1     2.034614044652   159.28883997   359.97600660
 Pt     9   1   2     3.838579129617    44.99884979     0.06872539
 C     11   8   5     2.832498794540   117.77447688   180.03602460
 C     34  11   8     2.638279041138   120.64945491   270.75706970
 C     35  34  11     2.628541040106   120.67588829   179.98774264
 C     36  35  34     2.627836816127   120.16522925     0.00000000
 C     37  36  35     2.627854119961   119.61009114     0.00000000
 C     38  37  36     2.628533830441   120.16113054     0.00000000
 H     35  34  11     2.046921059095   119.33427522     0.00000000
 H     36  35  34     2.046755633549   119.71547006   179.99024958
 H     37  36  35     2.046437729308   120.19365915   180.00752098
 H     38  37  36     2.046766124973   120.12085939   180.01353522
 H     39  38  37     2.046948081236   119.98542222   180.01026686
 C     20  17   1     2.832355001194   117.78589349   180.00672480
 C     45  20  17     2.638383182818   120.63921366    92.70159491
 C     46  45  20     2.628492387758   120.67528316   179.99310832
 C     47  46  45     2.627858283401   120.16502648     0.00000000
 C     48  47  46     2.627865159316   119.61039275     0.00000000
 C     49  48  47     2.628505776256   120.16114394     0.00000000
 H     46  45  20     2.046920458988   119.33385303   359.96149731
 H     47  46  45     2.046771580176   119.71443278   179.95626462
 H     48  47  46     2.046440830888   120.19248561   180.01608382
 H     49  48  47     2.046748289578   120.12054737   180.03134760
 H     50  49  48     2.046913265923   119.99160542   180.01693933
 C     21  18   1     2.832491746221   117.77510857   179.97480889
 C     56  21  18     2.638346896709   120.64301280   269.93028884
 C     57  56  21     2.628536087212   120.67863705   179.99069446
 C     58  57  56     2.627857211642   120.16110562     0.00000000
 C     59  58  57     2.627839233485   119.60993104     0.00000000
 C     60  59  58     2.628547094564   120.16543600     0.00000000
 H     57  56  21     2.046942113016   119.33581920     0.00000000
 H     58  57  56     2.046775182287   119.71810161   180.00814271
 H     59  58  57     2.046438495642   120.19622210   180.00101373
 H     60  59  58     2.046763128907   120.11925419   179.99040517
 H     61  60  59     2.046918076699   119.98960067   179.99577222
 C     25  12   8     2.832251037029   117.78410027   179.91129462
 C     67  25  12     2.638374135870   120.64989280    86.19362558
 C     68  67  25     2.628482388677   120.68172546   179.97943157
 C     69  68  67     2.627865270289   120.16175598     0.03388652
 C     70  69  68     2.627857355933   119.60930377     0.00000000
 C     71  70  69     2.628481936318   120.16570505   359.97464563
 H     68  67  25     2.046911595768   119.32855364     0.04057871
 H     69  68  67     2.046751948583   119.71784167   180.07288493
 H     70  69  68     2.046432441958   120.19800962   179.99037437
 H     71  70  69     2.046775932108   120.12069447   179.93332528
 H     72  71  70     2.046922812116   119.98886455   179.97420670

---------------------
BASIS SET INFORMATION
---------------------
There are 4 groups of distinct atoms

 Group   1 Type N   : 11s6p2d1f contracted to 5s3p2d1f pattern {62111/411/11/1}
 Group   2 Type H   : 5s1p contracted to 3s1p pattern {311/1}
 Group   3 Type C   : 11s6p2d1f contracted to 5s3p2d1f pattern {62111/411/11/1}
 Group   4 Type Pt  : 8s7p6d1f contracted to 6s4p3d1f pattern {311111/4111/411/1}

Atom   0N    basis set group =>   1
Atom   1H    basis set group =>   2
Atom   2C    basis set group =>   3
Atom   3C    basis set group =>   3
Atom   4N    basis set group =>   1
Atom   5C    basis set group =>   3
Atom   6H    basis set group =>   2
Atom   7C    basis set group =>   3
Atom   8N    basis set group =>   1
Atom   9C    basis set group =>   3
Atom  10C    basis set group =>   3
Atom  11C    basis set group =>   3
Atom  12N    basis set group =>   1
Atom  13C    basis set group =>   3
Atom  14C    basis set group =>   3
Atom  15C    basis set group =>   3
Atom  16C    basis set group =>   3
Atom  17C    basis set group =>   3
Atom  18C    basis set group =>   3
Atom  19C    basis set group =>   3
Atom  20C    basis set group =>   3
Atom  21C    basis set group =>   3
Atom  22C    basis set group =>   3
Atom  23C    basis set group =>   3
Atom  24C    basis set group =>   3
Atom  25C    basis set group =>   3
Atom  26H    basis set group =>   2
Atom  27H    basis set group =>   2
Atom  28H    basis set group =>   2
Atom  29H    basis set group =>   2
Atom  30H    basis set group =>   2
Atom  31H    basis set group =>   2
Atom  32Pt   basis set group =>   4
Atom  33C    basis set group =>   3
Atom  34C    basis set group =>   3
Atom  35C    basis set group =>   3
Atom  36C    basis set group =>   3
Atom  37C    basis set group =>   3
Atom  38C    basis set group =>   3
Atom  39H    basis set group =>   2
Atom  40H    basis set group =>   2
Atom  41H    basis set group =>   2
Atom  42H    basis set group =>   2
Atom  43H    basis set group =>   2
Atom  44C    basis set group =>   3
Atom  45C    basis set group =>   3
Atom  46C    basis set group =>   3
Atom  47C    basis set group =>   3
Atom  48C    basis set group =>   3
Atom  49C    basis set group =>   3
Atom  50H    basis set group =>   2
Atom  51H    basis set group =>   2
Atom  52H    basis set group =>   2
Atom  53H    basis set group =>   2
Atom  54H    basis set group =>   2
Atom  55C    basis set group =>   3
Atom  56C    basis set group =>   3
Atom  57C    basis set group =>   3
Atom  58C    basis set group =>   3
Atom  59C    basis set group =>   3
Atom  60C    basis set group =>   3
Atom  61H    basis set group =>   2
Atom  62H    basis set group =>   2
Atom  63H    basis set group =>   2
Atom  64H    basis set group =>   2
Atom  65H    basis set group =>   2
Atom  66C    basis set group =>   3
Atom  67C    basis set group =>   3
Atom  68C    basis set group =>   3
Atom  69C    basis set group =>   3
Atom  70C    basis set group =>   3
Atom  71C    basis set group =>   3
Atom  72H    basis set group =>   2
Atom  73H    basis set group =>   2
Atom  74H    basis set group =>   2
Atom  75H    basis set group =>   2
Atom  76H    basis set group =>   2
---------------------------------
AUXILIARY/J BASIS SET INFORMATION
---------------------------------
There are 4 groups of distinct atoms

 Group   1 Type N   : 12s5p4d2f1g contracted to 6s4p3d1f1g pattern {711111/2111/211/2/1}
 Group   2 Type H   : 5s2p1d contracted to 3s1p1d pattern {311/2/1}
 Group   3 Type C   : 12s5p4d2f1g contracted to 6s4p3d1f1g pattern {711111/2111/211/2/1}
 Group   4 Type Pt  : 11s5p5d3f3g contracted to 8s5p5d2f3g pattern {41111111/11111/11111/21/111}

Atom   0N    basis set group =>   1
Atom   1H    basis set group =>   2
Atom   2C    basis set group =>   3
Atom   3C    basis set group =>   3
Atom   4N    basis set group =>   1
Atom   5C    basis set group =>   3
Atom   6H    basis set group =>   2
Atom   7C    basis set group =>   3
Atom   8N    basis set group =>   1
Atom   9C    basis set group =>   3
Atom  10C    basis set group =>   3
Atom  11C    basis set group =>   3
Atom  12N    basis set group =>   1
Atom  13C    basis set group =>   3
Atom  14C    basis set group =>   3
Atom  15C    basis set group =>   3
Atom  16C    basis set group =>   3
Atom  17C    basis set group =>   3
Atom  18C    basis set group =>   3
Atom  19C    basis set group =>   3
Atom  20C    basis set group =>   3
Atom  21C    basis set group =>   3
Atom  22C    basis set group =>   3
Atom  23C    basis set group =>   3
Atom  24C    basis set group =>   3
Atom  25C    basis set group =>   3
Atom  26H    basis set group =>   2
Atom  27H    basis set group =>   2
Atom  28H    basis set group =>   2
Atom  29H    basis set group =>   2
Atom  30H    basis set group =>   2
Atom  31H    basis set group =>   2
Atom  32Pt   basis set group =>   4
Atom  33C    basis set group =>   3
Atom  34C    basis set group =>   3
Atom  35C    basis set group =>   3
Atom  36C    basis set group =>   3
Atom  37C    basis set group =>   3
Atom  38C    basis set group =>   3
Atom  39H    basis set group =>   2
Atom  40H    basis set group =>   2
Atom  41H    basis set group =>   2
Atom  42H    basis set group =>   2
Atom  43H    basis set group =>   2
Atom  44C    basis set group =>   3
Atom  45C    basis set group =>   3
Atom  46C    basis set group =>   3
Atom  47C    basis set group =>   3
Atom  48C    basis set group =>   3
Atom  49C    basis set group =>   3
Atom  50H    basis set group =>   2
Atom  51H    basis set group =>   2
Atom  52H    basis set group =>   2
Atom  53H    basis set group =>   2
Atom  54H    basis set group =>   2
Atom  55C    basis set group =>   3
Atom  56C    basis set group =>   3
Atom  57C    basis set group =>   3
Atom  58C    basis set group =>   3
Atom  59C    basis set group =>   3
Atom  60C    basis set group =>   3
Atom  61H    basis set group =>   2
Atom  62H    basis set group =>   2
Atom  63H    basis set group =>   2
Atom  64H    basis set group =>   2
Atom  65H    basis set group =>   2
Atom  66C    basis set group =>   3
Atom  67C    basis set group =>   3
Atom  68C    basis set group =>   3
Atom  69C    basis set group =>   3
Atom  70C    basis set group =>   3
Atom  71C    basis set group =>   3
Atom  72H    basis set group =>   2
Atom  73H    basis set group =>   2
Atom  74H    basis set group =>   2
Atom  75H    basis set group =>   2
Atom  76H    basis set group =>   2
-------------------------
ECP PARAMETER INFORMATION
-------------------------

 Group 1, Type Pt ECP Def2-ECP (replacing 60 core electrons, lmax=3)

Atom  32Pt   ECP group =>   1



           ************************************************************
           *        Program running with 8 parallel MPI-processes     *
           *              working on a common directory               *
           ************************************************************
------------------------------------------------------------------------------
                             ORCA STARTUP CALCULATIONS
                           -- RI-GTO INTEGRALS CHOSEN --
------------------------------------------------------------------------------
------------------------------------------------------------------------------
                   ___                                                        
                  /   \      - P O W E R E D   B Y -                         
                 /     \                                                     
                 |  |  |   _    _      __       _____    __    __             
                 |  |  |  | |  | |    /  \     |  _  \  |  |  /  |          
                  \  \/   | |  | |   /    \    | | | |  |  | /  /          
                 / \  \   | |__| |  /  /\  \   | |_| |  |  |/  /          
                |  |  |   |  __  | /  /__\  \  |    /   |      \           
                |  |  |   | |  | | |   __   |  |    \   |  |\   \          
                \     /   | |  | | |  |  |  |  | |\  \  |  | \   \       
                 \___/    |_|  |_| |__|  |__|  |_| \__\ |__|  \__/        
                                                                              
                      - O R C A' S   B I G   F R I E N D -                    
                                      &                                       
                       - I N T E G R A L  F E E D E R -                       
                                                                              
 v1 FN, 2020, v2 2021, v3 2022-2024                                           
------------------------------------------------------------------------------


----------------------
SHARK INTEGRAL PACKAGE
----------------------

Number of atoms                             ...     77
Number of basis functions                   ...   1696
Number of shells                            ...    654
Maximum angular momentum                    ...      3
Integral batch strategy                     ... SHARK/LIBINT Hybrid
RI-J (if used) integral strategy            ... SPLIT-RIJ (Revised 2003 algorithm where possible)
Printlevel                                  ...      1
Contraction scheme used                     ... SEGMENTED contraction
Prescreening option                         ... SCHWARTZ
   Thresh                                   ... 2.500e-11
   Tcut                                     ... 2.500e-12
   Tpresel                                  ... 2.500e-12 
Coulomb Range Separation                    ... NOT USED
Exchange Range Separation                   ... NOT USED
Multipole approximations                    ... NOT USED
Finite Nucleus Model                        ... NOT USED
CABS basis                                  ... NOT available
Auxiliary Coulomb fitting basis             ... AVAILABLE
   # of basis functions in Aux-J            ...   2749
   # of shells in Aux-J                     ...    883
   Maximum angular momentum in Aux-J        ...      4
Auxiliary J/K fitting basis                 ... NOT available
Auxiliary Correlation fitting basis         ... NOT available
Auxiliary 'external' fitting basis          ... NOT available

Checking pre-screening integrals            ... done (  0.0 sec) Dimension = 654
   => SHARK Basis and OBASIS are compatible. Storing Pre-screening
Shell pair information
Shell pair cut-off parameter TPreSel        ...   2.5e-12
Total number of shell pairs                 ...    214185
Shell pairs after pre-screening             ...    104262
Total number of primitive shell pairs       ...    662980
Primitive shell pairs kept                  ...    199011
          la=0 lb=0:  24757 shell pairs
          la=1 lb=0:  30544 shell pairs
          la=1 lb=1:   9329 shell pairs
          la=2 lb=0:  14788 shell pairs
          la=2 lb=1:   9305 shell pairs
          la=2 lb=2:   2246 shell pairs
          la=3 lb=0:   6688 shell pairs
          la=3 lb=1:   4243 shell pairs
          la=3 lb=2:   1903 shell pairs
          la=3 lb=3:    459 shell pairs

Checking whether 4 symmetric matrices of dimension 1696 fit in memory
:Max Core in MB      =   3000.00
 MB in use           =    127.03
 MB left             =   2872.97
 MB needed           =     43.92
 Data fit in memory  = YES
Calculating RI/J V-Matrix + Cholesky decomp.... done (  0.8 sec)
Calculating Nuclear repulsion               ... done (  0.0 sec) ENN=   6002.797249912694 Eh

Diagonalization of the overlap matrix:
Smallest eigenvalue                        ... 2.861e-06
Time for diagonalization                   ...    0.786 sec
Threshold for overlap eigenvalues          ... 1.000e-07
Number of eigenvalues below threshold      ... 0
Time for construction of square roots      ...    1.541 sec
Total time needed                          ...    2.384 sec

-------------------
DFT GRID GENERATION
-------------------

General Integration Accuracy     IntAcc      ... 4.959
Radial Grid Type                 RadialGrid  ... OptM3 with GC (2021)
Angular Grid (max. ang.)         AngularGrid ... 6 (Lebedev-590)
Angular grid pruning method      GridPruning ... 4 (adaptive)
Weight generation scheme         WeightScheme... mBecke (2022)
Basis function cutoff            BFCut       ... 1.0000e-11
Integration weight cutoff        WCut        ... 1.0000e-14
Partially contracted basis set               ... off
Rotationally invariant grid construction     ... off
Angular grids for H and He will be reduced by one unit

Total number of grid points                  ...   932047
Total number of batches                      ...    14605
Average number of points per batch           ...       63
Average number of grid points per atom       ...    12105

--------------------
COSX GRID GENERATION
--------------------

GRIDX 1
-------
General Integration Accuracy     IntAcc      ... 4.020
Radial Grid Type                 RadialGrid  ... OptM3 with GC (2021)
Angular Grid (max. ang.)         AngularGrid ... 2 (Lebedev-110)
Angular grid pruning method      GridPruning ... 4 (adaptive)
Weight generation scheme         WeightScheme... mBecke (2022)
Basis function cutoff            BFCut       ... 1.0000e-11
Integration weight cutoff        WCut        ... 1.0000e-14
Partially contracted basis set               ... on
Rotationally invariant grid construction     ... off
Angular grids for H and He will be reduced by one unit

Total number of grid points                  ...   108589
Total number of batches                      ...      893
Average number of points per batch           ...      121
Average number of grid points per atom       ...     1410
UseSFitting                                  ... on

GRIDX 2
-------
General Integration Accuracy     IntAcc      ... 4.338
Radial Grid Type                 RadialGrid  ... OptM3 with GC (2021)
Angular Grid (max. ang.)         AngularGrid ... 3 (Lebedev-194)
Angular grid pruning method      GridPruning ... 4 (adaptive)
Weight generation scheme         WeightScheme... mBecke (2022)
Basis function cutoff            BFCut       ... 1.0000e-11
Integration weight cutoff        WCut        ... 1.0000e-14
Partially contracted basis set               ... on
Rotationally invariant grid construction     ... off
Angular grids for H and He will be reduced by one unit

Total number of grid points                  ...   230812
Total number of batches                      ...     1840
Average number of points per batch           ...      125
Average number of grid points per atom       ...     2998
UseSFitting                                  ... on

GRIDX 3
-------
General Integration Accuracy     IntAcc      ... 4.871
Radial Grid Type                 RadialGrid  ... OptM3 with GC (2021)
Angular Grid (max. ang.)         AngularGrid ... 4 (Lebedev-302)
Angular grid pruning method      GridPruning ... 4 (adaptive)
Weight generation scheme         WeightScheme... mBecke (2022)
Basis function cutoff            BFCut       ... 1.0000e-11
Integration weight cutoff        WCut        ... 1.0000e-14
Partially contracted basis set               ... on
Rotationally invariant grid construction     ... off
Angular grids for H and He will be reduced by one unit

Total number of grid points                  ...   423146
Total number of batches                      ...     3346
Average number of points per batch           ...      126
Average number of grid points per atom       ...     5495
UseSFitting                                  ... on
Grids setup in  57.3 sec
Initializing property integral containers    ... done (  0.0 sec)

SHARK setup successfully completed in  75.4 seconds

Maximum memory used throughout the entire STARTUP-calculation: 305.1 MB


           ************************************************************
           *        Program running with 8 parallel MPI-processes     *
           *              working on a common directory               *
           ************************************************************
-------------------------------------------------------------------------------
                                 ORCA GUESS
                   Start orbitals & Density for SCF / CASSCF
-------------------------------------------------------------------------------

------------
SCF SETTINGS
------------
Hamiltonian:
 Density Functional     Method          .... DFT(GTOs)
 Exchange Functional    Exchange        .... PBE
   PBE kappa parameter   XKappa         ....  0.804000
   PBE mue parameter    XMuePBE         ....  0.219520
 Correlation Functional Correlation     .... PBE
   PBE beta parameter  CBetaPBE         ....  0.066725
 LDA part of GGA corr.  LDAOpt          .... PW91-LDA
 Gradients option       PostSCFGGA      .... off
 Hybrid DFT is turned on
   Fraction HF Exchange ScalHFX         ....  0.250000
   Scaling of DF-GGA-X  ScalDFX         ....  0.750000
   Scaling of DF-GGA-C  ScalDFC         ....  1.000000
   Scaling of DF-LDA-C  ScalLDAC        ....  1.000000
   Perturbative correction              ....  0.000000
   NL short-range parameter             ....  6.900000
 RI-approximation to the Coulomb term is turned on
   Number of AuxJ basis functions       .... 2749
   RIJ-COSX (HFX calculated with COS-X)).... on


General Settings:
 Integral files         IntName         .... tddft
 Hartree-Fock type      HFTyp           .... RHF
 Total Charge           Charge          ....    0
 Multiplicity           Mult            ....    1
 Number of Electrons    NEL             ....  338
 Basis Dimension        Dim             .... 1696
 Nuclear Repulsion      ENuc            ....   6002.7972499127 Eh

Convergence Acceleration:
 AO-DIIS                CNVDIIS         .... on
   Start iteration      DIISMaxIt       ....    12
   Startup error        DIISStart       ....  0.200000
   # of expansion vecs  DIISMaxEq       ....     5
   Bias factor          DIISBfac        ....   1.050
   Max. coefficient     DIISMaxC        ....  10.000
 MO-DIIS                CNVKDIIS        .... off
 Trust-Rad. Augm. Hess. CNVTRAH         .... auto
   Auto Start mean grad. ratio tolernc. ....  1.125000
   Auto Start start iteration           ....    50
   Auto Start num. interpolation iter.  ....    10
   Max. Number of Micro iterations      ....    24
   Max. Number of Macro iterations      .... Maxiter - #DIIS iter
   Number of Davidson start vectors     ....     2
   Converg. threshold    (grad. norm)   ....   1.000e-05
   Grad. Scal. Fac. for Micro threshold ....   0.100
   Minimum threshold for Micro iter.    ....   1.000e-02
   NR start threshold (gradient norm)   ....   1.000e-04
   Initial trust radius                 ....   0.400
   Minimum AH scaling param. (alpha)    ....   1.000
   Maximum AH scaling param. (alpha)    .... 1000.000
   Quad. conv. algorithm                .... NR
   White noise on init. David. guess    .... on
   Maximum white noise                  ....   0.010
   Pseudo random numbers                .... off
   Inactive MOs                         .... canonical
   Orbital update algorithm             .... Taylor
   Preconditioner                       .... Diag
   Full preconditioner red. dimension   ....   250
 SOSCF                 CNVSOSCF           .... on
   Start iteration     SOSCFMaxIt         ....   150
   Startup grad/error  SOSCFStart         ....  0.003300
   Hessian update      SOSCFHessUp        .... L-BFGS
   Autom. constraints  SOSCFAutoConstrain .... off
 Level Shifting         CNVShift        .... on
   Level shift para.    LevelShift      ....    0.2500
   Turn off err/grad.   ShiftErr        ....    0.0010
 Zerner damping         CNVZerner       .... off
 Static damping         CNVDamp         .... on
   Fraction old density DampFac         ....    0.7000
   Max. Damping (<1)    DampMax         ....    0.9800
   Min. Damping (>=0)   DampMin         ....    0.0000
   Turn off err/grad.   DampErr         ....    0.1000

SCF Procedure:
 Maximum # iterations   MaxIter         ....   125
 SCF integral mode      SCFMode         .... Direct
   Integral package                     .... SHARK and LIBINT hybrid scheme
 Reset frequency        DirectResetFreq ....    20
 Integral Threshold     Thresh          ....  2.500e-11 Eh
 Primitive CutOff       TCut            ....  2.500e-12 Eh

Convergence Tolerance:
 Convergence Check Mode ConvCheckMode   .... Total+1el-Energy
 Convergence forced     ConvForced      .... 1
 Energy Change          TolE            ....  1.000e-08 Eh
 1-El. energy change                    ....  1.000e-05 Eh
 Orbital Gradient       TolG            ....  1.000e-05
 Orbital Rotation angle TolX            ....  1.000e-05
 DIIS Error             TolErr          ....  5.000e-07

------------------------------
INITIAL GUESS: MODEL POTENTIAL
------------------------------
Loading Hartree-Fock densities                     ... done
Atomic calculation to generate a density for atom 32 (Pt with ECP)
  Multiplicity assumed   :    3
  Atomic configuration   : 1s2 2s2 2p6 3s2 3p6 4s2 3d10 4p6 5s2 4d10 5p6 6s2 4f14 5d8 
  Number of open shells  : 1
  Command: /opt/orca/orca tddft_atom78.inp "" > tddft_atom78.out
Returned from the atomic calculation with res=0
Calculating cut-offs                               ... done
Initializing the effective Hamiltonian             ... done
Setting up the integral package (SHARK)            ... done
Starting the Coulomb interaction                   ... done (   9.9 sec)
Making the grid                                    ... done (   3.2 sec)
Mapping shells                                     ... done
Starting the XC term evaluation                    ... done (   4.2 sec)
  promolecular density results
     # of electrons  =    397.982530950
     EX              =   -616.975643218
     EC              =    -15.584798733
     EX+EC           =   -632.560441951
Transforming the Hamiltonian                       ... done (   0.9 sec)
Diagonalizing the Hamiltonian                      ... done (   2.3 sec)
Back transforming the eigenvectors                 ... done (   3.7 sec)
Now organizing SCF variables                       ... done
                      ------------------
                      INITIAL GUESS DONE (  32.0 sec)
                      ------------------
             **** ENERGY FILE WAS UPDATED (tddft.en.tmp) ****
Finished Guess after  35.3 sec
Maximum memory used throughout the entire GUESS-calculation: 206.5 MB


           ************************************************************
           *        Program running with 8 parallel MPI-processes     *
           *              working on a common directory               *
           ************************************************************

-------------------------------------------------------------------------------------------
                                      ORCA LEAN-SCF
                              memory conserving SCF solver
-------------------------------------------------------------------------------------------

--------------------
CPCM SOLVATION MODEL
--------------------
CPCM parameters:
  Epsilon                                         ...       2.3870
  Refrac                                          ...       1.4961
  Rsolv                                           ...       1.3000
  Surface type                                    ... GAUSSIAN VDW
  Discretization scheme                           ... Constant charge density
    Threshold for H atoms                         ...       5.0000 (charges/Ang^2)
    Threshold for non-H atoms                     ...       5.0000 (charges/Ang^2)
  Epsilon function type                           ...         CPCM
Solvent:                                          ... TOLUENE
Radii:
  Scheme                                          ... Element-dependent radii
  Radius for N  used is    3.5149 Bohr (=   1.8600 Ang.)
  Radius for H  used is    2.4944 Bohr (=   1.3200 Ang.)
  Radius for C  used is    3.8550 Bohr (=   2.0400 Ang.)
  Radius for Pt used is    3.9004 Bohr (=   2.0640 Ang.)
Calculating surface                               ...        done! (  0.1s)
Cavity surface points                             ...         6828
Cavity Volume                                     ...    4942.1642
Cavity Surface-area                               ...    2293.1756
Calculating surface distance matrix               ...        done! (  5.3s)
Performing Cholesky decomposition & store         ...        done! (  5.7s)
Overall time for CPCM initialization              ...                11.1s

----------------------------------------D-I-I-S--------------------------------------------
Iteration    Energy (Eh)           Delta-E    RMSDP     MaxDP     DIISErr   Damp  Time(sec)
-------------------------------------------------------------------------------------------
               ***  Starting incremental Fock matrix formation  ***
    1    -2029.5661341865379654     0.00e+00  4.50e-03  2.65e-01  4.95e-01  0.700 290.0
    2    -2029.9454267698356489    -3.79e-01  3.27e-03  1.92e-01  3.44e-01  0.700 201.3
    3    -2030.1299736526370907    -1.85e-01  2.18e-03  1.37e-01  2.38e-01  0.700 176.7
                               ***Turning on AO-DIIS***
    4    -2030.2348417156508731    -1.05e-01  1.39e-03  9.69e-02  1.65e-01  0.700 170.5
    5    -2030.3061773298986736    -7.13e-02  9.40e-04  6.62e-02  1.15e-01  0.700 169.7
    6    -2030.3552793905855651    -4.91e-02  6.57e-04  4.59e-02  8.07e-02  0.700 138.7
    7    -2030.3894577828941692    -3.42e-02  1.54e-03  1.08e-01  5.65e-02  0.000 164.2
                              *** Initializing SOSCF ***
---------------------------------------S-O-S-C-F--------------------------------------
Iteration    Energy (Eh)           Delta-E    RMSDP     MaxDP     MaxGrad    Time(sec)
--------------------------------------------------------------------------------------
    8    -2030.4688695050117531    -7.94e-02  4.44e-05  1.95e-03  5.03e-04   143.7
               *** Restarting incremental Fock matrix formation ***
    9    -2030.4688694662045236     3.88e-08  1.46e-04  4.34e-03  3.27e-04   355.7
   10    -2030.4688720743142767    -2.61e-06  6.46e-05  1.82e-03  1.89e-04   207.2
   11    -2030.4688739212697328    -1.85e-06  5.25e-05  1.39e-03  1.33e-04   184.0
   12    -2030.4688743183951374    -3.97e-07  2.14e-05  7.52e-04  1.06e-04   196.9
   13    -2030.4688744764662260    -1.58e-07  2.12e-05  9.56e-04  6.26e-05   199.0
   14    -2030.4688746571209776    -1.81e-07  2.59e-05  1.34e-03  2.72e-05   180.1
   15    -2030.4688747040527232    -4.69e-08  1.45e-05  3.72e-04  4.72e-06   177.8
   16    -2030.4688746872488991     1.68e-08  1.32e-05  4.96e-04  4.18e-06   175.2
   17    -2030.4688747319505637    -4.47e-08  1.31e-05  8.72e-04  1.76e-06   133.3
                  *** Gradient check signals convergence ***

               *****************************************************
               *                     SUCCESS                       *
               *           SCF CONVERGED AFTER  17 CYCLES          *
               *****************************************************

Recomputing exchange energy using gridx3       ... done (  415.943 sec)
Old exchange energy                            :    -68.879815819 Eh
New exchange energy                            :    -68.879819846 Eh
Exchange energy change after final integration :     -0.000004027 Eh
Total energy after final integration           :  -2030.468878720 Eh
             **** ENERGY FILE WAS UPDATED (tddft.en.tmp) ****

----------------
TOTAL SCF ENERGY
----------------

Total Energy       :      -2030.46887871978674 Eh          -55251.86714 eV

Components:
Nuclear Repulsion  :       6002.79724991269450 Eh          163344.41744 eV
Electronic Energy  :      -8033.25347612257883 Eh         -218595.94029 eV
One Electron Energy:     -14753.65643391054800 Eh         -401467.40178 eV
Two Electron Energy:       6720.40295778796917 Eh          182871.46149 eV
CPCM Dielectric    :         -0.01264848315250 Eh              -0.34418 eV

Virial components:
Potential Energy   :      -3972.19678776490946 Eh         -108088.96973 eV
Kinetic Energy     :       1941.72790904512271 Eh           52837.10259 eV
Virial Ratio       :          2.04570206220000

DFT components:
N(Alpha)           :      168.999987343047 electrons
N(Beta)            :      168.999987343047 electrons
N(Total)           :      337.999974686094 electrons
E(X)               :     -206.297848118457 Eh       
E(C)               :      -11.596885183242 Eh       
E(XC)              :     -217.894733301699 Eh       

CPCM Solvation Model Properties:
Surface-charge          :         -0.04913236202029
Corrected charge        :          0.00000000000000
Outlying charge corr.   :          0.00005505045231 Eh               0.00150 eV
Free-energy (cav+disp)  :  This term is not implemented in the current solvation scheme

---------------
SCF CONVERGENCE
---------------

  Last Energy change         ...    4.4702e-08  Tolerance :   1.0000e-08
  Last MAX-Density change    ...    8.7160e-04  Tolerance :   1.0000e-07
  Last RMS-Density change    ...    1.3101e-05  Tolerance :   5.0000e-09
  Last DIIS Error            ...    5.0260e-04  Tolerance :   5.0000e-07
  Last Orbital Gradient      ...    1.7628e-06  Tolerance :   1.0000e-05
  Last Orbital Rotation      ...    1.1197e-05  Tolerance :   1.0000e-05


----------------
ORBITAL ENERGIES
----------------

  NO   OCC          E(Eh)            E(eV) 
   0   2.0000     -14.420463      -392.4007 
   1   2.0000     -14.420460      -392.4007 
   2   2.0000     -14.420455      -392.4005 
   3   2.0000     -14.420452      -392.4004 
   4   2.0000     -10.267865      -279.4028 
   5   2.0000     -10.267853      -279.4025 
   6   2.0000     -10.267847      -279.4023 
   7   2.0000     -10.267838      -279.4021 
   8   2.0000     -10.267821      -279.4016 
   9   2.0000     -10.267818      -279.4015 
  10   2.0000     -10.267809      -279.4013 
  11   2.0000     -10.267808      -279.4013 
  12   2.0000     -10.253095      -279.0009 
  13   2.0000     -10.253073      -279.0003 
  14   2.0000     -10.253063      -279.0000 
  15   2.0000     -10.253060      -279.0000 
  16   2.0000     -10.245598      -278.7969 
  17   2.0000     -10.245586      -278.7966 
  18   2.0000     -10.245582      -278.7965 
  19   2.0000     -10.245581      -278.7964 
  20   2.0000     -10.231119      -278.4029 
  21   2.0000     -10.231115      -278.4028 
  22   2.0000     -10.231113      -278.4028 
  23   2.0000     -10.231107      -278.4026 
  24   2.0000     -10.231087      -278.4020 
  25   2.0000     -10.231084      -278.4020 
  26   2.0000     -10.231082      -278.4019 
  27   2.0000     -10.231078      -278.4018 
  28   2.0000     -10.230600      -278.3888 
  29   2.0000     -10.230598      -278.3887 
  30   2.0000     -10.230596      -278.3887 
  31   2.0000     -10.230592      -278.3886 
  32   2.0000     -10.230368      -278.3825 
  33   2.0000     -10.230368      -278.3825 
  34   2.0000     -10.230367      -278.3824 
  35   2.0000     -10.230361      -278.3823 
  36   2.0000     -10.229798      -278.3670 
  37   2.0000     -10.229797      -278.3669 
  38   2.0000     -10.229795      -278.3669 
  39   2.0000     -10.229792      -278.3668 
  40   2.0000     -10.226668      -278.2818 
  41   2.0000     -10.226661      -278.2816 
  42   2.0000     -10.226659      -278.2815 
  43   2.0000     -10.226657      -278.2815 
  44   2.0000     -10.225847      -278.2594 
  45   2.0000     -10.225840      -278.2593 
  46   2.0000     -10.225838      -278.2592 
  47   2.0000     -10.225836      -278.2591 
  48   2.0000      -3.976031      -108.1933 
  49   2.0000      -2.219305       -60.3904 
  50   2.0000      -2.219304       -60.3903 
  51   2.0000      -2.182601       -59.3916 
  52   2.0000      -1.009940       -27.4819 
  53   2.0000      -0.998269       -27.1643 
  54   2.0000      -0.998265       -27.1642 
  55   2.0000      -0.990264       -26.9465 
  56   2.0000      -0.899842       -24.4860 
  57   2.0000      -0.895443       -24.3662 
  58   2.0000      -0.895438       -24.3661 
  59   2.0000      -0.893604       -24.3162 
  60   2.0000      -0.857174       -23.3249 
  61   2.0000      -0.838739       -22.8233 
  62   2.0000      -0.838737       -22.8232 
  63   2.0000      -0.821062       -22.3422 
  64   2.0000      -0.802117       -21.8267 
  65   2.0000      -0.801021       -21.7969 
  66   2.0000      -0.801018       -21.7968 
  67   2.0000      -0.799236       -21.7483 
  68   2.0000      -0.774358       -21.0713 
  69   2.0000      -0.774345       -21.0710 
  70   2.0000      -0.774341       -21.0709 
  71   2.0000      -0.774339       -21.0708 
  72   2.0000      -0.770388       -20.9633 
  73   2.0000      -0.763701       -20.7813 
  74   2.0000      -0.763689       -20.7810 
  75   2.0000      -0.749214       -20.3871 
  76   2.0000      -0.738545       -20.0968 
  77   2.0000      -0.687637       -18.7115 
  78   2.0000      -0.687631       -18.7114 
  79   2.0000      -0.646247       -17.5853 
  80   2.0000      -0.629455       -17.1283 
  81   2.0000      -0.629385       -17.1264 
  82   2.0000      -0.629347       -17.1254 
  83   2.0000      -0.629328       -17.1249 
  84   2.0000      -0.626662       -17.0523 
  85   2.0000      -0.626569       -17.0498 
  86   2.0000      -0.619733       -16.8638 
  87   2.0000      -0.617882       -16.8134 
  88   2.0000      -0.612065       -16.6551 
  89   2.0000      -0.588041       -16.0014 
  90   2.0000      -0.588035       -16.0013 
  91   2.0000      -0.582282       -15.8447 
  92   2.0000      -0.578261       -15.7353 
  93   2.0000      -0.573412       -15.6033 
  94   2.0000      -0.559075       -15.2132 
  95   2.0000      -0.551450       -15.0057 
  96   2.0000      -0.551441       -15.0055 
  97   2.0000      -0.541349       -14.7308 
  98   2.0000      -0.538554       -14.6548 
  99   2.0000      -0.538538       -14.6544 
 100   2.0000      -0.523140       -14.2354 
 101   2.0000      -0.512013       -13.9326 
 102   2.0000      -0.511985       -13.9318 
 103   2.0000      -0.480735       -13.0815 
 104   2.0000      -0.480289       -13.0693 
 105   2.0000      -0.478075       -13.0091 
 106   2.0000      -0.478046       -13.0083 
 107   2.0000      -0.475609       -12.9420 
 108   2.0000      -0.470445       -12.8015 
 109   2.0000      -0.469391       -12.7728 
 110   2.0000      -0.469382       -12.7725 
 111   2.0000      -0.466815       -12.7027 
 112   2.0000      -0.449999       -12.2451 
 113   2.0000      -0.446493       -12.1497 
 114   2.0000      -0.445397       -12.1199 
 115   2.0000      -0.445390       -12.1197 
 116   2.0000      -0.444094       -12.0844 
 117   2.0000      -0.442673       -12.0458 
 118   2.0000      -0.439456       -11.9582 
 119   2.0000      -0.439446       -11.9579 
 120   2.0000      -0.436567       -11.8796 
 121   2.0000      -0.435949       -11.8628 
 122   2.0000      -0.435949       -11.8628 
 123   2.0000      -0.435914       -11.8618 
 124   2.0000      -0.428982       -11.6732 
 125   2.0000      -0.428579       -11.6622 
 126   2.0000      -0.421366       -11.4660 
 127   2.0000      -0.421334       -11.4651 
 128   2.0000      -0.421110       -11.4590 
 129   2.0000      -0.415993       -11.3197 
 130   2.0000      -0.400060       -10.8862 
 131   2.0000      -0.395323       -10.7573 
 132   2.0000      -0.395318       -10.7572 
 133   2.0000      -0.390810       -10.6345 
 134   2.0000      -0.384091       -10.4517 
 135   2.0000      -0.384083       -10.4514 
 136   2.0000      -0.383218       -10.4279 
 137   2.0000      -0.372168       -10.1272 
 138   2.0000      -0.364944        -9.9306 
 139   2.0000      -0.364264        -9.9121 
 140   2.0000      -0.362199        -9.8559 
 141   2.0000      -0.362188        -9.8556 
 142   2.0000      -0.360266        -9.8033 
 143   2.0000      -0.360248        -9.8028 
 144   2.0000      -0.359150        -9.7730 
 145   2.0000      -0.358240        -9.7482 
 146   2.0000      -0.345439        -9.3999 
 147   2.0000      -0.345417        -9.3993 
 148   2.0000      -0.335718        -9.1353 
 149   2.0000      -0.319259        -8.6875 
 150   2.0000      -0.319245        -8.6871 
 151   2.0000      -0.299988        -8.1631 
 152   2.0000      -0.299881        -8.1602 
 153   2.0000      -0.296180        -8.0595 
 154   2.0000      -0.285347        -7.7647 
 155   2.0000      -0.277736        -7.5576 
 156   2.0000      -0.274199        -7.4613 
 157   2.0000      -0.272378        -7.4118 
 158   2.0000      -0.272309        -7.4099 
 159   2.0000      -0.271521        -7.3885 
 160   2.0000      -0.270232        -7.3534 
 161   2.0000      -0.270191        -7.3523 
 162   2.0000      -0.268377        -7.3029 
 163   2.0000      -0.268217        -7.2986 
 164   2.0000      -0.256636        -6.9834 
 165   2.0000      -0.232155        -6.3173 
 166   2.0000      -0.232150        -6.3171 
 167   2.0000      -0.214905        -5.8479 
 168   2.0000      -0.214487        -5.8365 
 169   0.0000      -0.090457        -2.4615 
 170   0.0000      -0.090438        -2.4609 
 171   0.0000      -0.030820        -0.8386 
 172   0.0000      -0.015825        -0.4306 
 173   0.0000      -0.014552        -0.3960 
 174   0.0000      -0.014549        -0.3959 
 175   0.0000      -0.013953        -0.3797 
 176   0.0000      -0.012855        -0.3498 
 177   0.0000      -0.012500        -0.3402 
 178   0.0000      -0.011214        -0.3051 
 179   0.0000      -0.011179        -0.3042 
*Only the first 10 virtual orbitals were printed.

                    ********************************
                    * MULLIKEN POPULATION ANALYSIS *
                    ********************************

-----------------------
MULLIKEN ATOMIC CHARGES
-----------------------
   0 N :   -0.206028
   1 H :    0.160156
   2 C :   -0.250306
   3 C :   -0.249919
   4 N :   -0.206019
   5 C :   -0.250707
   6 H :    0.160315
   7 C :    0.196913
   8 N :   -0.205952
   9 C :   -0.250270
  10 C :    0.053100
  11 C :    0.197582
  12 N :   -0.205995
  13 C :   -0.250444
  14 C :    0.196994
  15 C :    0.198053
  16 C :    0.198007
  17 C :    0.197212
  18 C :   -0.250293
  19 C :    0.053495
  20 C :    0.053467
  21 C :   -0.250073
  22 C :    0.197194
  23 C :   -0.250479
  24 C :    0.054217
  25 C :    0.197567
  26 H :    0.160131
  27 H :    0.160254
  28 H :    0.160184
  29 H :    0.160344
  30 H :    0.160306
  31 H :    0.160204
  32 Pt:    0.173361
  33 C :   -0.013473
  34 C :   -0.173197
  35 C :   -0.166972
  36 C :   -0.101231
  37 C :   -0.167240
  38 C :   -0.172973
  39 H :    0.140295
  40 H :    0.135665
  41 H :    0.137835
  42 H :    0.135801
  43 H :    0.140319
  44 C :   -0.012683
  45 C :   -0.174176
  46 C :   -0.166607
  47 C :   -0.101402
  48 C :   -0.166492
  49 C :   -0.174549
  50 H :    0.140340
  51 H :    0.135760
  52 H :    0.137840
  53 H :    0.135766
  54 H :    0.140281
  55 C :   -0.013616
  56 C :   -0.172670
  57 C :   -0.167550
  58 C :   -0.100970
  59 C :   -0.167319
  60 C :   -0.172835
  61 H :    0.140338
  62 H :    0.135786
  63 H :    0.137847
  64 H :    0.135682
  65 H :    0.140331
  66 C :   -0.011720
  67 C :   -0.176025
  68 C :   -0.165540
  69 C :   -0.101995
  70 C :   -0.165694
  71 C :   -0.175592
  72 H :    0.140283
  73 H :    0.135801
  74 H :    0.137861
  75 H :    0.135810
  76 H :    0.140308
Sum of atomic charges:   -0.0000000

--------------------------------
MULLIKEN REDUCED ORBITAL CHARGES
--------------------------------
  0 N s       :     3.590494  s :     3.590494
      pz      :     1.381530  p :     3.522611
      px      :     1.088090
      py      :     1.052992
      dz2     :     0.006140  d :     0.088515
      dxz     :     0.015120
      dyz     :     0.016412
      dx2y2   :     0.023710
      dxy     :     0.027133
      f0      :     0.000756  f :     0.004407
      f+1     :     0.000501
      f-1     :     0.000476
      f+2     :     0.000283
      f-2     :     0.000607
      f+3     :     0.000682
      f-3     :     0.001101

  1 H s       :     0.817072  s :     0.817072
      pz      :     0.004843  p :     0.022772
      px      :     0.008725
      py      :     0.009204

  2 C s       :     3.284021  s :     3.284021
      pz      :     0.988461  p :     2.869218
      px      :     0.932123
      py      :     0.948635
      dz2     :     0.005857  d :     0.089335
      dxz     :     0.010308
      dyz     :     0.019932
      dx2y2   :     0.019983
      dxy     :     0.033254
      f0      :     0.001465  f :     0.007731
      f+1     :     0.000796
      f-1     :     0.000634
      f+2     :     0.000946
      f-2     :     0.000426
      f+3     :     0.002284
      f-3     :     0.001180

  3 C s       :     3.283318  s :     3.283318
      pz      :     0.988348  p :     2.869522
      px      :     0.948194
      py      :     0.932980
      dz2     :     0.005484  d :     0.089347
      dxz     :     0.020519
      dyz     :     0.010150
      dx2y2   :     0.019911
      dxy     :     0.033283
      f0      :     0.001503  f :     0.007731
      f+1     :     0.000549
      f-1     :     0.000810
      f+2     :     0.000994
      f-2     :     0.000421
      f+3     :     0.001157
      f-3     :     0.002297

  4 N s       :     3.590511  s :     3.590511
      pz      :     1.381807  p :     3.522593
      px      :     1.050133
      py      :     1.090654
      dz2     :     0.006094  d :     0.088507
      dxz     :     0.016720
      dyz     :     0.014872
      dx2y2   :     0.023686
      dxy     :     0.027134
      f0      :     0.000760  f :     0.004407
      f+1     :     0.000464
      f-1     :     0.000509
      f+2     :     0.000280
      f-2     :     0.000607
      f+3     :     0.001105
      f-3     :     0.000681

  5 C s       :     3.284086  s :     3.284086
      pz      :     0.988700  p :     2.869540
      px      :     0.953891
      py      :     0.926949
      dz2     :     0.005680  d :     0.089351
      dxz     :     0.018296
      dyz     :     0.012130
      dx2y2   :     0.021206
      dxy     :     0.032039
      f0      :     0.001493  f :     0.007731
      f+1     :     0.000588
      f-1     :     0.000791
      f+2     :     0.001267
      f-2     :     0.000132
      f+3     :     0.001280
      f-3     :     0.002179

  6 H s       :     0.816910  s :     0.816910
      pz      :     0.004896  p :     0.022776
      px      :     0.006996
      py      :     0.010884

  7 C s       :     3.193384  s :     3.193384
      pz      :     0.941193  p :     2.433676
      px      :     0.820745
      py      :     0.671738
      dz2     :     0.006252  d :     0.161653
      dxz     :     0.030604
      dyz     :     0.037622
      dx2y2   :     0.044924
      dxy     :     0.042251
      f0      :     0.002171  f :     0.014375
      f+1     :     0.000945
      f-1     :     0.001132
      f+2     :     0.000724
      f-2     :     0.002334
      f+3     :     0.003571
      f-3     :     0.003497

  8 N s       :     3.590442  s :     3.590442
      pz      :     1.381869  p :     3.522597
      px      :     1.050123
      py      :     1.090605
      dz2     :     0.006098  d :     0.088506
      dxz     :     0.016722
      dyz     :     0.014871
      dx2y2   :     0.023684
      dxy     :     0.027131
      f0      :     0.000760  f :     0.004407
      f+1     :     0.000465
      f-1     :     0.000509
      f+2     :     0.000280
      f-2     :     0.000607
      f+3     :     0.001105
      f-3     :     0.000681

  9 C s       :     3.283514  s :     3.283514
      pz      :     0.988684  p :     2.869677
      px      :     0.953945
      py      :     0.927048
      dz2     :     0.005695  d :     0.089348
      dxz     :     0.018300
      dyz     :     0.012119
      dx2y2   :     0.021205
      dxy     :     0.032029
      f0      :     0.001491  f :     0.007731
      f+1     :     0.000588
      f-1     :     0.000793
      f+2     :     0.001267
      f-2     :     0.000134
      f+3     :     0.001279
      f-3     :     0.002179

 10 C s       :     3.394945  s :     3.394945
      pz      :     0.963338  p :     2.411869
      px      :     0.700137
      py      :     0.748394
      dz2     :     0.003723  d :     0.130431
      dxz     :     0.024138
      dyz     :     0.025524
      dx2y2   :     0.031315
      dxy     :     0.045730
      f0      :     0.001567  f :     0.009656
      f+1     :     0.000755
      f-1     :     0.000780
      f+2     :     0.000891
      f-2     :     0.001135
      f+3     :     0.002667
      f-3     :     0.001860

 11 C s       :     3.193200  s :     3.193200
      pz      :     0.942319  p :     2.433184
      px      :     0.825552
      py      :     0.665313
      dz2     :     0.006288  d :     0.161660
      dxz     :     0.029281
      dyz     :     0.038858
[...]
  0-1A  ->  1-1A    2.584244   20843.3   479.8   0.006411812   0.00091  -0.02191   0.02074  -0.00182
  0-1A  ->  2-1A    2.584292   20843.7   479.8   0.006531470   0.00093  -0.02096  -0.02204   0.00237
  0-1A  ->  3-1A    2.844214   22940.1   435.9   0.000000000   0.00000  -0.00000  -0.00001   0.00000
  0-1A  ->  4-1A    2.914312   23505.5   425.4   0.000000000   0.00000  -0.00000  -0.00000   0.00000
  0-1A  ->  5-1A    2.991659   24129.4   414.4   0.000000073   0.00000  -0.00000   0.00002   0.00011
  0-1A  ->  6-1A    3.379717   27259.3   366.8   0.000000021   0.00000  -0.00004  -0.00005   0.00001
  0-1A  ->  7-1A    3.424441   27620.0   362.1   0.000000063   0.00000  -0.00007   0.00008  -0.00001
  0-1A  ->  8-1A    3.424673   27621.9   362.0   0.000000016   0.00000   0.00001   0.00005  -0.00000
  0-1A  ->  9-1A    3.513433   28337.7   352.9   0.214816796   0.04160  -0.15406  -0.13286   0.01478
  0-1A  -> 10-1A    3.514243   28344.3   352.8   0.212968266   0.04126  -0.13298   0.15295  -0.01338
  0-1A  -> 11-1A    4.132026   33327.0   300.1   0.000140863   0.00003  -0.00355  -0.00439   0.00048
  0-1A  -> 12-1A    4.133202   33336.5   300.0   0.000022869   0.00001   0.00173  -0.00149   0.00011
  0-1A  -> 13-1A    4.144688   33429.2   299.1   0.040193267   0.00918  -0.06484  -0.07013   0.00778
  0-1A  -> 14-1A    4.145483   33435.6   299.1   0.041714162   0.00953   0.07181  -0.06598   0.00467
  0-1A  -> 15-1A    4.161498   33564.7   297.9   0.000697245   0.00016   0.01046   0.00706  -0.00088
  0-1A  -> 16-1A    4.166267   33603.2   297.6   0.001632070   0.00037   0.01182   0.01525  -0.00165
  0-1A  -> 17-1A    4.270732   34445.8   290.3   0.000701836   0.00017   0.00912  -0.00405   0.00811
  0-1A  -> 18-1A    4.275400   34483.4   290.0   0.000996102   0.00023  -0.01081   0.01056  -0.00250
  0-1A  -> 19-1A    4.279011   34512.6   289.7   0.000010934   0.00000  -0.00106   0.00111  -0.00047
  0-1A  -> 20-1A    4.285344   34563.6   289.3   0.000007839   0.00000  -0.00110  -0.00080   0.00008
  0-1A  -> 21-1A    4.297948   34665.3   288.5   0.000017131   0.00000   0.00141  -0.00144   0.00009
  0-1A  -> 22-1A    4.304360   34717.0   288.0   0.000004275   0.00000  -0.00071   0.00053  -0.00048
  0-1A  -> 23-1A    4.364776   35204.3   284.1   0.000000124   0.00000  -0.00011  -0.00013   0.00002
  0-1A  -> 24-1A    4.366719   35220.0   283.9   0.000090100   0.00002   0.00338  -0.00284   0.00147
  0-1A  -> 25-1A    4.367346   35225.0   283.9   0.000082693   0.00002   0.00294   0.00335  -0.00017
  0-1A  -> 26-1A    4.385994   35375.4   282.7   0.000000004   0.00000   0.00001   0.00003  -0.00001
  0-1A  -> 27-1A    4.416337   35620.2   280.7   0.000000362   0.00000  -0.00022   0.00016  -0.00013
  0-1A  -> 28-1A    4.428865   35721.2   279.9   0.000000081   0.00000  -0.00007  -0.00011   0.00005
  0-1A  -> 29-1A    4.455036   35932.3   278.3   0.000148902   0.00004   0.00430  -0.00417   0.00079
  0-1A  -> 30-1A    4.455119   35933.0   278.3   0.000140387   0.00003   0.00416   0.00413  -0.00033

------------------------------------------------------------------------------------------
                     CD SPECTRUM VIA TRANSITION ELECTRIC DIPOLE MOMENTS    
------------------------------------------------------------------------------------------
     Transition      Energy     Energy  Wavelength    R        MX        MY        MZ   
                      (eV)      (cm-1)    (nm)   (1e40*cgs)   (au)      (au)      (au)  
------------------------------------------------------------------------------------------
  0-1A  ->  1-1A    2.584244   20843.3   479.8   -0.02813  -0.00022   0.00014   0.00005
  0-1A  ->  2-1A    2.584292   20843.7   479.8    0.04706   0.00029   0.00033   0.00001
  0-1A  ->  3-1A    2.844214   22940.1   435.9    0.02769  -0.01939  -0.10188  -1.07438
  0-1A  ->  4-1A    2.914312   23505.5   425.4    0.00001  -0.00016   0.00000  -0.00023
  0-1A  ->  5-1A    2.991659   24129.4   414.4   -0.00029   0.00105  -0.00104   0.00115
  0-1A  ->  6-1A    3.379717   27259.3   366.8   -0.00021  -0.00001   0.00039  -0.00015
  0-1A  ->  7-1A    3.424441   27620.0   362.1    0.13119  -0.07338   0.05823  -0.00282
  0-1A  ->  8-1A    3.424673   27621.9   362.0   -0.06227  -0.05825  -0.07300   0.00799
  0-1A  ->  9-1A    3.513433   28337.7   352.9   -2.17049   0.00064   0.00065  -0.00004
  0-1A  -> 10-1A    3.514243   28344.3   352.8    2.10468  -0.00076   0.00048  -0.00032
  0-1A  -> 11-1A    4.132026   33327.0   300.1   -1.69364   0.03562   0.04335  -0.00473
  0-1A  -> 12-1A    4.133202   33336.5   300.0    0.51521   0.04378  -0.03590   0.00154
  0-1A  -> 13-1A    4.144688   33429.2   299.1    1.60750  -0.00143  -0.00196   0.00020
  0-1A  -> 14-1A    4.145483   33435.6   299.1   -0.36911  -0.00062   0.00011   0.00011
  0-1A  -> 15-1A    4.161498   33564.7   297.9    0.03122   0.00013   0.00029  -0.00011
  0-1A  -> 16-1A    4.166267   33603.2   297.6    0.12867   0.00044   0.00050  -0.00021
  0-1A  -> 17-1A    4.270732   34445.8   290.3   -0.09853  -0.00043   0.00060  -0.00067
  0-1A  -> 18-1A    4.275400   34483.4   290.0    2.34351  -0.01289   0.00259  -0.05742
  0-1A  -> 19-1A    4.279011   34512.6   289.7   -1.19296   0.06066  -0.02513   0.15423
  0-1A  -> 20-1A    4.285344   34563.6   289.3   -0.85212   0.04803   0.07135  -0.00057
  0-1A  -> 21-1A    4.297948   34665.3   288.5   -0.15453   0.02994  -0.05022  -0.30851
  0-1A  -> 22-1A    4.304360   34717.0   288.0    0.08899  -0.01163   0.01800   0.06589
  0-1A  -> 23-1A    4.364776   35204.3   284.1   -0.00059   0.00169   0.00183  -0.00006
  0-1A  -> 24-1A    4.366719   35220.0   283.9    0.00720  -0.00046   0.00028  -0.00001
  0-1A  -> 25-1A    4.367346   35225.0   283.9   -0.00676   0.00023   0.00043  -0.00014
  0-1A  -> 26-1A    4.385994   35375.4   282.7   -0.00019   0.00267   0.00400  -0.00048
  0-1A  -> 27-1A    4.416337   35620.2   280.7    0.00599  -0.00293   0.00373   0.00219
  0-1A  -> 28-1A    4.428865   35721.2   279.9    0.00204  -0.00320  -0.00220   0.00018
  0-1A  -> 29-1A    4.455036   35932.3   278.3    2.57797   0.00950  -0.00857   0.00021
  0-1A  -> 30-1A    4.455119   35933.0   278.3   -2.76883  -0.00931  -0.01006   0.00107

------------------------------------------------------------------------------------------
                     CD SPECTRUM VIA TRANSITION VELOCITY DIPOLE MOMENTS    
------------------------------------------------------------------------------------------
     Transition      Energy     Energy  Wavelength    R        MX        MY        MZ   
                      (eV)      (cm-1)    (nm)   (1e40*cgs)   (au)      (au)      (au)  
------------------------------------------------------------------------------------------
  0-1A  ->  1-1A    2.584244   20843.3   479.8    0.03831  -0.00022   0.00014   0.00005
  0-1A  ->  2-1A    2.584292   20843.7   479.8   -0.06660   0.00029   0.00033   0.00001
  0-1A  ->  3-1A    2.844214   22940.1   435.9   -0.00216  -0.01939  -0.10188  -1.07438
  0-1A  ->  4-1A    2.914312   23505.5   425.4   -0.00000  -0.00016   0.00000  -0.00023
  0-1A  ->  5-1A    2.991659   24129.4   414.4    0.00045   0.00105  -0.00104   0.00115
  0-1A  ->  6-1A    3.379717   27259.3   366.8   -0.00008  -0.00001   0.00039  -0.00015
  0-1A  ->  7-1A    3.424441   27620.0   362.1    0.03776  -0.07338   0.05823  -0.00282
  0-1A  ->  8-1A    3.424673   27621.9   362.0   -0.01768  -0.05825  -0.07300   0.00799
  0-1A  ->  9-1A    3.513433   28337.7   352.9   -0.67487   0.00064   0.00065  -0.00004
  0-1A  -> 10-1A    3.514243   28344.3   352.8    0.65384  -0.00076   0.00048  -0.00032
  0-1A  -> 11-1A    4.132026   33327.0   300.1   -0.99019   0.03562   0.04335  -0.00473
  0-1A  -> 12-1A    4.133202   33336.5   300.0    0.40109   0.04378  -0.03590   0.00154
  0-1A  -> 13-1A    4.144688   33429.2   299.1    0.71732  -0.00143  -0.00196   0.00020
  0-1A  -> 14-1A    4.145483   33435.6   299.1   -0.16052  -0.00062   0.00011   0.00011
  0-1A  -> 15-1A    4.161498   33564.7   297.9    0.01073   0.00013   0.00029  -0.00011
  0-1A  -> 16-1A    4.166267   33603.2   297.6    0.04058   0.00044   0.00050  -0.00021
  0-1A  -> 17-1A    4.270732   34445.8   290.3   -0.03532  -0.00043   0.00060  -0.00067
  0-1A  -> 18-1A    4.275400   34483.4   290.0    0.93061  -0.01289   0.00259  -0.05742
  0-1A  -> 19-1A    4.279011   34512.6   289.7   -0.49394   0.06066  -0.02513   0.15423
  0-1A  -> 20-1A    4.285344   34563.6   289.3   -0.32840   0.04803   0.07135  -0.00057
  0-1A  -> 21-1A    4.297948   34665.3   288.5    0.26256   0.02994  -0.05022  -0.30851
  0-1A  -> 22-1A    4.304360   34717.0   288.0   -0.04219  -0.01163   0.01800   0.06589
  0-1A  -> 23-1A    4.364776   35204.3   284.1   -0.00126   0.00169   0.00183  -0.00006
  0-1A  -> 24-1A    4.366719   35220.0   283.9   -0.00703  -0.00046   0.00028  -0.00001
  0-1A  -> 25-1A    4.367346   35225.0   283.9    0.00629   0.00023   0.00043  -0.00014
  0-1A  -> 26-1A    4.385994   35375.4   282.7    0.00042   0.00267   0.00400  -0.00048
  0-1A  -> 27-1A    4.416337   35620.2   280.7    0.00274  -0.00293   0.00373   0.00219
  0-1A  -> 28-1A    4.428865   35721.2   279.9    0.00138  -0.00320  -0.00220   0.00018
  0-1A  -> 29-1A    4.455036   35932.3   278.3    0.22129   0.00950  -0.00857   0.00021
  0-1A  -> 30-1A    4.455119   35933.0   278.3   -0.23226  -0.00931  -0.01006   0.00107

Total run time:    20513.358 sec

           *** ORCA-CIS/TD-DFT FINISHED WITHOUT ERROR ***
-----------------------
CIS/TD-DFT TOTAL ENERGY
-----------------------

    E(SCF)  =  -2030.468878720 Eh
    DE(CIS) =      0.094969210 Eh (Root  1)
    ----------------------------- ---------
    E(tot)  =  -2030.373909510 Eh


Maximum memory used throughout the entire CIS-calculation: 2439.3 MB
=> NOW LEAVING ORCA_CIS

-------------------------   --------------------
FINAL SINGLE POINT ENERGY     -2030.373909509627
-------------------------   --------------------



           ************************************************************
           *        Program running with 8 parallel MPI-processes     *
           *              working on a common directory               *
           ************************************************************

------------------------------------------------------------------------------
                              ORCA PROPERTY CALCULATIONS
------------------------------------------------------------------------------

GBWName                                 ... tddft.gbw
Number of atoms                         ...     77
Number of basis functions               ...   1696
Max core memory                         ...   3000 MB

Electric properties:
Dipole moment                           ... YES
Quadrupole moment                       ...  NO
Static polarizability (Dipole/Dipole)   ...  NO
Static polarizability (Dipole/Quad.)    ...  NO
Static polarizability (Quad./Quad.)     ...  NO
Static polarizability (Velocity)        ...  NO
Static hyperpolarizability              ...  NO

Atomic electric properties:
Dipole moment                           ...  NO
Quadrupole moment                       ...  NO
Static polarizability                   ...  NO

Choice of electric origin               ... Center of mass
Position of electric origin             ...    -0.159740     5.088996     6.548052

General magnetic properties:
Magnetizability                         ...  NO

EPR properties:
g-Tensor (aka g-matrix)                 ...  NO
Zero-Field splitting spin-orbit         ...  NO
Zero-field splitting spin-spin          ...  NO
Hyperfine couplings                     ...  NO (   0 nuclei)
Quadrupole couplings                    ...  NO (   0 nuclei)
Contact density                         ...  NO (   0 nuclei)

NMR properties:
Chemical shifts                         ...  NO (   0 nuclei)
Spin-rotation constants                 ...  NO (   0 nuclei)
Spin-spin couplings                     ...  NO (   0 nuclei,    0 pairs)

Choice of magnetic origin               ... GIAO
Position of magnetic origin             ...     0.000000     0.000000     0.000000

Properties with geometric perturbations:
SCF Hessian                             ...  NO
IR spectrum                             ...  NO
VCD spectrum                            ...  NO
X-ray spectroscopy properties:
SCF XES/XAS/RIXS spectra                ...  NO

SCF SOC stabilization energy            ...  NO
Diagonal Born-Oppenheimer correction    ...  NO

-------------
DIPOLE MOMENT
-------------

Method             : SCF
Type of density    : Electron Density
Multiplicity       :   1
Irrep              :   0
Energy             : -2030.4688787197867441 Eh
Basis              : AO
                                X                 Y                 Z
Electronic contribution:     -0.007138346       0.005816378       0.030276965
Nuclear contribution   :      0.007463989      -0.005700084      -0.030643895
                        -----------------------------------------
Total Dipole Moment    :      0.000325643       0.000116294      -0.000366929
                        -----------------------------------------
Magnitude (a.u.)       :      0.000504187
Magnitude (Debye)      :      0.001281542



--------------------
Rotational spectrum 
--------------------
 
Rotational constants in cm-1:             0.001952             0.001952             0.001017 
Rotational constants in MHz :            58.530984            58.525184            30.503212 

Dipole components along the rotational axes: 
x,y,z [a.u.] :     0.000049     0.000361    -0.000348 
x,y,z [Debye]:     0.000124     0.000919    -0.000885 

 

Dipole moment calculation done in   0.3 sec 

Maximum memory used throughout the entire PROP-calculation: 233.3 MB

--------------------------------
SUGGESTED CITATIONS FOR THIS RUN
--------------------------------

Below you find a list of papers that are relevant to this ORCA run
We neither can nor want to force you to cite these papers, but we appreciate if you do
You receive ORCA, which is the product of decades of hard work by many enthusiastic individuals, for free
The only thing we kindly ask in return is that you cite our papers,
We deeply appreciate it, if you show your appreciation for ORCA by not just citing the generic ORCA reference.

Please note that relegating all ORCA citations to the supporting information does *not* help us.
SI sections are not indexed - citations you put there will not count into any citation statistics
But we need these citations in order to attract the funding resources that allow us to do what we are doing

Therefore, if you are a happy ORCA user, please consider citing a few of the papers listed below in the main body of your paper

In addition to the list printed below, the program has created the file tddft.bibtex that contains the list in bibtex format
You can import this file easily into all common literature databanks and citation aid programs

It goes without saying that in many instances, there are alternative algorithms to achieve similar
results as the ones you have gotten from ORCA. It is, of course, also the case that in some instances
ORCA just re-implements algorithms worked out by others. We are fully aware of that and we are also
fully appreciative of our colleagues work. Hence this citation list should not be read as indicating
that the listed papers, which are focused on our own work, are the only ones worth citing. It simply
meant to make it easier for users to cite ORCA specific papers. It is not a substitute for doing your
own literature research and citing the relevant literature in a scientifically appropriate manner.

List of essential papers. We consider these as the minimum necessary citations

  1. Neese, F.
     Software update: the ORCA program system, version 6.0
     WIRES Comput. Molec. Sci. 2025 15(1), e70019
     doi.org/10.1002/wcms.70019

List of papers to cite with high priority. The work reported in these papers was absolutely
necessary for this run to complete.
Our perspective: the developers of density functionals and basis sets usually get cited in chemistry papers
Good! But without the algorithms to do something with them, the functionals or basis sets would not do anything.
Hence, in our opinion, the algorithm design and method developments papers are equally worthy of getting cited

  1. Neese, F.; Olbrich, G.
     Efficient use of the resolution of the identity approximation in time-dependent density functional calculations with hybrid density functionals
     Chem. Phys. Lett. 2002 362 , 170-178
     doi.org/10.1016/s0009-2614(02)01053-9
  2. Neese, F.
     An improvement of the resolution of the identity approximation for the formation of the Coulomb matrix
     J. Comp. Chem. 2003 24(14), 1740-1747
     doi.org/10.1002/jcc.10318
  3. Neese, F.; Wennmohs, F.; Hansen, A.; Becker, U.
     Efficient, approximate and parallel Hartree-Fock and hybrid DFT calculations. A 'chain-of-spheres' algorithm for the Hartree-Fock exchange
     Chem. Phys. 2009 356(1-3), 98-109
     doi.org/10.1016/j.chemphys.2008.10.036
  4. Garcia-Rates, M.; Neese, F.
     Effect of the Solute Cavity on the Solvation Energy and its Derivatives within the Framework of the Gaussian Charge Scheme
     J. Comput. Chem. 2020 41 , 922-939
     doi.org/10.1002/jcc.26139
  5. Helmich-Paris, B.; de Souza, B.; Neese, F.; Izsák, R.
     An improved chain of spheres for exchange algorithm
     J. Chem. Phys. 2021 155(10), 104109
     doi.org/10.1063/5.0058766
  6. Neese, F.
     The SHARK Integral Generation and Digestion System
     J. Comp. Chem. 2022 44(3), 381
     doi.org/10.1002/jcc.26942

List of suggested additional citations. These are papers that are important in the 'surrounding' of 
of this run, or papers that preceded the highly important papers. If you like your results we are grateful for a citation.

  1. Izsak, R.; Neese, F.
     An overlap fitted chain of spheres exchange method
     J. Chem. Phys. 2011 135 , 144105
     doi.org/10.1063/1.3646921
  2. Izsak, R.; Hansen, A.; Neese, F.
     The resolution of identity and chain of spheres approximations for the LPNO-CCSD singles Fock term
     Molec. Phys. 2012 110 , 2413-2417
     doi.org/10.1080/00268976.2012.687466
  3. Neese, F.
     The ORCA program system
     WIRES Comput. Molec. Sci. 2012 2(1), 73-78
     doi.org/10.1002/wcms.81
  4. Izsak, R.; Neese, F.; Klopper, W.
     Robust fitting techniques in the chain of spheres approximation to the Fock exchange: The role of the complementary space
     J. Chem. Phys. 2013 139 , 
     doi.org/10.1063/1.4819264
  5. Neese, F.
     Software update: the ORCA program system, version 4.0
     WIRES Comput. Molec. Sci. 2018 8(1), 1-6
     doi.org/10.1002/wcms.1327
  6. Neese, F.; Wennmohs, F.; Becker, U.; Riplinger, C.
     The ORCA quantum chemistry program package
     J. Chem. Phys. 2020 152(22), 224108
     doi.org/10.1063/5.0004608
  7. Neese, F.
     Software update: The ORCA program system—Version 5.0
     WIRES Comput. Molec. Sci. 2022 12(1), e1606
     doi.org/10.1002/wcms.1606

List of optional additional citations

  1. Neese, F.
     Approximate second-order SCF convergence for spin unrestricted wavefunctions
     Chem. Phys. Lett. 2000 325(1-3), 93-98
     doi.org/10.1016/s0009-2614(00)00662-x

Timings for individual modules:

Sum of individual times          ...    24440.061 sec (= 407.334 min)
Startup calculation              ...       75.849 sec (=   1.264 min)   0.3 %
SCF iterations                   ...     3844.940 sec (=  64.082 min)  15.7 %
Property integrals               ...        3.327 sec (=   0.055 min)   0.0 %
Property calculations            ...        1.629 sec (=   0.027 min)   0.0 %
CIS module                       ...    20514.316 sec (= 341.905 min)  83.9 %
                             ****ORCA TERMINATED NORMALLY****
TOTAL RUN TIME: 0 days 6 hours 47 minutes 20 seconds 672 msec
