
                                 *****************
                                 * O   R   C   A *
                                 *****************

                                            #,                                       
                                            ###                                      
                                            ####                                     
                                            #####                                    
                                            ######                                   
                                           ########,                                 
                                     ,,################,,,,,                         
                               ,,#################################,,                 
                          ,,##########################################,,             
                       ,#########################################, ''#####,          
                    ,#############################################,,   '####,        
                  ,##################################################,,,,####,       
                ,###########''''           ''''###############################       
              ,#####''   ,,,,##########,,,,          '''####'''          '####       
            ,##' ,,,,###########################,,,                        '##       
           ' ,,###''''                  '''############,,,                           
         ,,##''                                '''############,,,,        ,,,,,,###''
      ,#''                                            '''#######################'''  
     '                                                          ''''####''''         
             ,#######,   #######,   ,#######,      ##                                
            ,#'     '#,  ##    ##  ,#'     '#,    #''#        ,####,    ,#,          
            ##       ##  ##   ,#'  ##            #'  '#       #'       ,# #          
            ##       ##  #######   ##           ,######,      #####,      #          
            '#,     ,#'  ##    ##  '#,     ,#' ,#      #,     #,   #      #          
             '#######'   ##     ##  '#######'  #'      '#     '####' #    #          



                #########################################################
                #                        -***-                          #
                #          Department of theory and spectroscopy        #
                #                                                       #
                #                      Frank Neese                      #
                #                                                       #
                #     Directorship, Architecture, Infrastructure        #
                #                    SHARK, DRIVERS                     #
                #        Core code/Algorithms in most modules           #
                #                                                       #
                #        Max Planck Institute fuer Kohlenforschung      #
                #                Kaiser Wilhelm Platz 1                 #
                #                 D-45470 Muelheim/Ruhr                 #
                #                      Germany                          #
                #                                                       #
                #                  All rights reserved                  #
                #                        -***-                          #
                #########################################################


                         Program Version 6.1.1  -  RELEASE   -
                                (GIT: $487d211c$)
                          ($2025-11-21 10:33:24 +0100$)


 With contributions from (in alphabetic order):
[Max-Planck-Institut fuer Kohlenforschung]                               
  Daniel Aravena         : Magnetic Suceptibility                        
  Michael Atanasov       : Ab Initio Ligand Field Theory (pilot matlab implementation)
  Alexander A. Auer      : GIAO ZORA, VPT2 properties, NMR spectrum      
  Ute Becker             : All parallelization in ORCA, NUMFREQ, NUMCALC 
  Giovanni Bistoni       : ED, misc. LED, open-shell LED, HFLD           
  Dmytro Bykov           : pre 5.0 version of the SCF Hessian            
  Marcos Casanova-Páez   : Triplet and SCS-CIS(D). UHF-(DLPNO)-IP/EA/STEOM-CCSD. UHF-CVS-IP/STEOM-CCSD   
  Vijay G. Chilkuri      : MRCI spin determinant printing, contributions to CSF-ICE 
  Pauline Colinet        : FMM embedding                                 
  Dipayan Datta          : RHF DLPNO-CCSD density                        
  Achintya Kumar Dutta   : EOM-CC, STEOM-CC                              
  Nicolas Foglia         : Exact transition moments, OPA infrastructure, MCD improvements    
  Dmitry Ganyushin       : Spin-Orbit,Spin-Spin,Magnetic field MRCI      
  Miquel Garcia-Rates    : C-PCM and meta-GGA Hessian, CCSD/C-PCM, Gaussian charge scheme 
  Tiago L. C. Gouveia    : GS-ROHF, GS-ROCIS                             
  Yang Guo               : DLPNO-NEVPT2, F12-NEVPT2, CIM, IAO-localization        
  Andreas Hansen         : Spin unrestricted coupled pair/coupled cluster methods 
  Ingolf Harden          : AUTO-CI MPn and infrastructure                
  Benjamin Helmich-Paris : MC-RPA, TRAH-(SCF,CASSCF), AVAS, COSX integrals, SCF dyn. polar., MC-PDFT, srDFT 
  Lee Huntington         : MR-EOM, pCC                                   
  Robert Izsak           : Overlap fitted RIJCOSX, COSX-SCS-MP3, EOM     
  Riya Kayal             : Wick's Theorem for AUTO-CI, AUTO-CI UHF-CCSDT 
  Emily Kempfer          : AUTO-CI RHF CISDT and CCSDT, approximate NEVPT4
  Christian Kollmar      : KDIIS, OOCD, Brueckner-CCSD(T), CCSD density, CASPT2, CASPT2-K, improved NEVPT2 
  Axel Koslowski         : Symmetry handling                             
  Simone Kossmann        : meta-GGA functionals, TD-DFT gradient, OOMP2, (MP2 Hessian; deprecated post 5.0) 
  Lucas Lang             : DCDCAS, Hyperfine gauge corrections, ICE-SOC+SSC
  Marvin Lechner         : AUTO-CI (C++ implementation), FIC-MRCC        
  Spencer Leger          : CASSCF response                               
  Dagmar Lenk            : GEPOL surface, SMD, ORCA-2-JSON               
  Dimitrios Liakos       : Extrapolation schemes; Compound Job, Property file
  Dimitrios Manganas     : Further ROCIS development; embedding schemes. LFT, Crystal Embedding 
  Dimitrios Pantazis     : SARC Basis sets                               
  Anastasios Papadopoulos: AUTO-CI, single reference methods and gradients 
  Taras Petrenko         : pre 6.0 DFT Hessian and TD-DFT gradient,  ECA, NRVS 
  Petra Pikulova         : Analytic Raman intensities                    
  Peter Pinski           : DLPNO-MP2, DLPNO-MP2 Gradient                 
  Shashank Vittal Rao    : ES-AILFT, MagRelax                            
  Christoph Reimann      : Effective Core Potentials                     
  Marius Retegan         : Local ZFS, SOC                                
  Christoph Riplinger    : Optimizer, TS searches, QM/MM, DLPNO-CCSD(T), (RO)-DLPNO pert. Triples 
  Michael Roemelt        : Original ROCIS implementation, recursive CI coupling coefficients
  Masaaki Saitow         : Open-shell DLPNO-CCSD energy and density      
  Barbara Sandhoefer     : DKH picture change effects                    
  Yorick L. A. Schmerwitz: GMF and freeze-and-release deltaSCF, NEB S-IDPP initial path                    
  Kantharuban Sivalingam : CASSCF convergence/infrastructure, NEVPT2, NEVPT3, NEVPT4(SD), FIC-MRCI and CEPA variants
  Bernardo de Souza      : ESD, SOC TD-DFT                               
  Georgi L. Stoychev     : AutoAux, RI-MP2 NMR, DLPNO-MP2 response, X2C  
  Van Anh Tran           : RI-MP2 g-tensors                              
  Willem Van den Heuvel  : Paramagnetic NMR                              
  Zikuan Wang            : NOTCH, Electric field optimization            
  Frank Wennmohs         : Technical directorship and infrastructure     
  Hang Xu                : AUTO-CI-Response properties                   
                                                                         
[FACCTs GmbH]                                                            
  Markus Bursch, Nicolas Foglia, Miquel Garcia-Rates, Ingolf Harden, Hagen Neugebauer, Anastasios Papadopoulos, 
  Christoph Riplinger, Bernardo de Souza, Georgi L. Stoychev                                                    
                                                                 
  APM, various basis sets, CI-OPT, improved COSX, DLPNO-Multilevel,           
  DOCKER, DRACO, updates on ESD, Fragmentator, GOAT, IRC, LR-CPCM, L-BFGS, MBIS, meta-GGA TD-DFT gradient, ML-optimized integration grids, 
  MM, NACMEs, nearIR, NEB, NEB-TS, NL-DFT gradient (VV10), 2- and 3-layer-ONIOM, interface openCOSMO-RS, QMMM,   
  Crystal-QMMM, RESP, rigid body optimization, SF, symmetry and pop. for TD-DFT, various functionals, SOLVATOR                                   
                                                                         
[Other institutions]                                                     
  V. Asgeirsson          : NEB                                           
  Christoph Bannwarth    : sTDA-DFT, sTD-DFT, PBEh-3c, B97-3c, D3        
  Giovanni Bistoni       : ETS/NOCV, ADLD/ADEX, COVALED                  
  Martin Brehm           : Molecular dynamics                            
  Ronald Cardenas        : ETS/NOCV                                      
  Martina Colucci        : COVALED                                       
  Sebastian Ehlert       : rSCAN, r2SCAN, r2SCAN-3c, D4, dhf basis sets  
  Marvin Friede          : D4 for Fr, Ra, Ac-Lr                          
  Lars Goerigk           : TD-DFT with DH, B97 family of functionals     
  Stefan Grimme          : VdW corrections, initial TS optimization, DFT functionals, gCP, sTDA/sTD-DF 
  Waldemar Hujo          : DFT-NL                                        
  H. Jonsson             : NEB                                           
  Holger Kruse           : gCP                                           
  Marcel Mueller         : wB97X-3c, vDZP basis set                      
  Hagen Neugebauer       : wr2SCAN, Native XTB                           
  Gianluca Regni         : ADLD/ADEX                                     
  Tobias Risthaus        : pre 6.0 range-separated hybrid DFT and stability analysis
  Lukas Wittmann         : regularized MP2, r2SCAN double-hybrids, wr2SCAN        
                                                                         
We gratefully acknowledge several colleagues who have allowed us to      
interface, adapt or use parts of their codes:                            
  Ed Valeev, F. Pavosevic, A. Kumar             : LibInt (2-el integral package), F12 methods 
  Garnet Chan, S. Sharma, J. Yang, R. Olivares  : DMRG                   
  Ulf Ekstrom                                   : XCFun DFT Library      
  Mihaly Kallay                                 : mrcc  (arbitrary order and MRCC methods)
  Frank Weinhold                                : gennbo (NPA and NBO analysis)           
  Simon Mueller                                 : openCOSMO-RS                            
  Christopher J. Cramer and Donald G. Truhlar   : smd solvation model                     
  S Lehtola, MJT Oliveira, MAL Marques          : LibXC Library                           
  Liviu Ungur et al                             : ANISO software                          


 Your calculation uses the libint2 library for the computation of 2-el integrals
 For citations please refer to: http://libint.valeyev.net

 Your ORCA version has been built with support for libXC version: 7.0.0
 For citations please refer to: https://libxc.gitlab.io

 This ORCA versions uses:
   CBLAS   interface :  Fast vector & matrix operations
   LAPACKE interface :  Fast linear algebra routines
   SCALAPACK package :  Parallel linear algebra routines
   Shared memory     :  Shared parallel matrices
   BLAS/LAPACK       :  OpenBLAS 0.3.29  USE64BITINT DYNAMIC_ARCH NO_AFFINITY Haswell SINGLE_THREADED
        Core in use  :  Haswell
   Copyright (c) 2011-2014, The OpenBLAS Project


  ***********************************
  * Starting time: Fri Jun 19 22:52:20 2026
  * Host name:     steezy
  * Process ID:    50382
  * Working dir.:  /home/jannes/metaltpp/pttpp/02_tddft_tda_comparison/runs/tdaon_m062x
  ***********************************

NOTE: MaxCore=3000 MB was set to SCF,MP2,MDCI,CIPSI,MRCI,RASCI and CIS
      => If you want to overwrite this, your respective input block should be placed after the MaxCore statement


***************************************
The coordinates will be read from file: /home/jannes/metaltpp/pttpp/01_opt/pttpp_opt_b3lyp_tzvp.xyz
***************************************


XCFun DFT library Copyright 2009-2010 Ulf Ekstrom and contributors.
See http://admol.org/xcfun for more information.
This is free software; see the source code for copying conditions.
There is ABSOLUTELY NO WARRANTY; not even for MERCHANTABILITY or FITNESS FOR A PARTICULAR PURPOSE.
For details see the documentation.
Scientific users of this library should cite U. Ekstrom, L. Visscher, R. Bast, A. J. Thorvaldsen and K. Ruud;
J.Chem.Theor.Comp. 2010, DOI: 10.1021/ct100117s
XCFun Version 0.99 

================================================================================

cite the ECPs for Pt [Def2-ECP] as follows:
Ce-Yb(ecp-28): M. Dolg, H. Stoll, H.Preuss, J. Chem. Phys., 1989, 90, 1730-1734.
Y-Cd(ecp-28), Hf-Hg(ecp-46): D. Andrae,U. Haeussermann, M. Dolg, H. Stoll, H. Preuss, Theor. Chim. Acta, 1990, 77, 123-141.
In-Sb(ecp-28), Tl-Bi(ecp-46): B. Metz, H. Stoll, M. Dolg, J. Chem. Phys., 2000, 113, 2563-2569.
Te-Xe(ecp-28), Po-Rn(ecp-46): K. A. Peterson, D. Figgen, E. Goll, H. Stoll, M. Dolg, J. Chem. Phys., 2003, 119, 11113-11123.
Rb(ecp-28), Cs(ecp-46): T. Leininger, A. Nicklass, W. Kuechle, H. Stoll, M. Dolg, A. Bergner, Chem. Phys. Lett., 1996, 255, 274-280.
Sr(ecp-28), Ba(ecp-46): M. Kaupp, P. V. Schleyer, H. Stoll and H. Preuss, J. Chem. Phys., 1991, 94, 1360-1366.
La(ecp-46): M. Dolg, H. Stoll, A. Savin, H. Preuss, Theor. Chim. Acta, 1989, 75, 173-194.
Lu(ecp-28): X. Cao, M. Dolg, J. Chem. Phys., 2001, 115, 7348-7355.

ECP parameters for Pt [Def2-ECP] have been obtained from:
TURBOMOLE (7.0.2)

----- Orbital basis set information -----
Your calculation utilizes the basis: def2-TZVP
   F. Weigend and R. Ahlrichs, Phys. Chem. Chem. Phys. 7, 3297 (2005).

----- AuxJ basis set information -----
Your calculation utilizes the auxiliary basis: def2/J
   H-Rn: F. Weigend, Phys. Chem. Chem. Phys. 8, 1057 (2006).
   Fr-Lr: K. Eichkorn, F. Weigend, O. Treutler, R. Ahlrichs; Theor. Chem. Acc. 97, 119 (1997).

================================================================================
                                        WARNINGS
                       Please study these warnings very carefully!
================================================================================

WARNING: Functional chosen is sensitive to the integration grid.
         DEFGRID3 seems to be a minimum grid for robust results!

WARNING: CIS/ROCIS methods need fully converged wavefunctions
  ===> : Setting SCFConvForced true
         You can overwrite this default with %scf ConvForced false 


================================================================================
                                       INPUT FILE
================================================================================
NAME = tddft.inp
|  1> %pal nprocs 8 end
|  2> %maxcore 3000
|  3> ! M062X def2-TZVP def2/J RIJCOSX DefGrid3 TightSCF CPCM(Toluene)
|  4> %tddft
|  5>   nroots 30
|  6>   triplets false
|  7> end
|  8> * xyzfile 0 1 /home/jannes/metaltpp/pttpp/01_opt/pttpp_opt_b3lyp_tzvp.xyz
|  9> 
| 10>                          ****END OF INPUT****
================================================================================

                       ****************************
                       * Single Point Calculation *
                       ****************************

---------------------------------
CARTESIAN COORDINATES (ANGSTROEM)
---------------------------------
  N     -2.108080    2.524279    3.521821
  H      1.680411   -2.228696    3.899477
  C     -4.349458    3.013050    3.514433
  C     -0.398442   -1.553009    3.873584
  N      0.088560    0.677670    3.651248
  C      0.949551   -1.440517    3.837518
  H     -0.984376   -2.450922    3.971525
  C      2.847257    1.833976    3.491404
  N     -0.257703    4.708353    3.279334
  C     -1.118860    6.826069    3.088574
  C      2.549630    0.479041    3.625472
  C      2.659016    4.025761    3.287331
  N      1.938935    2.861735    3.408577
  C      4.065124    3.715852    3.296533
  C     -0.942186   -0.224960    3.755982
  C      1.258712   -0.041150    3.698386
  C     -2.828125    1.360316    3.643826
  C     -3.016407    3.552146    3.440624
  C     -4.234182    1.670468    3.638051
  C     -2.303522    0.073788    3.753890
  C     -2.718800    4.906972    3.305530
  C      4.180359    2.373315    3.420619
  C     -1.427914    5.427035    3.231148
  C      0.229118    6.938555    3.051954
  C      2.134390    5.312204    3.175775
  C      0.772994    5.610851    3.172929
  H     -5.252396    3.598102    3.474038
  H     -5.024648    0.943812    3.717750
  H      5.083333    1.788511    3.463607
  H      4.855696    4.442619    3.219060
  H      0.814935    7.836215    2.951066
  H     -1.849779    7.614007    3.024296
  Pt    -0.084568    2.693014    3.465252
  C      3.695876   -0.484126    3.696986
  C      4.229424   -1.043081    2.534214
  C      5.293291   -1.936753    2.599920
  C      5.839023   -2.284185    3.830859
  C      5.314808   -1.733093    4.995018
  C      4.250819   -0.839685    4.927786
  H      3.806461   -0.774496    1.573874
  H      5.695024   -2.361196    1.688023
  H      6.667376   -2.979810    3.882542
  H      5.733653   -1.997749    5.958156
  H      3.844807   -0.411992    5.836385
  C     -3.268760   -1.066099    3.878097
  C     -3.705976   -1.754908    2.745100
  C     -4.601614   -2.812950    2.859511
  C     -5.072736   -3.197536    4.110076
  C     -4.643439   -2.517963    5.244832
  C     -3.748094   -1.459835    5.128853
  H     -3.340989   -1.457561    1.769571
  H     -4.931069   -3.336024    1.970147
  H     -5.769853   -4.021390    4.199691
  H     -5.004692   -2.810883    6.222985
  H     -3.415304   -0.932587    6.014595
  C     -3.865024    5.870187    3.234394
  C     -4.430187    6.214194    2.004966
  C     -5.494016    7.107822    1.938107
  C     -6.007887    7.670629    3.101275
  C     -5.451911    7.334755    4.330839
  C     -4.388123    6.440956    4.396165
  H     -4.032155    5.777467    1.097137
  H     -5.920696    7.363647    0.976017
  H     -6.836127    8.366411    3.049884
  H     -5.845584    7.768322    5.241963
  H     -3.957179    6.181389    5.355434
  C      3.099632    6.451912    3.050615
  C      3.597036    6.829503    1.801896
  C      4.492529    7.887381    1.684927
  C      4.904107    8.582789    2.816650
  C      4.415074    8.214280    4.065178
  C      3.519150    7.156593    4.180557
  H      3.277964    6.290038    0.918467
  H      4.867638    8.167831    0.708334
  H      5.601401    9.406404    2.726278
  H      4.730926    8.749507    4.952246
  H      3.140359    6.871707    5.154542

----------------------------
CARTESIAN COORDINATES (A.U.)
----------------------------
  NO LB      ZA    FRAG     MASS         X           Y           Z
   0 N     7.0000    0    14.007   -3.983695    4.770195    6.655278
   1 H     1.0000    0     1.008    3.175517   -4.211625    7.368943
   2 C     6.0000    0    12.011   -8.219284    5.693840    6.641315
   3 C     6.0000    0    12.011   -0.752946   -2.934761    7.320012
   4 N     7.0000    0    14.007    0.167354    1.280611    6.899858
   5 C     6.0000    0    12.011    1.794392   -2.722182    7.251858
   6 H     1.0000    0     1.008   -1.860201   -4.631572    7.505095
   7 C     6.0000    0    12.011    5.380536    3.465712    6.597798
   8 N     7.0000    0    14.007   -0.486989    8.897498    6.197042
   9 C     6.0000    0    12.011   -2.114338   12.899400    5.836559
  10 C     6.0000    0    12.011    4.818103    0.905256    6.851149
  11 C     6.0000    0    12.011    5.024812    7.607586    6.212156
  12 N     7.0000    0    14.007    3.664057    5.407895    6.441276
  13 C     6.0000    0    12.011    7.681970    7.021942    6.229544
  14 C     6.0000    0    12.011   -1.780474   -0.425112    7.097777
  15 C     6.0000    0    12.011    2.378621   -0.077763    6.988937
  16 C     6.0000    0    12.011   -5.344382    2.570625    6.885832
  17 C     6.0000    0    12.011   -5.700183    6.712584    6.501837
  18 C     6.0000    0    12.011   -8.001444    3.156728    6.874921
  19 C     6.0000    0    12.011   -4.353026    0.139440    7.093824
  20 C     6.0000    0    12.011   -5.137787    9.272834    6.246547
  21 C     6.0000    0    12.011    7.899733    4.484916    6.464033
  22 C     6.0000    0    12.011   -2.698366   10.255611    6.105984
  23 C     6.0000    0    12.011    0.432971   13.111968    5.767357
  24 C     6.0000    0    12.011    4.033413   10.038611    6.001345
  25 C     6.0000    0    12.011    1.460747   10.602973    5.995967
  26 H     1.0000    0     1.008   -9.925590    6.799427    6.564980
  27 H     1.0000    0     1.008   -9.495208    1.783546    7.025529
  28 H     1.0000    0     1.008    9.606108    3.379796    6.545268
  29 H     1.0000    0     1.008    9.175936    8.395334    6.083142
  30 H     1.0000    0     1.008    1.540005   14.808300    5.576706
  31 H     1.0000    0     1.008   -3.495577   14.388387    5.715091
  32 Pt   18.0000*   0   195.090   -0.159811    5.089059    6.548377
  33 C     6.0000    0    12.011    6.984193   -0.914865    6.986290
  34 C     6.0000    0    12.011    7.992453   -1.971137    4.788970
  35 C     6.0000    0    12.011   10.002871   -3.659933    4.913137
  36 C     6.0000    0    12.011   11.034155   -4.316485    7.239275
  37 C     6.0000    0    12.011   10.043531   -3.275071    9.439216
  38 C     6.0000    0    12.011    8.032884   -1.586774    9.312167
  39 H     1.0000    0     1.008    7.193169   -1.463586    2.974191
  40 H     1.0000    0     1.008   10.762035   -4.462014    3.189901
  41 H     1.0000    0     1.008   12.599515   -5.631026    7.336940
  42 H     1.0000    0     1.008   10.835033   -3.775199   11.259284
  43 H     1.0000    0     1.008    7.265632   -0.778551   11.029169
  44 C     6.0000    0    12.011   -6.177061   -2.014635    7.328540
  45 C     6.0000    0    12.011   -7.003279   -3.316296    5.187487
  46 C     6.0000    0    12.011   -8.695790   -5.315704    5.403693
  47 C     6.0000    0    12.011   -9.586081   -6.042468    7.766919
  48 C     6.0000    0    12.011   -8.774829   -4.758261    9.911296
  49 C     6.0000    0    12.011   -7.082871   -2.758689    9.692128
  50 H     1.0000    0     1.008   -6.313555   -2.754391    3.344005
  51 H     1.0000    0     1.008   -9.318370   -6.304172    3.723038
  52 H     1.0000    0     1.008  -10.903441   -7.599325    7.936267
  53 H     1.0000    0     1.008   -9.457497   -5.311799   11.759738
  54 H     1.0000    0     1.008   -6.453989   -1.762334   11.365937
  55 C     6.0000    0    12.011   -7.303836   11.093045    6.112119
  56 C     6.0000    0    12.011   -8.371839   11.743125    3.788836
  57 C     6.0000    0    12.011  -10.382185   13.431836    3.662491
  58 C     6.0000    0    12.011  -11.353260   14.495389    5.860560
  59 C     6.0000    0    12.011  -10.302620   13.860678    8.184099
  60 C     6.0000    0    12.011   -8.292350   12.171643    8.307548
  61 H     1.0000    0     1.008   -7.619669   10.917831    2.073289
  62 H     1.0000    0     1.008  -11.188494   13.915276    1.844404
  63 H     1.0000    0     1.008  -12.918407   15.810225    5.763445
  64 H     1.0000    0     1.008  -11.046554   14.680001    9.905874
  65 H     1.0000    0     1.008   -7.477985   11.681133   10.120303
  66 C     6.0000    0    12.011    5.857456   12.192346    5.764826
  67 C     6.0000    0    12.011    6.797412   12.905891    3.405090
  68 C     6.0000    0    12.011    8.489649   14.904990    3.184050
  69 C     6.0000    0    12.011    9.267419   16.219121    5.322696
  70 C     6.0000    0    12.011    8.343282   15.522739    7.682073
  71 C     6.0000    0    12.011    6.650230   13.524000    7.900107
  72 H     1.0000    0     1.008    6.194455   11.886449    1.735651
  73 H     1.0000    0     1.008    9.198503   15.434964    1.338557
  74 H     1.0000    0     1.008   10.585114   17.775528    5.151919
  75 H     1.0000    0     1.008    8.940155   16.534172    9.358389
  76 H     1.0000    0     1.008    5.934418   12.985645    9.740672
* core charge reduced due to ECP

--------------------------------
INTERNAL COORDINATES (ANGSTROEM)
--------------------------------
 N      0   0   0     0.000000000000     0.00000000     0.00000000
 H      1   0   0     6.089832256915     0.00000000     0.00000000
 C      1   2   0     2.294063090683   140.74176214     0.00000000
 C      2   1   3     2.186058927993    33.53335273   359.92265709
 N      4   2   1     2.294020897270    95.72890635     0.10546907
 C      2   1   3     1.076671203535     4.28148201     0.76320005
 H      4   2   1     1.076643136205   104.99163936   180.17044812
 C      5   4   2     2.995496821757   125.17232846   359.95170789
 N      1   2   6     2.872782191544   101.41443537   180.92446091
 C      9   1   2     2.294057415200   117.84326184   179.81391117
 C      8   5   4     1.393701733153    54.75457960     0.05078862
 C      8   5   4     2.209298860825   108.02399739   180.06849786
 N     12   8   5     1.374108023534    36.49594011   359.85291816
 C     12   8   5     1.439884359416    72.70322819   179.77047234
 C      5   4   2     1.374098890945    36.35271280   179.94709567
 C      5   4   2     1.374110759826    70.65740558     0.00000000
 C      1   2   6     1.374102513224    70.08426492     0.83102631
 C      1   2   6     1.374104181827   177.09106081   359.91368685
 C      3   1   2     1.353180115826    72.84740619     0.03202793
 C     17   1   2     1.393727591634   126.27704883   359.94255782
 C     18   1  17     1.393690734403   126.28058068   180.12050265
 C     14  12   8     1.353174432699   107.29474691     0.04043156
 C      9   1   2     1.374124689963    81.49261096   179.89296568
 C     10   9   1     1.353158739827    72.84487769   180.14128539
 C     12   8   5     1.393776449906   162.77292880     0.09131181
 C      9   1   2     1.374104260394   171.49629015     0.30752931
 H      3   1   2     1.076668202645   159.27279615   180.19803218
 H     19   3   1     1.076670016901   127.86795644   180.12045937
 H     22  14  12     1.076664815862   127.87750005   180.06413545
 H     14  12   8     1.076660440674   124.84173600   180.15159032
 H     24  10   9     1.076639923869   127.87044857   179.86867986
 H     10   9   1     1.076671380117   159.28883997   359.97600660
 Pt     9   1   2     2.031288587650    44.99884979     0.06872539
 C     11   8   5     1.498893804608   117.77447688   180.03602460
 C     34  11   8     1.396117137706   120.64945491   270.75706970
 C     35  34  11     1.390964009505   120.67588829   179.98774264
 C     36  35  34     1.390591350226   120.16522925     0.00000000
 C     37  36  35     1.390600507021   119.61009114     0.00000000
 C     38  37  36     1.390960194315   120.16113054     0.00000000
 H     35  34  11     1.083183971663   119.33427522     0.00000000
 H     36  35  34     1.083096432234   119.71547006   179.99024958
 H     37  36  35     1.082928204555   120.19365915   180.00752098
 H     38  37  36     1.083101984056   120.12085939   180.01353522
 H     39  38  37     1.083198271163   119.98542222   180.01026686
 C     20  17   1     1.498817712446   117.78589349   180.00672480
 C     45  20  17     1.396172247109   120.63921366    92.70159491
 C     46  45  20     1.390938263792   120.67528316   179.99310832
 C     47  46  45     1.390602710218   120.16502648     0.00000000
 C     48  47  46     1.390606348796   119.61039275     0.00000000
 C     49  48  47     1.390945348680   120.16114394     0.00000000
 H     46  45  20     1.083183654099   119.33385303   359.96149731
 H     47  46  45     1.083104870825   119.71443278   179.95626462
 H     48  47  46     1.082929845840   120.19248561   180.01608382
 H     49  48  47     1.083092545972   120.12054737   180.03134760
 H     50  49  48     1.083179847693   119.99160542   180.01693933
 C     21  18   1     1.498890074798   117.77510857   179.97480889
 C     56  21  18     1.396153045327   120.64301280   269.93028884
 C     57  56  21     1.390961388547   120.67863705   179.99069446
 C     58  57  56     1.390602143068   120.16110562     0.00000000
 C     59  58  57     1.390592629437   119.60993104     0.00000000
 C     60  59  58     1.390967213387   120.16543600     0.00000000
 H     57  56  21     1.083195112918   119.33581920     0.00000000
 H     58  57  56     1.083106776980   119.71810161   180.00814271
 H     59  58  57     1.082928610081   120.19622210   180.00101373
 H     60  59  58     1.083100398606   120.11925419   179.99040517
 H     61  60  59     1.083182393446   119.98960067   179.99577222
 C     25  12   8     1.498762696980   117.78410027   179.91129462
 C     67  25  12     1.396167459671   120.64989280    86.19362558
 C     68  67  25     1.390932972506   120.68172546   179.97943157
 C     69  68  67     1.390606407520   120.16175598     0.03388652
 C     70  69  68     1.390602219423   119.60930377     0.00000000
 C     71  70  69     1.390932733128   120.16570505   359.97464563
 H     68  67  25     1.083178963886   119.32855364     0.04057871
 H     69  68  67     1.083094482234   119.71784167   180.07288493
 H     70  69  68     1.082925406610   120.19800962   179.99037437
 H     71  70  69     1.083107173769   120.12069447   179.93332528
 H     72  71  70     1.083184899321   119.98886455   179.97420670

---------------------------
INTERNAL COORDINATES (A.U.)
---------------------------
 N      0   0   0     0.000000000000     0.00000000     0.00000000
 H      1   0   0    11.508115167089     0.00000000     0.00000000
 C      1   2   0     4.335150975327   140.74176214     0.00000000
 C      2   1   3     4.131052686520    33.53335273   359.92265709
 N      4   2   1     4.335071241333    95.72890635     0.10546907
 C      2   1   3     2.034613710961     4.28148201     0.76320005
 H      4   2   1     2.034560671393   104.99163936   180.17044812
 C      5   4   2     5.660668628152   125.17232846   359.95170789
 N      1   2   6     5.428771584425   101.41443537   180.92446091
 C      9   1   2     4.335140250219   117.84326184   179.81391117
 C      8   5   4     2.633714588030    54.75457960     0.05078862
 C      8   5   4     4.174969794943   108.02399739   180.06849786
 N     12   8   5     2.596687842903    36.49594011   359.85291816
 C     12   8   5     2.720987103814    72.70322819   179.77047234
 C      5   4   2     2.596670584811    36.35271280   179.94709567
 C      5   4   2     2.596693013746    70.65740558     0.00000000
 C      1   2   6     2.596677429926    70.08426492     0.83102631
 C      1   2   6     2.596680583128   177.09106081   359.91368685
 C      3   1   2     2.557139828778    72.84740619     0.03202793
 C     17   1   2     2.633763453477   126.27704883   359.94255782
 C     18   1  17     2.633693803405   126.28058068   180.12050265
 C     14  12   8     2.557129089226   107.29474691     0.04043156
 C      9   1   2     2.596719337889    81.49261096   179.89296568
 C     10   9   1     2.557099433996    72.84487769   180.14128539
 C     12   8   5     2.633855782231   162.77292880     0.09131181
 C      9   1   2     2.596680731599   171.49629015     0.30752931
 H      3   1   2     2.034608040100   159.27279615   180.19803218
 H     19   3   1     2.034611468547   127.86795644   180.12045937
 H     22  14  12     2.034601640007   127.87750005   180.06413545
 H     14  12   8     2.034593372101   124.84173600   180.15159032
 H     24  10   9     2.034554600958   127.87044857   179.86867986
 H     10   9   1     2.034614044652   159.28883997   359.97600660
 Pt     9   1   2     3.838579129617    44.99884979     0.06872539
 C     11   8   5     2.832498794540   117.77447688   180.03602460
 C     34  11   8     2.638279041138   120.64945491   270.75706970
 C     35  34  11     2.628541040106   120.67588829   179.98774264
 C     36  35  34     2.627836816127   120.16522925     0.00000000
 C     37  36  35     2.627854119961   119.61009114     0.00000000
 C     38  37  36     2.628533830441   120.16113054     0.00000000
 H     35  34  11     2.046921059095   119.33427522     0.00000000
 H     36  35  34     2.046755633549   119.71547006   179.99024958
 H     37  36  35     2.046437729308   120.19365915   180.00752098
 H     38  37  36     2.046766124973   120.12085939   180.01353522
 H     39  38  37     2.046948081236   119.98542222   180.01026686
 C     20  17   1     2.832355001194   117.78589349   180.00672480
 C     45  20  17     2.638383182818   120.63921366    92.70159491
 C     46  45  20     2.628492387758   120.67528316   179.99310832
 C     47  46  45     2.627858283401   120.16502648     0.00000000
 C     48  47  46     2.627865159316   119.61039275     0.00000000
 C     49  48  47     2.628505776256   120.16114394     0.00000000
 H     46  45  20     2.046920458988   119.33385303   359.96149731
 H     47  46  45     2.046771580176   119.71443278   179.95626462
 H     48  47  46     2.046440830888   120.19248561   180.01608382
 H     49  48  47     2.046748289578   120.12054737   180.03134760
 H     50  49  48     2.046913265923   119.99160542   180.01693933
 C     21  18   1     2.832491746221   117.77510857   179.97480889
 C     56  21  18     2.638346896709   120.64301280   269.93028884
 C     57  56  21     2.628536087212   120.67863705   179.99069446
 C     58  57  56     2.627857211642   120.16110562     0.00000000
 C     59  58  57     2.627839233485   119.60993104     0.00000000
 C     60  59  58     2.628547094564   120.16543600     0.00000000
 H     57  56  21     2.046942113016   119.33581920     0.00000000
 H     58  57  56     2.046775182287   119.71810161   180.00814271
 H     59  58  57     2.046438495642   120.19622210   180.00101373
 H     60  59  58     2.046763128907   120.11925419   179.99040517
 H     61  60  59     2.046918076699   119.98960067   179.99577222
 C     25  12   8     2.832251037029   117.78410027   179.91129462
 C     67  25  12     2.638374135870   120.64989280    86.19362558
 C     68  67  25     2.628482388677   120.68172546   179.97943157
 C     69  68  67     2.627865270289   120.16175598     0.03388652
 C     70  69  68     2.627857355933   119.60930377     0.00000000
 C     71  70  69     2.628481936318   120.16570505   359.97464563
 H     68  67  25     2.046911595768   119.32855364     0.04057871
 H     69  68  67     2.046751948583   119.71784167   180.07288493
 H     70  69  68     2.046432441958   120.19800962   179.99037437
 H     71  70  69     2.046775932108   120.12069447   179.93332528
 H     72  71  70     2.046922812116   119.98886455   179.97420670

---------------------
BASIS SET INFORMATION
---------------------
There are 4 groups of distinct atoms

 Group   1 Type N   : 11s6p2d1f contracted to 5s3p2d1f pattern {62111/411/11/1}
 Group   2 Type H   : 5s1p contracted to 3s1p pattern {311/1}
 Group   3 Type C   : 11s6p2d1f contracted to 5s3p2d1f pattern {62111/411/11/1}
 Group   4 Type Pt  : 8s7p6d1f contracted to 6s4p3d1f pattern {311111/4111/411/1}

Atom   0N    basis set group =>   1
Atom   1H    basis set group =>   2
Atom   2C    basis set group =>   3
Atom   3C    basis set group =>   3
Atom   4N    basis set group =>   1
Atom   5C    basis set group =>   3
Atom   6H    basis set group =>   2
Atom   7C    basis set group =>   3
Atom   8N    basis set group =>   1
Atom   9C    basis set group =>   3
Atom  10C    basis set group =>   3
Atom  11C    basis set group =>   3
Atom  12N    basis set group =>   1
Atom  13C    basis set group =>   3
Atom  14C    basis set group =>   3
Atom  15C    basis set group =>   3
Atom  16C    basis set group =>   3
Atom  17C    basis set group =>   3
Atom  18C    basis set group =>   3
Atom  19C    basis set group =>   3
Atom  20C    basis set group =>   3
Atom  21C    basis set group =>   3
Atom  22C    basis set group =>   3
Atom  23C    basis set group =>   3
Atom  24C    basis set group =>   3
Atom  25C    basis set group =>   3
Atom  26H    basis set group =>   2
Atom  27H    basis set group =>   2
Atom  28H    basis set group =>   2
Atom  29H    basis set group =>   2
Atom  30H    basis set group =>   2
Atom  31H    basis set group =>   2
Atom  32Pt   basis set group =>   4
Atom  33C    basis set group =>   3
Atom  34C    basis set group =>   3
Atom  35C    basis set group =>   3
Atom  36C    basis set group =>   3
Atom  37C    basis set group =>   3
Atom  38C    basis set group =>   3
Atom  39H    basis set group =>   2
Atom  40H    basis set group =>   2
Atom  41H    basis set group =>   2
Atom  42H    basis set group =>   2
Atom  43H    basis set group =>   2
Atom  44C    basis set group =>   3
Atom  45C    basis set group =>   3
Atom  46C    basis set group =>   3
Atom  47C    basis set group =>   3
Atom  48C    basis set group =>   3
Atom  49C    basis set group =>   3
Atom  50H    basis set group =>   2
Atom  51H    basis set group =>   2
Atom  52H    basis set group =>   2
Atom  53H    basis set group =>   2
Atom  54H    basis set group =>   2
Atom  55C    basis set group =>   3
Atom  56C    basis set group =>   3
Atom  57C    basis set group =>   3
Atom  58C    basis set group =>   3
Atom  59C    basis set group =>   3
Atom  60C    basis set group =>   3
Atom  61H    basis set group =>   2
Atom  62H    basis set group =>   2
Atom  63H    basis set group =>   2
Atom  64H    basis set group =>   2
Atom  65H    basis set group =>   2
Atom  66C    basis set group =>   3
Atom  67C    basis set group =>   3
Atom  68C    basis set group =>   3
Atom  69C    basis set group =>   3
Atom  70C    basis set group =>   3
Atom  71C    basis set group =>   3
Atom  72H    basis set group =>   2
Atom  73H    basis set group =>   2
Atom  74H    basis set group =>   2
Atom  75H    basis set group =>   2
Atom  76H    basis set group =>   2
---------------------------------
AUXILIARY/J BASIS SET INFORMATION
---------------------------------
There are 4 groups of distinct atoms

 Group   1 Type N   : 12s5p4d2f1g contracted to 6s4p3d1f1g pattern {711111/2111/211/2/1}
 Group   2 Type H   : 5s2p1d contracted to 3s1p1d pattern {311/2/1}
 Group   3 Type C   : 12s5p4d2f1g contracted to 6s4p3d1f1g pattern {711111/2111/211/2/1}
 Group   4 Type Pt  : 11s5p5d3f3g contracted to 8s5p5d2f3g pattern {41111111/11111/11111/21/111}

Atom   0N    basis set group =>   1
Atom   1H    basis set group =>   2
Atom   2C    basis set group =>   3
Atom   3C    basis set group =>   3
Atom   4N    basis set group =>   1
Atom   5C    basis set group =>   3
Atom   6H    basis set group =>   2
Atom   7C    basis set group =>   3
Atom   8N    basis set group =>   1
Atom   9C    basis set group =>   3
Atom  10C    basis set group =>   3
Atom  11C    basis set group =>   3
Atom  12N    basis set group =>   1
Atom  13C    basis set group =>   3
Atom  14C    basis set group =>   3
Atom  15C    basis set group =>   3
Atom  16C    basis set group =>   3
Atom  17C    basis set group =>   3
Atom  18C    basis set group =>   3
Atom  19C    basis set group =>   3
Atom  20C    basis set group =>   3
Atom  21C    basis set group =>   3
Atom  22C    basis set group =>   3
Atom  23C    basis set group =>   3
Atom  24C    basis set group =>   3
Atom  25C    basis set group =>   3
Atom  26H    basis set group =>   2
Atom  27H    basis set group =>   2
Atom  28H    basis set group =>   2
Atom  29H    basis set group =>   2
Atom  30H    basis set group =>   2
Atom  31H    basis set group =>   2
Atom  32Pt   basis set group =>   4
Atom  33C    basis set group =>   3
Atom  34C    basis set group =>   3
Atom  35C    basis set group =>   3
Atom  36C    basis set group =>   3
Atom  37C    basis set group =>   3
Atom  38C    basis set group =>   3
Atom  39H    basis set group =>   2
Atom  40H    basis set group =>   2
Atom  41H    basis set group =>   2
Atom  42H    basis set group =>   2
Atom  43H    basis set group =>   2
Atom  44C    basis set group =>   3
Atom  45C    basis set group =>   3
Atom  46C    basis set group =>   3
Atom  47C    basis set group =>   3
Atom  48C    basis set group =>   3
Atom  49C    basis set group =>   3
Atom  50H    basis set group =>   2
Atom  51H    basis set group =>   2
Atom  52H    basis set group =>   2
Atom  53H    basis set group =>   2
Atom  54H    basis set group =>   2
Atom  55C    basis set group =>   3
Atom  56C    basis set group =>   3
Atom  57C    basis set group =>   3
Atom  58C    basis set group =>   3
Atom  59C    basis set group =>   3
Atom  60C    basis set group =>   3
Atom  61H    basis set group =>   2
Atom  62H    basis set group =>   2
Atom  63H    basis set group =>   2
Atom  64H    basis set group =>   2
Atom  65H    basis set group =>   2
Atom  66C    basis set group =>   3
Atom  67C    basis set group =>   3
Atom  68C    basis set group =>   3
Atom  69C    basis set group =>   3
Atom  70C    basis set group =>   3
Atom  71C    basis set group =>   3
Atom  72H    basis set group =>   2
Atom  73H    basis set group =>   2
Atom  74H    basis set group =>   2
Atom  75H    basis set group =>   2
Atom  76H    basis set group =>   2
-------------------------
ECP PARAMETER INFORMATION
-------------------------

 Group 1, Type Pt ECP Def2-ECP (replacing 60 core electrons, lmax=3)

Atom  32Pt   ECP group =>   1



           ************************************************************
           *        Program running with 8 parallel MPI-processes     *
           *              working on a common directory               *
           ************************************************************
------------------------------------------------------------------------------
                             ORCA STARTUP CALCULATIONS
                           -- RI-GTO INTEGRALS CHOSEN --
------------------------------------------------------------------------------
------------------------------------------------------------------------------
                   ___                                                        
                  /   \      - P O W E R E D   B Y -                         
                 /     \                                                     
                 |  |  |   _    _      __       _____    __    __             
                 |  |  |  | |  | |    /  \     |  _  \  |  |  /  |          
                  \  \/   | |  | |   /    \    | | | |  |  | /  /          
                 / \  \   | |__| |  /  /\  \   | |_| |  |  |/  /          
                |  |  |   |  __  | /  /__\  \  |    /   |      \           
                |  |  |   | |  | | |   __   |  |    \   |  |\   \          
                \     /   | |  | | |  |  |  |  | |\  \  |  | \   \       
                 \___/    |_|  |_| |__|  |__|  |_| \__\ |__|  \__/        
                                                                              
                      - O R C A' S   B I G   F R I E N D -                    
                                      &                                       
                       - I N T E G R A L  F E E D E R -                       
                                                                              
 v1 FN, 2020, v2 2021, v3 2022-2024                                           
------------------------------------------------------------------------------


----------------------
SHARK INTEGRAL PACKAGE
----------------------

Number of atoms                             ...     77
Number of basis functions                   ...   1696
Number of shells                            ...    654
Maximum angular momentum                    ...      3
Integral batch strategy                     ... SHARK/LIBINT Hybrid
RI-J (if used) integral strategy            ... SPLIT-RIJ (Revised 2003 algorithm where possible)
Printlevel                                  ...      1
Contraction scheme used                     ... SEGMENTED contraction
Prescreening option                         ... SCHWARTZ
   Thresh                                   ... 2.500e-11
   Tcut                                     ... 2.500e-12
   Tpresel                                  ... 2.500e-12 
Coulomb Range Separation                    ... NOT USED
Exchange Range Separation                   ... NOT USED
Multipole approximations                    ... NOT USED
Finite Nucleus Model                        ... NOT USED
CABS basis                                  ... NOT available
Auxiliary Coulomb fitting basis             ... AVAILABLE
   # of basis functions in Aux-J            ...   2749
   # of shells in Aux-J                     ...    883
   Maximum angular momentum in Aux-J        ...      4
Auxiliary J/K fitting basis                 ... NOT available
Auxiliary Correlation fitting basis         ... NOT available
Auxiliary 'external' fitting basis          ... NOT available

Checking pre-screening integrals            ... done (  0.0 sec) Dimension = 654
   => SHARK Basis and OBASIS are compatible. Storing Pre-screening
Shell pair information
Shell pair cut-off parameter TPreSel        ...   2.5e-12
Total number of shell pairs                 ...    214185
Shell pairs after pre-screening             ...    104262
Total number of primitive shell pairs       ...    662980
Primitive shell pairs kept                  ...    199011
          la=0 lb=0:  24757 shell pairs
          la=1 lb=0:  30544 shell pairs
          la=1 lb=1:   9329 shell pairs
          la=2 lb=0:  14788 shell pairs
          la=2 lb=1:   9305 shell pairs
          la=2 lb=2:   2246 shell pairs
          la=3 lb=0:   6688 shell pairs
          la=3 lb=1:   4243 shell pairs
          la=3 lb=2:   1903 shell pairs
          la=3 lb=3:    459 shell pairs

Checking whether 4 symmetric matrices of dimension 1696 fit in memory
:Max Core in MB      =   3000.00
 MB in use           =    127.03
 MB left             =   2872.97
 MB needed           =     43.92
 Data fit in memory  = YES
Calculating RI/J V-Matrix + Cholesky decomp.... done (  3.1 sec)
Calculating Nuclear repulsion               ... done (  0.0 sec) ENN=   6002.797249912694 Eh

Diagonalization of the overlap matrix:
Smallest eigenvalue                        ... 2.861e-06
Time for diagonalization                   ...    1.849 sec
Threshold for overlap eigenvalues          ... 1.000e-07
Number of eigenvalues below threshold      ... 0
Time for construction of square roots      ...    0.866 sec
Total time needed                          ...    2.793 sec

-------------------
DFT GRID GENERATION
-------------------

General Integration Accuracy     IntAcc      ... 4.959
Radial Grid Type                 RadialGrid  ... OptM3 with GC (2021)
Angular Grid (max. ang.)         AngularGrid ... 6 (Lebedev-590)
Angular grid pruning method      GridPruning ... 4 (adaptive)
Weight generation scheme         WeightScheme... mBecke (2022)
Basis function cutoff            BFCut       ... 1.0000e-11
Integration weight cutoff        WCut        ... 1.0000e-14
Partially contracted basis set               ... off
Rotationally invariant grid construction     ... off
Angular grids for H and He will be reduced by one unit

Total number of grid points                  ...   932047
Total number of batches                      ...    14605
Average number of points per batch           ...       63
Average number of grid points per atom       ...    12105

--------------------
COSX GRID GENERATION
--------------------

GRIDX 1
-------
General Integration Accuracy     IntAcc      ... 4.020
Radial Grid Type                 RadialGrid  ... OptM3 with GC (2021)
Angular Grid (max. ang.)         AngularGrid ... 2 (Lebedev-110)
Angular grid pruning method      GridPruning ... 4 (adaptive)
Weight generation scheme         WeightScheme... mBecke (2022)
Basis function cutoff            BFCut       ... 1.0000e-11
Integration weight cutoff        WCut        ... 1.0000e-14
Partially contracted basis set               ... on
Rotationally invariant grid construction     ... off
Angular grids for H and He will be reduced by one unit

Total number of grid points                  ...   108589
Total number of batches                      ...      893
Average number of points per batch           ...      121
Average number of grid points per atom       ...     1410
UseSFitting                                  ... on

GRIDX 2
-------
General Integration Accuracy     IntAcc      ... 4.338
Radial Grid Type                 RadialGrid  ... OptM3 with GC (2021)
Angular Grid (max. ang.)         AngularGrid ... 3 (Lebedev-194)
Angular grid pruning method      GridPruning ... 4 (adaptive)
Weight generation scheme         WeightScheme... mBecke (2022)
Basis function cutoff            BFCut       ... 1.0000e-11
Integration weight cutoff        WCut        ... 1.0000e-14
Partially contracted basis set               ... on
Rotationally invariant grid construction     ... off
Angular grids for H and He will be reduced by one unit

Total number of grid points                  ...   230812
Total number of batches                      ...     1840
Average number of points per batch           ...      125
Average number of grid points per atom       ...     2998
UseSFitting                                  ... on

GRIDX 3
-------
General Integration Accuracy     IntAcc      ... 4.871
Radial Grid Type                 RadialGrid  ... OptM3 with GC (2021)
Angular Grid (max. ang.)         AngularGrid ... 4 (Lebedev-302)
Angular grid pruning method      GridPruning ... 4 (adaptive)
Weight generation scheme         WeightScheme... mBecke (2022)
Basis function cutoff            BFCut       ... 1.0000e-11
Integration weight cutoff        WCut        ... 1.0000e-14
Partially contracted basis set               ... on
Rotationally invariant grid construction     ... off
Angular grids for H and He will be reduced by one unit

Total number of grid points                  ...   423146
Total number of batches                      ...     3346
Average number of points per batch           ...      126
Average number of grid points per atom       ...     5495
UseSFitting                                  ... on
Grids setup in  72.4 sec
Initializing property integral containers    ... done (  0.0 sec)

SHARK setup successfully completed in  95.7 seconds

Maximum memory used throughout the entire STARTUP-calculation: 305.1 MB


           ************************************************************
           *        Program running with 8 parallel MPI-processes     *
           *              working on a common directory               *
           ************************************************************
-------------------------------------------------------------------------------
                                 ORCA GUESS
                   Start orbitals & Density for SCF / CASSCF
-------------------------------------------------------------------------------

------------
SCF SETTINGS
------------
Hamiltonian:
 Density Functional     Method          .... DFT(GTOs)
 Exchange Functional    Exchange        .... M062X
 Correlation Functional Correlation     .... M062X
 Gradients option       PostSCFGGA      .... off
 Hybrid DFT is turned on
   Fraction HF Exchange ScalHFX         ....  0.540000
   Scaling of DF-GGA-X  ScalDFX         ....  0.460000
   Scaling of DF-GGA-C  ScalDFC         ....  1.000000
   Scaling of DF-LDA-C  ScalLDAC        ....  1.000000
   Perturbative correction              ....  0.000000
 RI-approximation to the Coulomb term is turned on
   Number of AuxJ basis functions       .... 2749
   RIJ-COSX (HFX calculated with COS-X)).... on


General Settings:
 Integral files         IntName         .... tddft
 Hartree-Fock type      HFTyp           .... RHF
 Total Charge           Charge          ....    0
 Multiplicity           Mult            ....    1
 Number of Electrons    NEL             ....  338
 Basis Dimension        Dim             .... 1696
 Nuclear Repulsion      ENuc            ....   6002.7972499127 Eh

Convergence Acceleration:
 AO-DIIS                CNVDIIS         .... on
   Start iteration      DIISMaxIt       ....    12
   Startup error        DIISStart       ....  0.200000
   # of expansion vecs  DIISMaxEq       ....     5
   Bias factor          DIISBfac        ....   1.050
   Max. coefficient     DIISMaxC        ....  10.000
 MO-DIIS                CNVKDIIS        .... off
 Trust-Rad. Augm. Hess. CNVTRAH         .... auto
   Auto Start mean grad. ratio tolernc. ....  1.125000
   Auto Start start iteration           ....    50
   Auto Start num. interpolation iter.  ....    10
   Max. Number of Micro iterations      ....    24
   Max. Number of Macro iterations      .... Maxiter - #DIIS iter
   Number of Davidson start vectors     ....     2
   Converg. threshold    (grad. norm)   ....   1.000e-05
   Grad. Scal. Fac. for Micro threshold ....   0.100
   Minimum threshold for Micro iter.    ....   1.000e-02
   NR start threshold (gradient norm)   ....   1.000e-04
   Initial trust radius                 ....   0.400
   Minimum AH scaling param. (alpha)    ....   1.000
   Maximum AH scaling param. (alpha)    .... 1000.000
   Quad. conv. algorithm                .... NR
   White noise on init. David. guess    .... on
   Maximum white noise                  ....   0.010
   Pseudo random numbers                .... off
   Inactive MOs                         .... canonical
   Orbital update algorithm             .... Taylor
   Preconditioner                       .... Diag
   Full preconditioner red. dimension   ....   250
 SOSCF                 CNVSOSCF           .... on
   Start iteration     SOSCFMaxIt         ....   150
   Startup grad/error  SOSCFStart         ....  0.003300
   Hessian update      SOSCFHessUp        .... L-BFGS
   Autom. constraints  SOSCFAutoConstrain .... off
 Level Shifting         CNVShift        .... on
   Level shift para.    LevelShift      ....    0.2500
   Turn off err/grad.   ShiftErr        ....    0.0010
 Zerner damping         CNVZerner       .... off
 Static damping         CNVDamp         .... on
   Fraction old density DampFac         ....    0.7000
   Max. Damping (<1)    DampMax         ....    0.9800
   Min. Damping (>=0)   DampMin         ....    0.0000
   Turn off err/grad.   DampErr         ....    0.1000

SCF Procedure:
 Maximum # iterations   MaxIter         ....   125
 SCF integral mode      SCFMode         .... Direct
   Integral package                     .... SHARK and LIBINT hybrid scheme
 Reset frequency        DirectResetFreq ....    20
 Integral Threshold     Thresh          ....  2.500e-11 Eh
 Primitive CutOff       TCut            ....  2.500e-12 Eh

Convergence Tolerance:
 Convergence Check Mode ConvCheckMode   .... Total+1el-Energy
 Convergence forced     ConvForced      .... 1
 Energy Change          TolE            ....  1.000e-08 Eh
 1-El. energy change                    ....  1.000e-05 Eh
 Orbital Gradient       TolG            ....  1.000e-05
 Orbital Rotation angle TolX            ....  1.000e-05
 DIIS Error             TolErr          ....  5.000e-07

------------------------------
INITIAL GUESS: MODEL POTENTIAL
------------------------------
Loading Hartree-Fock densities                     ... done
Atomic calculation to generate a density for atom 32 (Pt with ECP)
  Multiplicity assumed   :    3
  Atomic configuration   : 1s2 2s2 2p6 3s2 3p6 4s2 3d10 4p6 5s2 4d10 5p6 6s2 4f14 5d8 
  Number of open shells  : 1
  Command: /opt/orca/orca tddft_atom78.inp "" > tddft_atom78.out
Returned from the atomic calculation with res=0
Calculating cut-offs                               ... done
Initializing the effective Hamiltonian             ... done
Setting up the integral package (SHARK)            ... done
Starting the Coulomb interaction                   ... done (   7.0 sec)
Making the grid                                    ... done (   1.7 sec)
Mapping shells                                     ... done
Starting the XC term evaluation                    ... done (   5.1 sec)
  promolecular density results
     # of electrons  =    397.982530950
     EX              =   -616.975643218
     EC              =    -15.584798733
     EX+EC           =   -632.560441951
Transforming the Hamiltonian                       ... done (   3.3 sec)
Diagonalizing the Hamiltonian                      ... done (   2.4 sec)
Back transforming the eigenvectors                 ... done (   1.4 sec)
Now organizing SCF variables                       ... done
                      ------------------
                      INITIAL GUESS DONE (  28.3 sec)
                      ------------------
             **** ENERGY FILE WAS UPDATED (tddft.en.tmp) ****
Finished Guess after  33.2 sec
Maximum memory used throughout the entire GUESS-calculation: 206.5 MB


           ************************************************************
           *        Program running with 8 parallel MPI-processes     *
           *              working on a common directory               *
           ************************************************************

-------------------------------------------------------------------------------------------
                                      ORCA LEAN-SCF
                              memory conserving SCF solver
-------------------------------------------------------------------------------------------

--------------------
CPCM SOLVATION MODEL
--------------------
CPCM parameters:
  Epsilon                                         ...       2.3870
  Refrac                                          ...       1.4961
  Rsolv                                           ...       1.3000
  Surface type                                    ... GAUSSIAN VDW
  Discretization scheme                           ... Constant charge density
    Threshold for H atoms                         ...       5.0000 (charges/Ang^2)
    Threshold for non-H atoms                     ...       5.0000 (charges/Ang^2)
  Epsilon function type                           ...         CPCM
Solvent:                                          ... TOLUENE
Radii:
  Scheme                                          ... Element-dependent radii
  Radius for N  used is    3.5149 Bohr (=   1.8600 Ang.)
  Radius for H  used is    2.4944 Bohr (=   1.3200 Ang.)
  Radius for C  used is    3.8550 Bohr (=   2.0400 Ang.)
  Radius for Pt used is    3.9004 Bohr (=   2.0640 Ang.)
Calculating surface                               ...        done! (  0.1s)
Cavity surface points                             ...         6828
Cavity Volume                                     ...    4942.1642
Cavity Surface-area                               ...    2293.1756
Calculating surface distance matrix               ...        done! (  5.8s)
Performing Cholesky decomposition & store         ...        done! (  5.6s)
Overall time for CPCM initialization              ...                11.5s

----------------------------------------D-I-I-S--------------------------------------------
Iteration    Energy (Eh)           Delta-E    RMSDP     MaxDP     DIISErr   Damp  Time(sec)
-------------------------------------------------------------------------------------------
               ***  Starting incremental Fock matrix formation  ***
    1    -2030.8139593595924453     0.00e+00  5.23e-03  2.86e-01  4.82e-01  0.700 416.3
    2    -2031.2142866961021355    -4.00e-01  3.77e-03  1.83e-01  3.37e-01  0.700 180.3
    3    -2031.4281954959824361    -2.14e-01  2.57e-03  1.22e-01  2.34e-01  0.700 131.7
                               ***Turning on AO-DIIS***
    4    -2031.5540870584145523    -1.26e-01  1.75e-03  7.82e-02  1.63e-01  0.700 154.5
    5    -2031.6383769675294388    -8.43e-02  1.22e-03  5.37e-02  1.14e-01  0.700 144.6
    6    -2031.6962921451658985    -5.79e-02  8.54e-04  3.77e-02  7.96e-02  0.700 143.4
    7    -2031.7366381439060206    -4.03e-02  2.00e-03  8.97e-02  5.59e-02  0.000 176.0
                              *** Initializing SOSCF ***
---------------------------------------S-O-S-C-F--------------------------------------
Iteration    Energy (Eh)           Delta-E    RMSDP     MaxDP     MaxGrad    Time(sec)
--------------------------------------------------------------------------------------
    8    -2031.8304157647198736    -9.38e-02  7.70e-05  6.83e-03  1.29e-03   255.6
               *** Restarting incremental Fock matrix formation ***
    9    -2031.8304370277955968    -2.13e-05  2.16e-04  5.64e-03  7.43e-04   462.3
   10    -2031.8304591421683654    -2.21e-05  1.25e-04  4.48e-03  5.55e-04   334.1
   11    -2031.8304629856866086    -3.84e-06  1.10e-04  2.98e-03  4.20e-04   304.1
   12    -2031.8304661100219164    -3.12e-06  1.52e-05  3.75e-04  5.59e-05   245.8
   13    -2031.8304661100737576    -5.18e-11  1.24e-05  3.55e-04  4.18e-05   169.6
                 **** Energy Check signals convergence ****

               *****************************************************
               *                     SUCCESS                       *
               *           SCF CONVERGED AFTER  13 CYCLES          *
               *****************************************************

Recomputing exchange energy using gridx3       ... done (  564.976 sec)
Old exchange energy                            :   -148.810017345 Eh
New exchange energy                            :   -148.809927246 Eh
Exchange energy change after final integration :      0.000090099 Eh
Total energy after final integration           :  -2031.830376191 Eh
             **** ENERGY FILE WAS UPDATED (tddft.en.tmp) ****

----------------
TOTAL SCF ENERGY
----------------

Total Energy       :      -2031.83037619099309 Eh          -55288.91537 eV

Components:
Nuclear Repulsion  :       6002.79724991269450 Eh          163344.41744 eV
Electronic Energy  :      -8034.61481404422921 Eh         -218632.98418 eV
One Electron Energy:     -14752.25336595974477 Eh         -401429.22236 eV
Two Electron Energy:       6717.63855191551556 Eh          182796.23818 eV
CPCM Dielectric    :         -0.01290215870365 Eh              -0.35109 eV

Virial components:
Potential Energy   :      -3974.85039746887969 Eh         -108161.17812 eV
Kinetic Energy     :       1943.02002127788660 Eh           52872.26275 eV
Virial Ratio       :          2.04570738023312

DFT components:
N(Alpha)           :      168.999987828848 electrons
N(Beta)            :      168.999987828848 electrons
N(Total)           :      337.999975657696 electrons
E(XC)              :     -139.345532457023 Eh       

CPCM Solvation Model Properties:
Surface-charge          :         -0.04977742617585
Corrected charge        :          0.00000000000000
Outlying charge corr.   :          0.00005650546837 Eh               0.00154 eV
Free-energy (cav+disp)  :  This term is not implemented in the current solvation scheme

---------------
SCF CONVERGENCE
---------------

  Last Energy change         ...    5.1841e-11  Tolerance :   1.0000e-08
  Last MAX-Density change    ...    3.5514e-04  Tolerance :   1.0000e-07
  Last RMS-Density change    ...    1.2359e-05  Tolerance :   5.0000e-09
  Last DIIS Error            ...    1.2943e-03  Tolerance :   5.0000e-07
  Last Orbital Gradient      ...    4.1828e-05  Tolerance :   1.0000e-05
  Last Orbital Rotation      ...    1.6015e-04  Tolerance :   1.0000e-05


----------------
ORBITAL ENERGIES
----------------

  NO   OCC          E(Eh)            E(eV) 
   0   2.0000     -14.782129      -402.2422 
   1   2.0000     -14.782124      -402.2420 
   2   2.0000     -14.782121      -402.2420 
   3   2.0000     -14.782117      -402.2419 
   4   2.0000     -10.583753      -287.9986 
   5   2.0000     -10.583742      -287.9983 
   6   2.0000     -10.583737      -287.9981 
   7   2.0000     -10.583727      -287.9979 
   8   2.0000     -10.583706      -287.9973 
   9   2.0000     -10.583702      -287.9972 
  10   2.0000     -10.583693      -287.9969 
  11   2.0000     -10.583691      -287.9969 
  12   2.0000     -10.567969      -287.5691 
  13   2.0000     -10.567948      -287.5685 
  14   2.0000     -10.567940      -287.5683 
  15   2.0000     -10.567937      -287.5682 
  16   2.0000     -10.559145      -287.3289 
  17   2.0000     -10.559135      -287.3287 
  18   2.0000     -10.559132      -287.3286 
  19   2.0000     -10.559129      -287.3285 
  20   2.0000     -10.546076      -286.9733 
  21   2.0000     -10.546074      -286.9733 
  22   2.0000     -10.546072      -286.9732 
  23   2.0000     -10.546066      -286.9730 
  24   2.0000     -10.546027      -286.9720 
  25   2.0000     -10.546025      -286.9719 
  26   2.0000     -10.546023      -286.9719 
  27   2.0000     -10.546018      -286.9717 
  28   2.0000     -10.545418      -286.9554 
  29   2.0000     -10.545417      -286.9554 
  30   2.0000     -10.545416      -286.9554 
  31   2.0000     -10.545410      -286.9552 
  32   2.0000     -10.545142      -286.9479 
  33   2.0000     -10.545141      -286.9479 
  34   2.0000     -10.545139      -286.9478 
  35   2.0000     -10.545134      -286.9477 
  36   2.0000     -10.544414      -286.9281 
  37   2.0000     -10.544413      -286.9281 
  38   2.0000     -10.544412      -286.9280 
  39   2.0000     -10.544406      -286.9279 
  40   2.0000     -10.542442      -286.8744 
  41   2.0000     -10.542436      -286.8743 
  42   2.0000     -10.542434      -286.8742 
  43   2.0000     -10.542432      -286.8742 
  44   2.0000     -10.541433      -286.8470 
  45   2.0000     -10.541427      -286.8468 
  46   2.0000     -10.541425      -286.8467 
  47   2.0000     -10.541423      -286.8467 
  48   2.0000      -4.105716      -111.7222 
  49   2.0000      -2.320228       -63.1366 
  50   2.0000      -2.320227       -63.1366 
  51   2.0000      -2.287224       -62.2385 
  52   2.0000      -1.092008       -29.7151 
  53   2.0000      -1.079411       -29.3723 
  54   2.0000      -1.079410       -29.3722 
  55   2.0000      -1.070878       -29.1401 
  56   2.0000      -0.978348       -26.6222 
  57   2.0000      -0.973566       -26.4921 
  58   2.0000      -0.973563       -26.4920 
  59   2.0000      -0.971620       -26.4391 
  60   2.0000      -0.933571       -25.4037 
  61   2.0000      -0.913823       -24.8664 
  62   2.0000      -0.913821       -24.8663 
  63   2.0000      -0.895196       -24.3595 
  64   2.0000      -0.875709       -23.8292 
  65   2.0000      -0.874659       -23.8007 
  66   2.0000      -0.874658       -23.8006 
  67   2.0000      -0.873067       -23.7574 
  68   2.0000      -0.847397       -23.0588 
  69   2.0000      -0.847387       -23.0586 
  70   2.0000      -0.847383       -23.0585 
  71   2.0000      -0.847382       -23.0584 
  72   2.0000      -0.842400       -22.9229 
  73   2.0000      -0.835402       -22.7325 
  74   2.0000      -0.835389       -22.7321 
  75   2.0000      -0.819817       -22.3083 
  76   2.0000      -0.808023       -21.9874 
  77   2.0000      -0.753813       -20.5123 
  78   2.0000      -0.753807       -20.5121 
  79   2.0000      -0.709714       -19.3123 
  80   2.0000      -0.693201       -18.8630 
  81   2.0000      -0.693143       -18.8614 
  82   2.0000      -0.693109       -18.8604 
  83   2.0000      -0.693078       -18.8596 
  84   2.0000      -0.689238       -18.7551 
  85   2.0000      -0.689173       -18.7533 
  86   2.0000      -0.683852       -18.6086 
  87   2.0000      -0.680234       -18.5101 
  88   2.0000      -0.672956       -18.3121 
  89   2.0000      -0.648958       -17.6590 
  90   2.0000      -0.648954       -17.6589 
  91   2.0000      -0.644101       -17.5269 
  92   2.0000      -0.637460       -17.3462 
  93   2.0000      -0.633558       -17.2400 
  94   2.0000      -0.618691       -16.8354 
  95   2.0000      -0.610448       -16.6111 
  96   2.0000      -0.610439       -16.6109 
  97   2.0000      -0.599674       -16.3180 
  98   2.0000      -0.597126       -16.2486 
  99   2.0000      -0.597108       -16.2481 
 100   2.0000      -0.580554       -15.7977 
 101   2.0000      -0.567599       -15.4452 
 102   2.0000      -0.567569       -15.4443 
 103   2.0000      -0.537347       -14.6220 
 104   2.0000      -0.535562       -14.5734 
 105   2.0000      -0.531231       -14.4555 
 106   2.0000      -0.531218       -14.4552 
 107   2.0000      -0.527040       -14.3415 
 108   2.0000      -0.525016       -14.2864 
 109   2.0000      -0.524993       -14.2858 
 110   2.0000      -0.522895       -14.2287 
 111   2.0000      -0.521271       -14.1845 
 112   2.0000      -0.505971       -13.7682 
 113   2.0000      -0.502802       -13.6819 
 114   2.0000      -0.502796       -13.6818 
 115   2.0000      -0.499712       -13.5979 
 116   2.0000      -0.495115       -13.4728 
 117   2.0000      -0.494615       -13.4592 
 118   2.0000      -0.491709       -13.3801 
 119   2.0000      -0.491703       -13.3799 
 120   2.0000      -0.489909       -13.3311 
 121   2.0000      -0.489451       -13.3186 
 122   2.0000      -0.489450       -13.3186 
 123   2.0000      -0.489340       -13.3156 
 124   2.0000      -0.480772       -13.0825 
 125   2.0000      -0.479019       -13.0348 
 126   2.0000      -0.477482       -12.9930 
 127   2.0000      -0.471740       -12.8367 
 128   2.0000      -0.471732       -12.8365 
 129   2.0000      -0.467447       -12.7199 
 130   2.0000      -0.453582       -12.3426 
 131   2.0000      -0.447239       -12.1700 
 132   2.0000      -0.447233       -12.1698 
 133   2.0000      -0.444129       -12.0854 
 134   2.0000      -0.435937       -11.8624 
 135   2.0000      -0.435933       -11.8623 
 136   2.0000      -0.430643       -11.7184 
 137   2.0000      -0.421799       -11.4777 
 138   2.0000      -0.412917       -11.2360 
 139   2.0000      -0.411692       -11.2027 
 140   2.0000      -0.408539       -11.1169 
 141   2.0000      -0.408532       -11.1167 
 142   2.0000      -0.407924       -11.1002 
 143   2.0000      -0.407904       -11.0996 
 144   2.0000      -0.406538       -11.0625 
 145   2.0000      -0.405328       -11.0295 
 146   2.0000      -0.390454       -10.6248 
 147   2.0000      -0.390433       -10.6242 
 148   2.0000      -0.383817       -10.4442 
 149   2.0000      -0.374321       -10.1858 
 150   2.0000      -0.374306       -10.1854 
 151   2.0000      -0.350368        -9.5340 
 152   2.0000      -0.343680        -9.3520 
 153   2.0000      -0.343562        -9.3488 
 154   2.0000      -0.330897        -9.0042 
 155   2.0000      -0.321589        -8.7509 
 156   2.0000      -0.315688        -8.5903 
 157   2.0000      -0.313793        -8.5387 
 158   2.0000      -0.313715        -8.5366 
 159   2.0000      -0.312764        -8.5107 
 160   2.0000      -0.311346        -8.4722 
 161   2.0000      -0.311310        -8.4712 
 162   2.0000      -0.311272        -8.4701 
 163   2.0000      -0.310711        -8.4549 
 164   2.0000      -0.309124        -8.4117 
 165   2.0000      -0.279515        -7.6060 
 166   2.0000      -0.279510        -7.6058 
 167   2.0000      -0.242337        -6.5943 
 168   2.0000      -0.242204        -6.5907 
 169   0.0000      -0.073771        -2.0074 
 170   0.0000      -0.073744        -2.0067 
 171   0.0000      -0.002607        -0.0709 
 172   0.0000       0.013493         0.3672 
 173   0.0000       0.014235         0.3873 
 174   0.0000       0.014823         0.4033 
 175   0.0000       0.014839         0.4038 
 176   0.0000       0.015750         0.4286 
 177   0.0000       0.016586         0.4513 
 178   0.0000       0.017484         0.4758 
 179   0.0000       0.017544         0.4774 
*Only the first 10 virtual orbitals were printed.

                    ********************************
                    * MULLIKEN POPULATION ANALYSIS *
                    ********************************

-----------------------
MULLIKEN ATOMIC CHARGES
-----------------------
   0 N :   -0.348592
   1 H :    0.201209
   2 C :   -0.246639
   3 C :   -0.245287
   4 N :   -0.348637
   5 C :   -0.246459
   6 H :    0.201567
   7 C :    0.130928
   8 N :   -0.348592
   9 C :   -0.246149
  10 C :    0.150026
  11 C :    0.131145
  12 N :   -0.348536
  13 C :   -0.244968
  14 C :    0.130078
  15 C :    0.133111
  16 C :    0.131850
  17 C :    0.131135
  18 C :   -0.245239
  19 C :    0.150854
  20 C :    0.151010
  21 C :   -0.246557
  22 C :    0.131350
  23 C :   -0.245467
  24 C :    0.150684
  25 C :    0.130970
  26 H :    0.201159
  27 H :    0.201415
  28 H :    0.201184
  29 H :    0.201534
  30 H :    0.201549
  31 H :    0.201278
  32 Pt:    0.472306
  33 C :   -0.162840
  34 C :   -0.146877
  35 C :   -0.162587
  36 C :   -0.150397
  37 C :   -0.163000
  38 C :   -0.147305
  39 H :    0.174519
  40 H :    0.163230
  41 H :    0.163427
  42 H :    0.163430
  43 H :    0.174564
  44 C :   -0.161266
  45 C :   -0.147913
  46 C :   -0.162799
  47 C :   -0.150348
  48 C :   -0.162724
  49 C :   -0.148368
  50 H :    0.174793
  51 H :    0.163307
  52 H :    0.163409
  53 H :    0.163380
  54 H :    0.174714
  55 C :   -0.162644
  56 C :   -0.147201
  57 C :   -0.163145
  58 C :   -0.150300
  59 C :   -0.162776
  60 C :   -0.146714
  61 H :    0.174577
  62 H :    0.163435
  63 H :    0.163427
  64 H :    0.163275
  65 H :    0.174513
  66 C :   -0.159919
  67 C :   -0.149605
  68 C :   -0.162403
  69 C :   -0.150584
  70 C :   -0.162574
  71 C :   -0.149041
  72 H :    0.174941
  73 H :    0.163394
  74 H :    0.163415
  75 H :    0.163341
  76 H :    0.175019
Sum of atomic charges:   -0.0000000

--------------------------------
MULLIKEN REDUCED ORBITAL CHARGES
--------------------------------
  0 N s       :     3.698414  s :     3.698414
      pz      :     1.389632  p :     3.571657
      px      :     1.135998
      py      :     1.046027
      dz2     :     0.005412  d :     0.074314
      dxz     :     0.013885
      dyz     :     0.014896
      dx2y2   :     0.018733
      dxy     :     0.021388
      f0      :     0.000810  f :     0.004207
      f+1     :     0.000532
      f-1     :     0.000539
      f+2     :     0.000269
      f-2     :     0.000528
      f+3     :     0.000596
      f-3     :     0.000934

  1 H s       :     0.778123  s :     0.778123
      pz      :     0.003959  p :     0.020668
      px      :     0.008063
      py      :     0.008646

  2 C s       :     3.217077  s :     3.217077
      pz      :     0.986615  p :     2.956305
      px      :     0.986639
      py      :     0.983051
      dz2     :     0.005664  d :     0.066287
      dxz     :     0.009228
      dyz     :     0.019320
      dx2y2   :     0.011604
      dxy     :     0.020469
      f0      :     0.001270  f :     0.006971
      f+1     :     0.000920
      f-1     :     0.000726
      f+2     :     0.000784
      f-2     :     0.000381
      f+3     :     0.001857
      f-3     :     0.001032

  3 C s       :     3.214930  s :     3.214930
      pz      :     0.987314  p :     2.957091
      px      :     0.982762
      py      :     0.987015
      dz2     :     0.005252  d :     0.066295
      dxz     :     0.019911
      dyz     :     0.009124
      dx2y2   :     0.011489
      dxy     :     0.020519
      f0      :     0.001311  f :     0.006971
      f+1     :     0.000658
      f-1     :     0.000916
      f+2     :     0.000826
      f-2     :     0.000379
      f+3     :     0.001013
      f-3     :     0.001868

  4 N s       :     3.698504  s :     3.698504
      pz      :     1.390303  p :     3.571633
      px      :     1.043070
      py      :     1.138260
      dz2     :     0.005353  d :     0.074292
      dxz     :     0.015203
      dyz     :     0.013674
      dx2y2   :     0.018689
      dxy     :     0.021373
      f0      :     0.000814  f :     0.004208
      f+1     :     0.000526
      f-1     :     0.000542
      f+2     :     0.000265
      f-2     :     0.000526
      f+3     :     0.000938
      f-3     :     0.000596

  5 C s       :     3.216092  s :     3.216092
      pz      :     0.986699  p :     2.957102
      px      :     1.016628
      py      :     0.953775
      dz2     :     0.005410  d :     0.066292
      dxz     :     0.017788
      dyz     :     0.011059
      dx2y2   :     0.014359
      dxy     :     0.017677
      f0      :     0.001298  f :     0.006972
      f+1     :     0.000716
      f-1     :     0.000881
      f+2     :     0.001065
      f-2     :     0.000124
      f+3     :     0.001026
      f-3     :     0.001861

  6 H s       :     0.777766  s :     0.777766
      pz      :     0.004016  p :     0.020667
      px      :     0.006235
      py      :     0.010415

  7 C s       :     3.192862  s :     3.192862
      pz      :     0.940528  p :     2.548624
      px      :     0.882676
      py      :     0.725421
      dz2     :     0.004821  d :     0.114669
      dxz     :     0.028964
      dyz     :     0.034972
      dx2y2   :     0.020897
      dxy     :     0.025016
      f0      :     0.002073  f :     0.012917
      f+1     :     0.001061
      f-1     :     0.001330
      f+2     :     0.000592
      f-2     :     0.002051
      f+3     :     0.002842
      f-3     :     0.002969

  8 N s       :     3.698451  s :     3.698451
      pz      :     1.390364  p :     3.571645
      px      :     1.043085
      py      :     1.138196
      dz2     :     0.005355  d :     0.074289
      dxz     :     0.015205
      dyz     :     0.013674
      dx2y2   :     0.018688
      dxy     :     0.021366
      f0      :     0.000814  f :     0.004208
      f+1     :     0.000526
      f-1     :     0.000543
      f+2     :     0.000265
      f-2     :     0.000526
      f+3     :     0.000938
      f-3     :     0.000596

  9 C s       :     3.215427  s :     3.215427
      pz      :     0.986674  p :     2.957472
      px      :     1.016884
      py      :     0.953914
      dz2     :     0.005420  d :     0.066277
      dxz     :     0.017784
      dyz     :     0.011047
      dx2y2   :     0.014357
      dxy     :     0.017669
      f0      :     0.001297  f :     0.006973
      f+1     :     0.000716
      f-1     :     0.000882
      f+2     :     0.001066
      f-2     :     0.000126
      f+3     :     0.001025
      f-3     :     0.001861

 10 C s       :     3.235096  s :     3.235096
      pz      :     0.957292  p :     2.516250
      px      :     0.757186
      py      :     0.801773
      dz2     :     0.003854  d :     0.090222
      dxz     :     0.020261
      dyz     :     0.022401
      dx2y2   :     0.021286
      dxy     :     0.022421
      f0      :     0.001410  f :     0.008406
      f+1     :     0.000928
      f-1     :     0.000947
      f+2     :     0.000693
      f-2     :     0.000833
      f+3     :     0.002065
      f-3     :     0.001529

 11 C s       :     3.193540  s :     3.193540
      pz      :     0.943308  p :     2.547692
      px      :     0.908929
      py      :     0.695456
      dz2     :     0.004883  d :     0.114708
      dxz     :     0.027653
      dyz     :     0.036189
      dx2y2   :     0.021077
      dxy     :     0.024906
[...]
  0-1A  ->  1-1A    2.637830   21275.5   470.0   0.006219012   0.00090   0.00618   0.02928  -0.00293
  0-1A  ->  2-1A    2.638168   21278.3   470.0   0.006194539   0.00090  -0.02939   0.00607  -0.00021
  0-1A  ->  3-1A    3.327875   26841.1   372.6   0.000000001   0.00000  -0.00001  -0.00001   0.00000
  0-1A  ->  4-1A    3.428895   27655.9   361.6   0.000000007   0.00000   0.00002   0.00003  -0.00001
  0-1A  ->  5-1A    3.554973   28672.8   348.8   0.000000119   0.00000  -0.00006   0.00006   0.00013
  0-1A  ->  6-1A    3.655836   29486.3   339.1   0.300534767   0.06057  -0.16084  -0.18519   0.02003
  0-1A  ->  7-1A    3.656334   29490.3   339.1   0.299249860   0.06031   0.18574  -0.16013   0.01317
  0-1A  ->  8-1A    3.950764   31865.1   313.8   0.000000001   0.00000  -0.00000  -0.00001  -0.00001
  0-1A  ->  9-1A    4.088716   32977.7   303.2   0.000000006   0.00000   0.00004  -0.00001  -0.00000
  0-1A  -> 10-1A    4.089048   32980.4   303.2   0.000000011   0.00000   0.00002  -0.00005   0.00000
  0-1A  -> 11-1A    4.604934   37141.3   269.2   0.044328531   0.01125  -0.10272   0.02647  -0.00073
  0-1A  -> 12-1A    4.605427   37145.3   269.2   0.044175231   0.01121  -0.02705  -0.10189   0.01006
  0-1A  -> 13-1A    4.625613   37308.1   268.0   0.000000903   0.00000  -0.00033  -0.00035   0.00004
  0-1A  -> 14-1A    4.627557   37323.8   267.9   0.000000029   0.00000  -0.00008   0.00003  -0.00001
  0-1A  -> 15-1A    4.636715   37397.6   267.4   0.000000040   0.00000   0.00004   0.00002   0.00009
  0-1A  -> 16-1A    4.779565   38549.8   259.4   0.000015306   0.00000  -0.00128  -0.00154   0.00018
  0-1A  -> 17-1A    4.782512   38573.6   259.2   0.000011152   0.00000   0.00133  -0.00108   0.00007
  0-1A  -> 18-1A    4.796223   38684.1   258.5   0.000163338   0.00004   0.00497   0.00427  -0.00054
  0-1A  -> 19-1A    4.815664   38841.0   257.5   0.000200419   0.00005   0.00392   0.00612  -0.00059
  0-1A  -> 20-1A    4.861008   39206.7   255.1   0.000000117   0.00000  -0.00004   0.00006   0.00016
  0-1A  -> 21-1A    4.939820   39842.3   251.0   0.000000056   0.00000   0.00005   0.00010   0.00004
  0-1A  -> 22-1A    5.029667   40567.0   246.5   0.000011715   0.00000  -0.00130   0.00121  -0.00027
  0-1A  -> 23-1A    5.055817   40777.9   245.2   0.000000093   0.00000  -0.00000   0.00008  -0.00014
  0-1A  -> 24-1A    5.060880   40818.8   245.0   0.000526030   0.00015   0.00785  -0.00424   0.00819
  0-1A  -> 25-1A    5.066979   40867.9   244.7   0.000387543   0.00011  -0.00695   0.00767  -0.00107
  0-1A  -> 26-1A    5.071705   40906.1   244.5   0.000000565   0.00000  -0.00039   0.00007  -0.00000
  0-1A  -> 27-1A    5.078621   40961.8   244.1   0.000026193   0.00001  -0.00190   0.00192  -0.00024
  0-1A  -> 28-1A    5.093642   41083.0   243.4   0.000027663   0.00001  -0.00228   0.00159  -0.00018
  0-1A  -> 29-1A    5.096542   41106.4   243.3   0.006273088   0.00176  -0.03307   0.02582  -0.00137
  0-1A  -> 30-1A    5.097049   41110.5   243.2   0.006675989   0.00188   0.02689   0.03376  -0.00364

------------------------------------------------------------------------------------------
                     CD SPECTRUM VIA TRANSITION ELECTRIC DIPOLE MOMENTS    
------------------------------------------------------------------------------------------
     Transition      Energy     Energy  Wavelength    R        MX        MY        MZ   
                      (eV)      (cm-1)    (nm)   (1e40*cgs)   (au)      (au)      (au)  
------------------------------------------------------------------------------------------
  0-1A  ->  1-1A    2.637830   21275.5   470.0    0.03822  -0.00037  -0.00021  -0.00001
  0-1A  ->  2-1A    2.638168   21278.3   470.0   -0.01410  -0.00004   0.00031  -0.00002
  0-1A  ->  3-1A    3.327875   26841.1   372.6    0.02865  -0.02040  -0.10669  -1.12723
  0-1A  ->  4-1A    3.428895   27655.9   361.6    0.00004   0.00022  -0.00002   0.00046
  0-1A  ->  5-1A    3.554973   28672.8   348.8   -0.00237   0.00153  -0.00240   0.00087
  0-1A  ->  6-1A    3.655836   29486.3   339.1   -3.00144   0.00091   0.00076   0.00001
  0-1A  ->  7-1A    3.656334   29490.3   339.1    3.65492   0.00107  -0.00092   0.00031
  0-1A  ->  8-1A    3.950764   31865.1   313.8    0.00079  -0.00163  -0.00238   0.00067
  0-1A  ->  9-1A    4.088716   32977.7   303.2   -0.00727  -0.01248   0.04672  -0.00288
  0-1A  -> 10-1A    4.089048   32980.4   303.2   -0.00244  -0.04666  -0.01222   0.00268
  0-1A  -> 11-1A    4.604934   37141.3   269.2    0.13274  -0.00023  -0.00006  -0.00010
  0-1A  -> 12-1A    4.605427   37145.3   269.2    0.64284  -0.00026  -0.00095   0.00007
  0-1A  -> 13-1A    4.625613   37308.1   268.0   -0.95427   0.22084   0.27448  -0.02502
  0-1A  -> 14-1A    4.627557   37323.8   267.9    0.12573  -0.27644   0.22078  -0.03742
  0-1A  -> 15-1A    4.636715   37397.6   267.4   -0.00819  -0.03377  -0.02440   0.00057
  0-1A  -> 16-1A    4.779565   38549.8   259.4   -0.06530   0.03487   0.04092  -0.00262
  0-1A  -> 17-1A    4.782512   38573.6   259.2    0.16476   0.04097  -0.03427   0.00537
  0-1A  -> 18-1A    4.796223   38684.1   258.5   -0.00088   0.00028   0.00040   0.00009
  0-1A  -> 19-1A    4.815664   38841.0   257.5    0.00018   0.00016   0.00013   0.00016
  0-1A  -> 20-1A    4.861008   39206.7   255.1   -0.00090   0.00333  -0.00453   0.00092
  0-1A  -> 21-1A    4.939820   39842.3   251.0   -0.00033  -0.00238  -0.00080  -0.00089
  0-1A  -> 22-1A    5.029667   40567.0   246.5    1.42523  -0.04330  -0.01561  -0.40952
  0-1A  -> 23-1A    5.055817   40777.9   245.2    0.24312  -0.01726  -0.06665  -0.73615
  0-1A  -> 24-1A    5.060880   40818.8   245.0   -0.97634  -0.00201   0.00065  -0.00655
  0-1A  -> 25-1A    5.066979   40867.9   244.7   -0.78259   0.01424  -0.00808   0.01689
  0-1A  -> 26-1A    5.071705   40906.1   244.5   -0.03581   0.05902   0.09864  -0.00080
  0-1A  -> 27-1A    5.078621   40961.8   244.1    0.46589  -0.08597   0.07755   0.25134
  0-1A  -> 28-1A    5.093642   41083.0   243.4   -0.02836   0.00259  -0.00275   0.01521
  0-1A  -> 29-1A    5.096542   41106.4   243.3   -1.30659   0.00357  -0.00228  -0.00543
  0-1A  -> 30-1A    5.097049   41110.5   243.2    0.56758   0.00069   0.00174  -0.00052

------------------------------------------------------------------------------------------
                     CD SPECTRUM VIA TRANSITION VELOCITY DIPOLE MOMENTS    
------------------------------------------------------------------------------------------
     Transition      Energy     Energy  Wavelength    R        MX        MY        MZ   
                      (eV)      (cm-1)    (nm)   (1e40*cgs)   (au)      (au)      (au)  
------------------------------------------------------------------------------------------
  0-1A  ->  1-1A    2.637830   21275.5   470.0   -0.04029  -0.00037  -0.00021  -0.00001
  0-1A  ->  2-1A    2.638168   21278.3   470.0    0.01439  -0.00004   0.00031  -0.00002
  0-1A  ->  3-1A    3.327875   26841.1   372.6    0.00094  -0.02040  -0.10669  -1.12723
  0-1A  ->  4-1A    3.428895   27655.9   361.6    0.00000   0.00022  -0.00002   0.00046
  0-1A  ->  5-1A    3.554973   28672.8   348.8   -0.00048   0.00153  -0.00240   0.00087
  0-1A  ->  6-1A    3.655836   29486.3   339.1   -1.01014   0.00091   0.00076   0.00001
  0-1A  ->  7-1A    3.656334   29490.3   339.1    1.22991   0.00107  -0.00092   0.00031
  0-1A  ->  8-1A    3.950764   31865.1   313.8    0.00008  -0.00163  -0.00238   0.00067
  0-1A  ->  9-1A    4.088716   32977.7   303.2   -0.00265  -0.01248   0.04672  -0.00288
  0-1A  -> 10-1A    4.089048   32980.4   303.2   -0.00134  -0.04666  -0.01222   0.00268
  0-1A  -> 11-1A    4.604934   37141.3   269.2    0.06035  -0.00023  -0.00006  -0.00010
  0-1A  -> 12-1A    4.605427   37145.3   269.2    0.29207  -0.00026  -0.00095   0.00007
  0-1A  -> 13-1A    4.625613   37308.1   268.0   -0.46869   0.22084   0.27448  -0.02502
  0-1A  -> 14-1A    4.627557   37323.8   267.9    0.08052  -0.27644   0.22078  -0.03742
  0-1A  -> 15-1A    4.636715   37397.6   267.4   -0.00475  -0.03377  -0.02440   0.00057
  0-1A  -> 16-1A    4.779565   38549.8   259.4   -0.28984   0.03487   0.04092  -0.00262
  0-1A  -> 17-1A    4.782512   38573.6   259.2    0.24646   0.04097  -0.03427   0.00537
  0-1A  -> 18-1A    4.796223   38684.1   258.5    0.00817   0.00028   0.00040   0.00009
  0-1A  -> 19-1A    4.815664   38841.0   257.5    0.00356   0.00016   0.00013   0.00016
  0-1A  -> 20-1A    4.861008   39206.7   255.1   -0.00068   0.00333  -0.00453   0.00092
  0-1A  -> 21-1A    4.939820   39842.3   251.0   -0.00063  -0.00238  -0.00080  -0.00089
  0-1A  -> 22-1A    5.029667   40567.0   246.5    0.38051  -0.04330  -0.01561  -0.40952
  0-1A  -> 23-1A    5.055817   40777.9   245.2    0.24686  -0.01726  -0.06665  -0.73615
  0-1A  -> 24-1A    5.060880   40818.8   245.0   -0.18290  -0.00201   0.00065  -0.00655
  0-1A  -> 25-1A    5.066979   40867.9   244.7   -0.45289   0.01424  -0.00808   0.01689
  0-1A  -> 26-1A    5.071705   40906.1   244.5   -0.04032   0.05902   0.09864  -0.00080
  0-1A  -> 27-1A    5.078621   40961.8   244.1    0.63720  -0.08597   0.07755   0.25134
  0-1A  -> 28-1A    5.093642   41083.0   243.4   -0.03275   0.00259  -0.00275   0.01521
  0-1A  -> 29-1A    5.096542   41106.4   243.3   -0.42643   0.00357  -0.00228  -0.00543
  0-1A  -> 30-1A    5.097049   41110.5   243.2    0.19924   0.00069   0.00174  -0.00052

Total run time:    30224.715 sec

           *** ORCA-CIS/TD-DFT FINISHED WITHOUT ERROR ***
-----------------------
CIS/TD-DFT TOTAL ENERGY
-----------------------

    E(SCF)  =  -2031.830376191 Eh
    DE(CIS) =      0.096938480 Eh (Root  1)
    ----------------------------- ---------
    E(tot)  =  -2031.733437711 Eh


Maximum memory used throughout the entire CIS-calculation: 2439.7 MB
=> NOW LEAVING ORCA_CIS

-------------------------   --------------------
FINAL SINGLE POINT ENERGY     -2031.733437710992
-------------------------   --------------------



           ************************************************************
           *        Program running with 8 parallel MPI-processes     *
           *              working on a common directory               *
           ************************************************************

------------------------------------------------------------------------------
                              ORCA PROPERTY CALCULATIONS
------------------------------------------------------------------------------

GBWName                                 ... tddft.gbw
Number of atoms                         ...     77
Number of basis functions               ...   1696
Max core memory                         ...   3000 MB

Electric properties:
Dipole moment                           ... YES
Quadrupole moment                       ...  NO
Static polarizability (Dipole/Dipole)   ...  NO
Static polarizability (Dipole/Quad.)    ...  NO
Static polarizability (Quad./Quad.)     ...  NO
Static polarizability (Velocity)        ...  NO
Static hyperpolarizability              ...  NO

Atomic electric properties:
Dipole moment                           ...  NO
Quadrupole moment                       ...  NO
Static polarizability                   ...  NO

Choice of electric origin               ... Center of mass
Position of electric origin             ...    -0.159740     5.088996     6.548052

General magnetic properties:
Magnetizability                         ...  NO

EPR properties:
g-Tensor (aka g-matrix)                 ...  NO
Zero-Field splitting spin-orbit         ...  NO
Zero-field splitting spin-spin          ...  NO
Hyperfine couplings                     ...  NO (   0 nuclei)
Quadrupole couplings                    ...  NO (   0 nuclei)
Contact density                         ...  NO (   0 nuclei)

NMR properties:
Chemical shifts                         ...  NO (   0 nuclei)
Spin-rotation constants                 ...  NO (   0 nuclei)
Spin-spin couplings                     ...  NO (   0 nuclei,    0 pairs)

Choice of magnetic origin               ... GIAO
Position of magnetic origin             ...     0.000000     0.000000     0.000000

Properties with geometric perturbations:
SCF Hessian                             ...  NO
IR spectrum                             ...  NO
VCD spectrum                            ...  NO
X-ray spectroscopy properties:
SCF XES/XAS/RIXS spectra                ...  NO

SCF SOC stabilization energy            ...  NO
Diagonal Born-Oppenheimer correction    ...  NO

-------------
DIPOLE MOMENT
-------------

Method             : SCF
Type of density    : Electron Density
Multiplicity       :   1
Irrep              :   0
Energy             : -2031.8303761909930927 Eh
Basis              : AO
                                X                 Y                 Z
Electronic contribution:     -0.007178080       0.005793304       0.030273620
Nuclear contribution   :      0.007463989      -0.005700084      -0.030643895
                        -----------------------------------------
Total Dipole Moment    :      0.000285909       0.000093220      -0.000370275
                        -----------------------------------------
Magnitude (a.u.)       :      0.000477008
Magnitude (Debye)      :      0.001212459



--------------------
Rotational spectrum 
--------------------
 
Rotational constants in cm-1:             0.001952             0.001952             0.001017 
Rotational constants in MHz :            58.530984            58.525184            30.503212 

Dipole components along the rotational axes: 
x,y,z [a.u.] :     0.000038     0.000317    -0.000354 
x,y,z [Debye]:     0.000097     0.000806    -0.000901 

 

Dipole moment calculation done in   0.9 sec 

Maximum memory used throughout the entire PROP-calculation: 233.3 MB

--------------------------------
SUGGESTED CITATIONS FOR THIS RUN
--------------------------------

Below you find a list of papers that are relevant to this ORCA run
We neither can nor want to force you to cite these papers, but we appreciate if you do
You receive ORCA, which is the product of decades of hard work by many enthusiastic individuals, for free
The only thing we kindly ask in return is that you cite our papers,
We deeply appreciate it, if you show your appreciation for ORCA by not just citing the generic ORCA reference.

Please note that relegating all ORCA citations to the supporting information does *not* help us.
SI sections are not indexed - citations you put there will not count into any citation statistics
But we need these citations in order to attract the funding resources that allow us to do what we are doing

Therefore, if you are a happy ORCA user, please consider citing a few of the papers listed below in the main body of your paper

In addition to the list printed below, the program has created the file tddft.bibtex that contains the list in bibtex format
You can import this file easily into all common literature databanks and citation aid programs

It goes without saying that in many instances, there are alternative algorithms to achieve similar
results as the ones you have gotten from ORCA. It is, of course, also the case that in some instances
ORCA just re-implements algorithms worked out by others. We are fully aware of that and we are also
fully appreciative of our colleagues work. Hence this citation list should not be read as indicating
that the listed papers, which are focused on our own work, are the only ones worth citing. It simply
meant to make it easier for users to cite ORCA specific papers. It is not a substitute for doing your
own literature research and citing the relevant literature in a scientifically appropriate manner.

List of essential papers. We consider these as the minimum necessary citations

  1. Neese, F.
     Software update: the ORCA program system, version 6.0
     WIRES Comput. Molec. Sci. 2025 15(1), e70019
     doi.org/10.1002/wcms.70019

List of papers to cite with high priority. The work reported in these papers was absolutely
necessary for this run to complete.
Our perspective: the developers of density functionals and basis sets usually get cited in chemistry papers
Good! But without the algorithms to do something with them, the functionals or basis sets would not do anything.
Hence, in our opinion, the algorithm design and method developments papers are equally worthy of getting cited

  1. Neese, F.; Olbrich, G.
     Efficient use of the resolution of the identity approximation in time-dependent density functional calculations with hybrid density functionals
     Chem. Phys. Lett. 2002 362 , 170-178
     doi.org/10.1016/s0009-2614(02)01053-9
  2. Neese, F.
     An improvement of the resolution of the identity approximation for the formation of the Coulomb matrix
     J. Comp. Chem. 2003 24(14), 1740-1747
     doi.org/10.1002/jcc.10318
  3. Neese, F.; Wennmohs, F.; Hansen, A.; Becker, U.
     Efficient, approximate and parallel Hartree-Fock and hybrid DFT calculations. A 'chain-of-spheres' algorithm for the Hartree-Fock exchange
     Chem. Phys. 2009 356(1-3), 98-109
     doi.org/10.1016/j.chemphys.2008.10.036
  4. Garcia-Rates, M.; Neese, F.
     Effect of the Solute Cavity on the Solvation Energy and its Derivatives within the Framework of the Gaussian Charge Scheme
     J. Comput. Chem. 2020 41 , 922-939
     doi.org/10.1002/jcc.26139
  5. Helmich-Paris, B.; de Souza, B.; Neese, F.; Izsák, R.
     An improved chain of spheres for exchange algorithm
     J. Chem. Phys. 2021 155(10), 104109
     doi.org/10.1063/5.0058766
  6. Neese, F.
     The SHARK Integral Generation and Digestion System
     J. Comp. Chem. 2022 44(3), 381
     doi.org/10.1002/jcc.26942

List of suggested additional citations. These are papers that are important in the 'surrounding' of 
of this run, or papers that preceded the highly important papers. If you like your results we are grateful for a citation.

  1. Izsak, R.; Neese, F.
     An overlap fitted chain of spheres exchange method
     J. Chem. Phys. 2011 135 , 144105
     doi.org/10.1063/1.3646921
  2. Izsak, R.; Hansen, A.; Neese, F.
     The resolution of identity and chain of spheres approximations for the LPNO-CCSD singles Fock term
     Molec. Phys. 2012 110 , 2413-2417
     doi.org/10.1080/00268976.2012.687466
  3. Neese, F.
     The ORCA program system
     WIRES Comput. Molec. Sci. 2012 2(1), 73-78
     doi.org/10.1002/wcms.81
  4. Izsak, R.; Neese, F.; Klopper, W.
     Robust fitting techniques in the chain of spheres approximation to the Fock exchange: The role of the complementary space
     J. Chem. Phys. 2013 139 , 
     doi.org/10.1063/1.4819264
  5. Neese, F.
     Software update: the ORCA program system, version 4.0
     WIRES Comput. Molec. Sci. 2018 8(1), 1-6
     doi.org/10.1002/wcms.1327
  6. Neese, F.; Wennmohs, F.; Becker, U.; Riplinger, C.
     The ORCA quantum chemistry program package
     J. Chem. Phys. 2020 152(22), 224108
     doi.org/10.1063/5.0004608
  7. Neese, F.
     Software update: The ORCA program system—Version 5.0
     WIRES Comput. Molec. Sci. 2022 12(1), e1606
     doi.org/10.1002/wcms.1606

List of optional additional citations

  1. Neese, F.
     Approximate second-order SCF convergence for spin unrestricted wavefunctions
     Chem. Phys. Lett. 2000 325(1-3), 93-98
     doi.org/10.1016/s0009-2614(00)00662-x

Timings for individual modules:

Sum of individual times          ...    34317.876 sec (= 571.965 min)
Startup calculation              ...       97.135 sec (=   1.619 min)   0.3 %
SCF iterations                   ...     3974.121 sec (=  66.235 min)  11.6 %
Property integrals               ...       10.568 sec (=   0.176 min)   0.0 %
Property calculations            ...        6.834 sec (=   0.114 min)   0.0 %
CIS module                       ...    30229.218 sec (= 503.820 min)  88.1 %
                             ****ORCA TERMINATED NORMALLY****
TOTAL RUN TIME: 0 days 9 hours 32 minutes 0 seconds 506 msec
