
                                 *****************
                                 * O   R   C   A *
                                 *****************

                                            #,                                       
                                            ###                                      
                                            ####                                     
                                            #####                                    
                                            ######                                   
                                           ########,                                 
                                     ,,################,,,,,                         
                               ,,#################################,,                 
                          ,,##########################################,,             
                       ,#########################################, ''#####,          
                    ,#############################################,,   '####,        
                  ,##################################################,,,,####,       
                ,###########''''           ''''###############################       
              ,#####''   ,,,,##########,,,,          '''####'''          '####       
            ,##' ,,,,###########################,,,                        '##       
           ' ,,###''''                  '''############,,,                           
         ,,##''                                '''############,,,,        ,,,,,,###''
      ,#''                                            '''#######################'''  
     '                                                          ''''####''''         
             ,#######,   #######,   ,#######,      ##                                
            ,#'     '#,  ##    ##  ,#'     '#,    #''#        ,####,    ,#,          
            ##       ##  ##   ,#'  ##            #'  '#       #'       ,# #          
            ##       ##  #######   ##           ,######,      #####,      #          
            '#,     ,#'  ##    ##  '#,     ,#' ,#      #,     #,   #      #          
             '#######'   ##     ##  '#######'  #'      '#     '####' #    #          



                #########################################################
                #                        -***-                          #
                #          Department of theory and spectroscopy        #
                #                                                       #
                #                      Frank Neese                      #
                #                                                       #
                #     Directorship, Architecture, Infrastructure        #
                #                    SHARK, DRIVERS                     #
                #        Core code/Algorithms in most modules           #
                #                                                       #
                #        Max Planck Institute fuer Kohlenforschung      #
                #                Kaiser Wilhelm Platz 1                 #
                #                 D-45470 Muelheim/Ruhr                 #
                #                      Germany                          #
                #                                                       #
                #                  All rights reserved                  #
                #                        -***-                          #
                #########################################################


                         Program Version 6.1.1  -  RELEASE   -
                                (GIT: $487d211c$)
                          ($2025-11-21 10:33:24 +0100$)


 With contributions from (in alphabetic order):
[Max-Planck-Institut fuer Kohlenforschung]                               
  Daniel Aravena         : Magnetic Suceptibility                        
  Michael Atanasov       : Ab Initio Ligand Field Theory (pilot matlab implementation)
  Alexander A. Auer      : GIAO ZORA, VPT2 properties, NMR spectrum      
  Ute Becker             : All parallelization in ORCA, NUMFREQ, NUMCALC 
  Giovanni Bistoni       : ED, misc. LED, open-shell LED, HFLD           
  Dmytro Bykov           : pre 5.0 version of the SCF Hessian            
  Marcos Casanova-Páez   : Triplet and SCS-CIS(D). UHF-(DLPNO)-IP/EA/STEOM-CCSD. UHF-CVS-IP/STEOM-CCSD   
  Vijay G. Chilkuri      : MRCI spin determinant printing, contributions to CSF-ICE 
  Pauline Colinet        : FMM embedding                                 
  Dipayan Datta          : RHF DLPNO-CCSD density                        
  Achintya Kumar Dutta   : EOM-CC, STEOM-CC                              
  Nicolas Foglia         : Exact transition moments, OPA infrastructure, MCD improvements    
  Dmitry Ganyushin       : Spin-Orbit,Spin-Spin,Magnetic field MRCI      
  Miquel Garcia-Rates    : C-PCM and meta-GGA Hessian, CCSD/C-PCM, Gaussian charge scheme 
  Tiago L. C. Gouveia    : GS-ROHF, GS-ROCIS                             
  Yang Guo               : DLPNO-NEVPT2, F12-NEVPT2, CIM, IAO-localization        
  Andreas Hansen         : Spin unrestricted coupled pair/coupled cluster methods 
  Ingolf Harden          : AUTO-CI MPn and infrastructure                
  Benjamin Helmich-Paris : MC-RPA, TRAH-(SCF,CASSCF), AVAS, COSX integrals, SCF dyn. polar., MC-PDFT, srDFT 
  Lee Huntington         : MR-EOM, pCC                                   
  Robert Izsak           : Overlap fitted RIJCOSX, COSX-SCS-MP3, EOM     
  Riya Kayal             : Wick's Theorem for AUTO-CI, AUTO-CI UHF-CCSDT 
  Emily Kempfer          : AUTO-CI RHF CISDT and CCSDT, approximate NEVPT4
  Christian Kollmar      : KDIIS, OOCD, Brueckner-CCSD(T), CCSD density, CASPT2, CASPT2-K, improved NEVPT2 
  Axel Koslowski         : Symmetry handling                             
  Simone Kossmann        : meta-GGA functionals, TD-DFT gradient, OOMP2, (MP2 Hessian; deprecated post 5.0) 
  Lucas Lang             : DCDCAS, Hyperfine gauge corrections, ICE-SOC+SSC
  Marvin Lechner         : AUTO-CI (C++ implementation), FIC-MRCC        
  Spencer Leger          : CASSCF response                               
  Dagmar Lenk            : GEPOL surface, SMD, ORCA-2-JSON               
  Dimitrios Liakos       : Extrapolation schemes; Compound Job, Property file
  Dimitrios Manganas     : Further ROCIS development; embedding schemes. LFT, Crystal Embedding 
  Dimitrios Pantazis     : SARC Basis sets                               
  Anastasios Papadopoulos: AUTO-CI, single reference methods and gradients 
  Taras Petrenko         : pre 6.0 DFT Hessian and TD-DFT gradient,  ECA, NRVS 
  Petra Pikulova         : Analytic Raman intensities                    
  Peter Pinski           : DLPNO-MP2, DLPNO-MP2 Gradient                 
  Shashank Vittal Rao    : ES-AILFT, MagRelax                            
  Christoph Reimann      : Effective Core Potentials                     
  Marius Retegan         : Local ZFS, SOC                                
  Christoph Riplinger    : Optimizer, TS searches, QM/MM, DLPNO-CCSD(T), (RO)-DLPNO pert. Triples 
  Michael Roemelt        : Original ROCIS implementation, recursive CI coupling coefficients
  Masaaki Saitow         : Open-shell DLPNO-CCSD energy and density      
  Barbara Sandhoefer     : DKH picture change effects                    
  Yorick L. A. Schmerwitz: GMF and freeze-and-release deltaSCF, NEB S-IDPP initial path                    
  Kantharuban Sivalingam : CASSCF convergence/infrastructure, NEVPT2, NEVPT3, NEVPT4(SD), FIC-MRCI and CEPA variants
  Bernardo de Souza      : ESD, SOC TD-DFT                               
  Georgi L. Stoychev     : AutoAux, RI-MP2 NMR, DLPNO-MP2 response, X2C  
  Van Anh Tran           : RI-MP2 g-tensors                              
  Willem Van den Heuvel  : Paramagnetic NMR                              
  Zikuan Wang            : NOTCH, Electric field optimization            
  Frank Wennmohs         : Technical directorship and infrastructure     
  Hang Xu                : AUTO-CI-Response properties                   
                                                                         
[FACCTs GmbH]                                                            
  Markus Bursch, Nicolas Foglia, Miquel Garcia-Rates, Ingolf Harden, Hagen Neugebauer, Anastasios Papadopoulos, 
  Christoph Riplinger, Bernardo de Souza, Georgi L. Stoychev                                                    
                                                                 
  APM, various basis sets, CI-OPT, improved COSX, DLPNO-Multilevel,           
  DOCKER, DRACO, updates on ESD, Fragmentator, GOAT, IRC, LR-CPCM, L-BFGS, MBIS, meta-GGA TD-DFT gradient, ML-optimized integration grids, 
  MM, NACMEs, nearIR, NEB, NEB-TS, NL-DFT gradient (VV10), 2- and 3-layer-ONIOM, interface openCOSMO-RS, QMMM,   
  Crystal-QMMM, RESP, rigid body optimization, SF, symmetry and pop. for TD-DFT, various functionals, SOLVATOR                                   
                                                                         
[Other institutions]                                                     
  V. Asgeirsson          : NEB                                           
  Christoph Bannwarth    : sTDA-DFT, sTD-DFT, PBEh-3c, B97-3c, D3        
  Giovanni Bistoni       : ETS/NOCV, ADLD/ADEX, COVALED                  
  Martin Brehm           : Molecular dynamics                            
  Ronald Cardenas        : ETS/NOCV                                      
  Martina Colucci        : COVALED                                       
  Sebastian Ehlert       : rSCAN, r2SCAN, r2SCAN-3c, D4, dhf basis sets  
  Marvin Friede          : D4 for Fr, Ra, Ac-Lr                          
  Lars Goerigk           : TD-DFT with DH, B97 family of functionals     
  Stefan Grimme          : VdW corrections, initial TS optimization, DFT functionals, gCP, sTDA/sTD-DF 
  Waldemar Hujo          : DFT-NL                                        
  H. Jonsson             : NEB                                           
  Holger Kruse           : gCP                                           
  Marcel Mueller         : wB97X-3c, vDZP basis set                      
  Hagen Neugebauer       : wr2SCAN, Native XTB                           
  Gianluca Regni         : ADLD/ADEX                                     
  Tobias Risthaus        : pre 6.0 range-separated hybrid DFT and stability analysis
  Lukas Wittmann         : regularized MP2, r2SCAN double-hybrids, wr2SCAN        
                                                                         
We gratefully acknowledge several colleagues who have allowed us to      
interface, adapt or use parts of their codes:                            
  Ed Valeev, F. Pavosevic, A. Kumar             : LibInt (2-el integral package), F12 methods 
  Garnet Chan, S. Sharma, J. Yang, R. Olivares  : DMRG                   
  Ulf Ekstrom                                   : XCFun DFT Library      
  Mihaly Kallay                                 : mrcc  (arbitrary order and MRCC methods)
  Frank Weinhold                                : gennbo (NPA and NBO analysis)           
  Simon Mueller                                 : openCOSMO-RS                            
  Christopher J. Cramer and Donald G. Truhlar   : smd solvation model                     
  S Lehtola, MJT Oliveira, MAL Marques          : LibXC Library                           
  Liviu Ungur et al                             : ANISO software                          


 Your calculation uses the libint2 library for the computation of 2-el integrals
 For citations please refer to: http://libint.valeyev.net

 Your ORCA version has been built with support for libXC version: 7.0.0
 For citations please refer to: https://libxc.gitlab.io

 This ORCA versions uses:
   CBLAS   interface :  Fast vector & matrix operations
   LAPACKE interface :  Fast linear algebra routines
   SCALAPACK package :  Parallel linear algebra routines
   Shared memory     :  Shared parallel matrices
   BLAS/LAPACK       :  OpenBLAS 0.3.29  USE64BITINT DYNAMIC_ARCH NO_AFFINITY Haswell SINGLE_THREADED
        Core in use  :  Haswell
   Copyright (c) 2011-2014, The OpenBLAS Project


  ***********************************
  * Starting time: Fri Jun 19 20:08:45 2026
  * Host name:     steezy
  * Process ID:    30623
  * Working dir.:  /home/jannes/metaltpp/pttpp/02_tddft_tda_comparison/runs/tdaon_bp86
  ***********************************

NOTE: MaxCore=3000 MB was set to SCF,MP2,MDCI,CIPSI,MRCI,RASCI and CIS
      => If you want to overwrite this, your respective input block should be placed after the MaxCore statement


***************************************
The coordinates will be read from file: /home/jannes/metaltpp/pttpp/01_opt/pttpp_opt_b3lyp_tzvp.xyz
***************************************


================================================================================

cite the ECPs for Pt [Def2-ECP] as follows:
Ce-Yb(ecp-28): M. Dolg, H. Stoll, H.Preuss, J. Chem. Phys., 1989, 90, 1730-1734.
Y-Cd(ecp-28), Hf-Hg(ecp-46): D. Andrae,U. Haeussermann, M. Dolg, H. Stoll, H. Preuss, Theor. Chim. Acta, 1990, 77, 123-141.
In-Sb(ecp-28), Tl-Bi(ecp-46): B. Metz, H. Stoll, M. Dolg, J. Chem. Phys., 2000, 113, 2563-2569.
Te-Xe(ecp-28), Po-Rn(ecp-46): K. A. Peterson, D. Figgen, E. Goll, H. Stoll, M. Dolg, J. Chem. Phys., 2003, 119, 11113-11123.
Rb(ecp-28), Cs(ecp-46): T. Leininger, A. Nicklass, W. Kuechle, H. Stoll, M. Dolg, A. Bergner, Chem. Phys. Lett., 1996, 255, 274-280.
Sr(ecp-28), Ba(ecp-46): M. Kaupp, P. V. Schleyer, H. Stoll and H. Preuss, J. Chem. Phys., 1991, 94, 1360-1366.
La(ecp-46): M. Dolg, H. Stoll, A. Savin, H. Preuss, Theor. Chim. Acta, 1989, 75, 173-194.
Lu(ecp-28): X. Cao, M. Dolg, J. Chem. Phys., 2001, 115, 7348-7355.

ECP parameters for Pt [Def2-ECP] have been obtained from:
TURBOMOLE (7.0.2)

----- Orbital basis set information -----
Your calculation utilizes the basis: def2-TZVP
   F. Weigend and R. Ahlrichs, Phys. Chem. Chem. Phys. 7, 3297 (2005).

----- AuxJ basis set information -----
Your calculation utilizes the auxiliary basis: def2/J
   H-Rn: F. Weigend, Phys. Chem. Chem. Phys. 8, 1057 (2006).
   Fr-Lr: K. Eichkorn, F. Weigend, O. Treutler, R. Ahlrichs; Theor. Chem. Acc. 97, 119 (1997).

================================================================================
                                        WARNINGS
                       Please study these warnings very carefully!
================================================================================



WARNING: Found flag for RIJCOSX approximation but no HF exchange needed!
  ===> : RIJCOSX  will be disabled and Split-RI-J is turned on

WARNING: CIS/ROCIS methods need fully converged wavefunctions
  ===> : Setting SCFConvForced true
         You can overwrite this default with %scf ConvForced false 


================================================================================
                                       INPUT FILE
================================================================================
NAME = tddft.inp
|  1> %pal nprocs 8 end
|  2> %maxcore 3000
|  3> ! BP86 def2-TZVP def2/J RIJCOSX DefGrid3 TightSCF CPCM(Toluene)
|  4> %tddft
|  5>   nroots 30
|  6>   triplets false
|  7> end
|  8> * xyzfile 0 1 /home/jannes/metaltpp/pttpp/01_opt/pttpp_opt_b3lyp_tzvp.xyz
|  9> 
| 10>                          ****END OF INPUT****
================================================================================

                       ****************************
                       * Single Point Calculation *
                       ****************************

---------------------------------
CARTESIAN COORDINATES (ANGSTROEM)
---------------------------------
  N     -2.108080    2.524279    3.521821
  H      1.680411   -2.228696    3.899477
  C     -4.349458    3.013050    3.514433
  C     -0.398442   -1.553009    3.873584
  N      0.088560    0.677670    3.651248
  C      0.949551   -1.440517    3.837518
  H     -0.984376   -2.450922    3.971525
  C      2.847257    1.833976    3.491404
  N     -0.257703    4.708353    3.279334
  C     -1.118860    6.826069    3.088574
  C      2.549630    0.479041    3.625472
  C      2.659016    4.025761    3.287331
  N      1.938935    2.861735    3.408577
  C      4.065124    3.715852    3.296533
  C     -0.942186   -0.224960    3.755982
  C      1.258712   -0.041150    3.698386
  C     -2.828125    1.360316    3.643826
  C     -3.016407    3.552146    3.440624
  C     -4.234182    1.670468    3.638051
  C     -2.303522    0.073788    3.753890
  C     -2.718800    4.906972    3.305530
  C      4.180359    2.373315    3.420619
  C     -1.427914    5.427035    3.231148
  C      0.229118    6.938555    3.051954
  C      2.134390    5.312204    3.175775
  C      0.772994    5.610851    3.172929
  H     -5.252396    3.598102    3.474038
  H     -5.024648    0.943812    3.717750
  H      5.083333    1.788511    3.463607
  H      4.855696    4.442619    3.219060
  H      0.814935    7.836215    2.951066
  H     -1.849779    7.614007    3.024296
  Pt    -0.084568    2.693014    3.465252
  C      3.695876   -0.484126    3.696986
  C      4.229424   -1.043081    2.534214
  C      5.293291   -1.936753    2.599920
  C      5.839023   -2.284185    3.830859
  C      5.314808   -1.733093    4.995018
  C      4.250819   -0.839685    4.927786
  H      3.806461   -0.774496    1.573874
  H      5.695024   -2.361196    1.688023
  H      6.667376   -2.979810    3.882542
  H      5.733653   -1.997749    5.958156
  H      3.844807   -0.411992    5.836385
  C     -3.268760   -1.066099    3.878097
  C     -3.705976   -1.754908    2.745100
  C     -4.601614   -2.812950    2.859511
  C     -5.072736   -3.197536    4.110076
  C     -4.643439   -2.517963    5.244832
  C     -3.748094   -1.459835    5.128853
  H     -3.340989   -1.457561    1.769571
  H     -4.931069   -3.336024    1.970147
  H     -5.769853   -4.021390    4.199691
  H     -5.004692   -2.810883    6.222985
  H     -3.415304   -0.932587    6.014595
  C     -3.865024    5.870187    3.234394
  C     -4.430187    6.214194    2.004966
  C     -5.494016    7.107822    1.938107
  C     -6.007887    7.670629    3.101275
  C     -5.451911    7.334755    4.330839
  C     -4.388123    6.440956    4.396165
  H     -4.032155    5.777467    1.097137
  H     -5.920696    7.363647    0.976017
  H     -6.836127    8.366411    3.049884
  H     -5.845584    7.768322    5.241963
  H     -3.957179    6.181389    5.355434
  C      3.099632    6.451912    3.050615
  C      3.597036    6.829503    1.801896
  C      4.492529    7.887381    1.684927
  C      4.904107    8.582789    2.816650
  C      4.415074    8.214280    4.065178
  C      3.519150    7.156593    4.180557
  H      3.277964    6.290038    0.918467
  H      4.867638    8.167831    0.708334
  H      5.601401    9.406404    2.726278
  H      4.730926    8.749507    4.952246
  H      3.140359    6.871707    5.154542

----------------------------
CARTESIAN COORDINATES (A.U.)
----------------------------
  NO LB      ZA    FRAG     MASS         X           Y           Z
   0 N     7.0000    0    14.007   -3.983695    4.770195    6.655278
   1 H     1.0000    0     1.008    3.175517   -4.211625    7.368943
   2 C     6.0000    0    12.011   -8.219284    5.693840    6.641315
   3 C     6.0000    0    12.011   -0.752946   -2.934761    7.320012
   4 N     7.0000    0    14.007    0.167354    1.280611    6.899858
   5 C     6.0000    0    12.011    1.794392   -2.722182    7.251858
   6 H     1.0000    0     1.008   -1.860201   -4.631572    7.505095
   7 C     6.0000    0    12.011    5.380536    3.465712    6.597798
   8 N     7.0000    0    14.007   -0.486989    8.897498    6.197042
   9 C     6.0000    0    12.011   -2.114338   12.899400    5.836559
  10 C     6.0000    0    12.011    4.818103    0.905256    6.851149
  11 C     6.0000    0    12.011    5.024812    7.607586    6.212156
  12 N     7.0000    0    14.007    3.664057    5.407895    6.441276
  13 C     6.0000    0    12.011    7.681970    7.021942    6.229544
  14 C     6.0000    0    12.011   -1.780474   -0.425112    7.097777
  15 C     6.0000    0    12.011    2.378621   -0.077763    6.988937
  16 C     6.0000    0    12.011   -5.344382    2.570625    6.885832
  17 C     6.0000    0    12.011   -5.700183    6.712584    6.501837
  18 C     6.0000    0    12.011   -8.001444    3.156728    6.874921
  19 C     6.0000    0    12.011   -4.353026    0.139440    7.093824
  20 C     6.0000    0    12.011   -5.137787    9.272834    6.246547
  21 C     6.0000    0    12.011    7.899733    4.484916    6.464033
  22 C     6.0000    0    12.011   -2.698366   10.255611    6.105984
  23 C     6.0000    0    12.011    0.432971   13.111968    5.767357
  24 C     6.0000    0    12.011    4.033413   10.038611    6.001345
  25 C     6.0000    0    12.011    1.460747   10.602973    5.995967
  26 H     1.0000    0     1.008   -9.925590    6.799427    6.564980
  27 H     1.0000    0     1.008   -9.495208    1.783546    7.025529
  28 H     1.0000    0     1.008    9.606108    3.379796    6.545268
  29 H     1.0000    0     1.008    9.175936    8.395334    6.083142
  30 H     1.0000    0     1.008    1.540005   14.808300    5.576706
  31 H     1.0000    0     1.008   -3.495577   14.388387    5.715091
  32 Pt   18.0000*   0   195.090   -0.159811    5.089059    6.548377
  33 C     6.0000    0    12.011    6.984193   -0.914865    6.986290
  34 C     6.0000    0    12.011    7.992453   -1.971137    4.788970
  35 C     6.0000    0    12.011   10.002871   -3.659933    4.913137
  36 C     6.0000    0    12.011   11.034155   -4.316485    7.239275
  37 C     6.0000    0    12.011   10.043531   -3.275071    9.439216
  38 C     6.0000    0    12.011    8.032884   -1.586774    9.312167
  39 H     1.0000    0     1.008    7.193169   -1.463586    2.974191
  40 H     1.0000    0     1.008   10.762035   -4.462014    3.189901
  41 H     1.0000    0     1.008   12.599515   -5.631026    7.336940
  42 H     1.0000    0     1.008   10.835033   -3.775199   11.259284
  43 H     1.0000    0     1.008    7.265632   -0.778551   11.029169
  44 C     6.0000    0    12.011   -6.177061   -2.014635    7.328540
  45 C     6.0000    0    12.011   -7.003279   -3.316296    5.187487
  46 C     6.0000    0    12.011   -8.695790   -5.315704    5.403693
  47 C     6.0000    0    12.011   -9.586081   -6.042468    7.766919
  48 C     6.0000    0    12.011   -8.774829   -4.758261    9.911296
  49 C     6.0000    0    12.011   -7.082871   -2.758689    9.692128
  50 H     1.0000    0     1.008   -6.313555   -2.754391    3.344005
  51 H     1.0000    0     1.008   -9.318370   -6.304172    3.723038
  52 H     1.0000    0     1.008  -10.903441   -7.599325    7.936267
  53 H     1.0000    0     1.008   -9.457497   -5.311799   11.759738
  54 H     1.0000    0     1.008   -6.453989   -1.762334   11.365937
  55 C     6.0000    0    12.011   -7.303836   11.093045    6.112119
  56 C     6.0000    0    12.011   -8.371839   11.743125    3.788836
  57 C     6.0000    0    12.011  -10.382185   13.431836    3.662491
  58 C     6.0000    0    12.011  -11.353260   14.495389    5.860560
  59 C     6.0000    0    12.011  -10.302620   13.860678    8.184099
  60 C     6.0000    0    12.011   -8.292350   12.171643    8.307548
  61 H     1.0000    0     1.008   -7.619669   10.917831    2.073289
  62 H     1.0000    0     1.008  -11.188494   13.915276    1.844404
  63 H     1.0000    0     1.008  -12.918407   15.810225    5.763445
  64 H     1.0000    0     1.008  -11.046554   14.680001    9.905874
  65 H     1.0000    0     1.008   -7.477985   11.681133   10.120303
  66 C     6.0000    0    12.011    5.857456   12.192346    5.764826
  67 C     6.0000    0    12.011    6.797412   12.905891    3.405090
  68 C     6.0000    0    12.011    8.489649   14.904990    3.184050
  69 C     6.0000    0    12.011    9.267419   16.219121    5.322696
  70 C     6.0000    0    12.011    8.343282   15.522739    7.682073
  71 C     6.0000    0    12.011    6.650230   13.524000    7.900107
  72 H     1.0000    0     1.008    6.194455   11.886449    1.735651
  73 H     1.0000    0     1.008    9.198503   15.434964    1.338557
  74 H     1.0000    0     1.008   10.585114   17.775528    5.151919
  75 H     1.0000    0     1.008    8.940155   16.534172    9.358389
  76 H     1.0000    0     1.008    5.934418   12.985645    9.740672
* core charge reduced due to ECP

--------------------------------
INTERNAL COORDINATES (ANGSTROEM)
--------------------------------
 N      0   0   0     0.000000000000     0.00000000     0.00000000
 H      1   0   0     6.089832256915     0.00000000     0.00000000
 C      1   2   0     2.294063090683   140.74176214     0.00000000
 C      2   1   3     2.186058927993    33.53335273   359.92265709
 N      4   2   1     2.294020897270    95.72890635     0.10546907
 C      2   1   3     1.076671203535     4.28148201     0.76320005
 H      4   2   1     1.076643136205   104.99163936   180.17044812
 C      5   4   2     2.995496821757   125.17232846   359.95170789
 N      1   2   6     2.872782191544   101.41443537   180.92446091
 C      9   1   2     2.294057415200   117.84326184   179.81391117
 C      8   5   4     1.393701733153    54.75457960     0.05078862
 C      8   5   4     2.209298860825   108.02399739   180.06849786
 N     12   8   5     1.374108023534    36.49594011   359.85291816
 C     12   8   5     1.439884359416    72.70322819   179.77047234
 C      5   4   2     1.374098890945    36.35271280   179.94709567
 C      5   4   2     1.374110759826    70.65740558     0.00000000
 C      1   2   6     1.374102513224    70.08426492     0.83102631
 C      1   2   6     1.374104181827   177.09106081   359.91368685
 C      3   1   2     1.353180115826    72.84740619     0.03202793
 C     17   1   2     1.393727591634   126.27704883   359.94255782
 C     18   1  17     1.393690734403   126.28058068   180.12050265
 C     14  12   8     1.353174432699   107.29474691     0.04043156
 C      9   1   2     1.374124689963    81.49261096   179.89296568
 C     10   9   1     1.353158739827    72.84487769   180.14128539
 C     12   8   5     1.393776449906   162.77292880     0.09131181
 C      9   1   2     1.374104260394   171.49629015     0.30752931
 H      3   1   2     1.076668202645   159.27279615   180.19803218
 H     19   3   1     1.076670016901   127.86795644   180.12045937
 H     22  14  12     1.076664815862   127.87750005   180.06413545
 H     14  12   8     1.076660440674   124.84173600   180.15159032
 H     24  10   9     1.076639923869   127.87044857   179.86867986
 H     10   9   1     1.076671380117   159.28883997   359.97600660
 Pt     9   1   2     2.031288587650    44.99884979     0.06872539
 C     11   8   5     1.498893804608   117.77447688   180.03602460
 C     34  11   8     1.396117137706   120.64945491   270.75706970
 C     35  34  11     1.390964009505   120.67588829   179.98774264
 C     36  35  34     1.390591350226   120.16522925     0.00000000
 C     37  36  35     1.390600507021   119.61009114     0.00000000
 C     38  37  36     1.390960194315   120.16113054     0.00000000
 H     35  34  11     1.083183971663   119.33427522     0.00000000
 H     36  35  34     1.083096432234   119.71547006   179.99024958
 H     37  36  35     1.082928204555   120.19365915   180.00752098
 H     38  37  36     1.083101984056   120.12085939   180.01353522
 H     39  38  37     1.083198271163   119.98542222   180.01026686
 C     20  17   1     1.498817712446   117.78589349   180.00672480
 C     45  20  17     1.396172247109   120.63921366    92.70159491
 C     46  45  20     1.390938263792   120.67528316   179.99310832
 C     47  46  45     1.390602710218   120.16502648     0.00000000
 C     48  47  46     1.390606348796   119.61039275     0.00000000
 C     49  48  47     1.390945348680   120.16114394     0.00000000
 H     46  45  20     1.083183654099   119.33385303   359.96149731
 H     47  46  45     1.083104870825   119.71443278   179.95626462
 H     48  47  46     1.082929845840   120.19248561   180.01608382
 H     49  48  47     1.083092545972   120.12054737   180.03134760
 H     50  49  48     1.083179847693   119.99160542   180.01693933
 C     21  18   1     1.498890074798   117.77510857   179.97480889
 C     56  21  18     1.396153045327   120.64301280   269.93028884
 C     57  56  21     1.390961388547   120.67863705   179.99069446
 C     58  57  56     1.390602143068   120.16110562     0.00000000
 C     59  58  57     1.390592629437   119.60993104     0.00000000
 C     60  59  58     1.390967213387   120.16543600     0.00000000
 H     57  56  21     1.083195112918   119.33581920     0.00000000
 H     58  57  56     1.083106776980   119.71810161   180.00814271
 H     59  58  57     1.082928610081   120.19622210   180.00101373
 H     60  59  58     1.083100398606   120.11925419   179.99040517
 H     61  60  59     1.083182393446   119.98960067   179.99577222
 C     25  12   8     1.498762696980   117.78410027   179.91129462
 C     67  25  12     1.396167459671   120.64989280    86.19362558
 C     68  67  25     1.390932972506   120.68172546   179.97943157
 C     69  68  67     1.390606407520   120.16175598     0.03388652
 C     70  69  68     1.390602219423   119.60930377     0.00000000
 C     71  70  69     1.390932733128   120.16570505   359.97464563
 H     68  67  25     1.083178963886   119.32855364     0.04057871
 H     69  68  67     1.083094482234   119.71784167   180.07288493
 H     70  69  68     1.082925406610   120.19800962   179.99037437
 H     71  70  69     1.083107173769   120.12069447   179.93332528
 H     72  71  70     1.083184899321   119.98886455   179.97420670

---------------------------
INTERNAL COORDINATES (A.U.)
---------------------------
 N      0   0   0     0.000000000000     0.00000000     0.00000000
 H      1   0   0    11.508115167089     0.00000000     0.00000000
 C      1   2   0     4.335150975327   140.74176214     0.00000000
 C      2   1   3     4.131052686520    33.53335273   359.92265709
 N      4   2   1     4.335071241333    95.72890635     0.10546907
 C      2   1   3     2.034613710961     4.28148201     0.76320005
 H      4   2   1     2.034560671393   104.99163936   180.17044812
 C      5   4   2     5.660668628152   125.17232846   359.95170789
 N      1   2   6     5.428771584425   101.41443537   180.92446091
 C      9   1   2     4.335140250219   117.84326184   179.81391117
 C      8   5   4     2.633714588030    54.75457960     0.05078862
 C      8   5   4     4.174969794943   108.02399739   180.06849786
 N     12   8   5     2.596687842903    36.49594011   359.85291816
 C     12   8   5     2.720987103814    72.70322819   179.77047234
 C      5   4   2     2.596670584811    36.35271280   179.94709567
 C      5   4   2     2.596693013746    70.65740558     0.00000000
 C      1   2   6     2.596677429926    70.08426492     0.83102631
 C      1   2   6     2.596680583128   177.09106081   359.91368685
 C      3   1   2     2.557139828778    72.84740619     0.03202793
 C     17   1   2     2.633763453477   126.27704883   359.94255782
 C     18   1  17     2.633693803405   126.28058068   180.12050265
 C     14  12   8     2.557129089226   107.29474691     0.04043156
 C      9   1   2     2.596719337889    81.49261096   179.89296568
 C     10   9   1     2.557099433996    72.84487769   180.14128539
 C     12   8   5     2.633855782231   162.77292880     0.09131181
 C      9   1   2     2.596680731599   171.49629015     0.30752931
 H      3   1   2     2.034608040100   159.27279615   180.19803218
 H     19   3   1     2.034611468547   127.86795644   180.12045937
 H     22  14  12     2.034601640007   127.87750005   180.06413545
 H     14  12   8     2.034593372101   124.84173600   180.15159032
 H     24  10   9     2.034554600958   127.87044857   179.86867986
 H     10   9   1     2.034614044652   159.28883997   359.97600660
 Pt     9   1   2     3.838579129617    44.99884979     0.06872539
 C     11   8   5     2.832498794540   117.77447688   180.03602460
 C     34  11   8     2.638279041138   120.64945491   270.75706970
 C     35  34  11     2.628541040106   120.67588829   179.98774264
 C     36  35  34     2.627836816127   120.16522925     0.00000000
 C     37  36  35     2.627854119961   119.61009114     0.00000000
 C     38  37  36     2.628533830441   120.16113054     0.00000000
 H     35  34  11     2.046921059095   119.33427522     0.00000000
 H     36  35  34     2.046755633549   119.71547006   179.99024958
 H     37  36  35     2.046437729308   120.19365915   180.00752098
 H     38  37  36     2.046766124973   120.12085939   180.01353522
 H     39  38  37     2.046948081236   119.98542222   180.01026686
 C     20  17   1     2.832355001194   117.78589349   180.00672480
 C     45  20  17     2.638383182818   120.63921366    92.70159491
 C     46  45  20     2.628492387758   120.67528316   179.99310832
 C     47  46  45     2.627858283401   120.16502648     0.00000000
 C     48  47  46     2.627865159316   119.61039275     0.00000000
 C     49  48  47     2.628505776256   120.16114394     0.00000000
 H     46  45  20     2.046920458988   119.33385303   359.96149731
 H     47  46  45     2.046771580176   119.71443278   179.95626462
 H     48  47  46     2.046440830888   120.19248561   180.01608382
 H     49  48  47     2.046748289578   120.12054737   180.03134760
 H     50  49  48     2.046913265923   119.99160542   180.01693933
 C     21  18   1     2.832491746221   117.77510857   179.97480889
 C     56  21  18     2.638346896709   120.64301280   269.93028884
 C     57  56  21     2.628536087212   120.67863705   179.99069446
 C     58  57  56     2.627857211642   120.16110562     0.00000000
 C     59  58  57     2.627839233485   119.60993104     0.00000000
 C     60  59  58     2.628547094564   120.16543600     0.00000000
 H     57  56  21     2.046942113016   119.33581920     0.00000000
 H     58  57  56     2.046775182287   119.71810161   180.00814271
 H     59  58  57     2.046438495642   120.19622210   180.00101373
 H     60  59  58     2.046763128907   120.11925419   179.99040517
 H     61  60  59     2.046918076699   119.98960067   179.99577222
 C     25  12   8     2.832251037029   117.78410027   179.91129462
 C     67  25  12     2.638374135870   120.64989280    86.19362558
 C     68  67  25     2.628482388677   120.68172546   179.97943157
 C     69  68  67     2.627865270289   120.16175598     0.03388652
 C     70  69  68     2.627857355933   119.60930377     0.00000000
 C     71  70  69     2.628481936318   120.16570505   359.97464563
 H     68  67  25     2.046911595768   119.32855364     0.04057871
 H     69  68  67     2.046751948583   119.71784167   180.07288493
 H     70  69  68     2.046432441958   120.19800962   179.99037437
 H     71  70  69     2.046775932108   120.12069447   179.93332528
 H     72  71  70     2.046922812116   119.98886455   179.97420670

---------------------
BASIS SET INFORMATION
---------------------
There are 4 groups of distinct atoms

 Group   1 Type N   : 11s6p2d1f contracted to 5s3p2d1f pattern {62111/411/11/1}
 Group   2 Type H   : 5s1p contracted to 3s1p pattern {311/1}
 Group   3 Type C   : 11s6p2d1f contracted to 5s3p2d1f pattern {62111/411/11/1}
 Group   4 Type Pt  : 8s7p6d1f contracted to 6s4p3d1f pattern {311111/4111/411/1}

Atom   0N    basis set group =>   1
Atom   1H    basis set group =>   2
Atom   2C    basis set group =>   3
Atom   3C    basis set group =>   3
Atom   4N    basis set group =>   1
Atom   5C    basis set group =>   3
Atom   6H    basis set group =>   2
Atom   7C    basis set group =>   3
Atom   8N    basis set group =>   1
Atom   9C    basis set group =>   3
Atom  10C    basis set group =>   3
Atom  11C    basis set group =>   3
Atom  12N    basis set group =>   1
Atom  13C    basis set group =>   3
Atom  14C    basis set group =>   3
Atom  15C    basis set group =>   3
Atom  16C    basis set group =>   3
Atom  17C    basis set group =>   3
Atom  18C    basis set group =>   3
Atom  19C    basis set group =>   3
Atom  20C    basis set group =>   3
Atom  21C    basis set group =>   3
Atom  22C    basis set group =>   3
Atom  23C    basis set group =>   3
Atom  24C    basis set group =>   3
Atom  25C    basis set group =>   3
Atom  26H    basis set group =>   2
Atom  27H    basis set group =>   2
Atom  28H    basis set group =>   2
Atom  29H    basis set group =>   2
Atom  30H    basis set group =>   2
Atom  31H    basis set group =>   2
Atom  32Pt   basis set group =>   4
Atom  33C    basis set group =>   3
Atom  34C    basis set group =>   3
Atom  35C    basis set group =>   3
Atom  36C    basis set group =>   3
Atom  37C    basis set group =>   3
Atom  38C    basis set group =>   3
Atom  39H    basis set group =>   2
Atom  40H    basis set group =>   2
Atom  41H    basis set group =>   2
Atom  42H    basis set group =>   2
Atom  43H    basis set group =>   2
Atom  44C    basis set group =>   3
Atom  45C    basis set group =>   3
Atom  46C    basis set group =>   3
Atom  47C    basis set group =>   3
Atom  48C    basis set group =>   3
Atom  49C    basis set group =>   3
Atom  50H    basis set group =>   2
Atom  51H    basis set group =>   2
Atom  52H    basis set group =>   2
Atom  53H    basis set group =>   2
Atom  54H    basis set group =>   2
Atom  55C    basis set group =>   3
Atom  56C    basis set group =>   3
Atom  57C    basis set group =>   3
Atom  58C    basis set group =>   3
Atom  59C    basis set group =>   3
Atom  60C    basis set group =>   3
Atom  61H    basis set group =>   2
Atom  62H    basis set group =>   2
Atom  63H    basis set group =>   2
Atom  64H    basis set group =>   2
Atom  65H    basis set group =>   2
Atom  66C    basis set group =>   3
Atom  67C    basis set group =>   3
Atom  68C    basis set group =>   3
Atom  69C    basis set group =>   3
Atom  70C    basis set group =>   3
Atom  71C    basis set group =>   3
Atom  72H    basis set group =>   2
Atom  73H    basis set group =>   2
Atom  74H    basis set group =>   2
Atom  75H    basis set group =>   2
Atom  76H    basis set group =>   2
---------------------------------
AUXILIARY/J BASIS SET INFORMATION
---------------------------------
There are 4 groups of distinct atoms

 Group   1 Type N   : 12s5p4d2f1g contracted to 6s4p3d1f1g pattern {711111/2111/211/2/1}
 Group   2 Type H   : 5s2p1d contracted to 3s1p1d pattern {311/2/1}
 Group   3 Type C   : 12s5p4d2f1g contracted to 6s4p3d1f1g pattern {711111/2111/211/2/1}
 Group   4 Type Pt  : 11s5p5d3f3g contracted to 8s5p5d2f3g pattern {41111111/11111/11111/21/111}

Atom   0N    basis set group =>   1
Atom   1H    basis set group =>   2
Atom   2C    basis set group =>   3
Atom   3C    basis set group =>   3
Atom   4N    basis set group =>   1
Atom   5C    basis set group =>   3
Atom   6H    basis set group =>   2
Atom   7C    basis set group =>   3
Atom   8N    basis set group =>   1
Atom   9C    basis set group =>   3
Atom  10C    basis set group =>   3
Atom  11C    basis set group =>   3
Atom  12N    basis set group =>   1
Atom  13C    basis set group =>   3
Atom  14C    basis set group =>   3
Atom  15C    basis set group =>   3
Atom  16C    basis set group =>   3
Atom  17C    basis set group =>   3
Atom  18C    basis set group =>   3
Atom  19C    basis set group =>   3
Atom  20C    basis set group =>   3
Atom  21C    basis set group =>   3
Atom  22C    basis set group =>   3
Atom  23C    basis set group =>   3
Atom  24C    basis set group =>   3
Atom  25C    basis set group =>   3
Atom  26H    basis set group =>   2
Atom  27H    basis set group =>   2
Atom  28H    basis set group =>   2
Atom  29H    basis set group =>   2
Atom  30H    basis set group =>   2
Atom  31H    basis set group =>   2
Atom  32Pt   basis set group =>   4
Atom  33C    basis set group =>   3
Atom  34C    basis set group =>   3
Atom  35C    basis set group =>   3
Atom  36C    basis set group =>   3
Atom  37C    basis set group =>   3
Atom  38C    basis set group =>   3
Atom  39H    basis set group =>   2
Atom  40H    basis set group =>   2
Atom  41H    basis set group =>   2
Atom  42H    basis set group =>   2
Atom  43H    basis set group =>   2
Atom  44C    basis set group =>   3
Atom  45C    basis set group =>   3
Atom  46C    basis set group =>   3
Atom  47C    basis set group =>   3
Atom  48C    basis set group =>   3
Atom  49C    basis set group =>   3
Atom  50H    basis set group =>   2
Atom  51H    basis set group =>   2
Atom  52H    basis set group =>   2
Atom  53H    basis set group =>   2
Atom  54H    basis set group =>   2
Atom  55C    basis set group =>   3
Atom  56C    basis set group =>   3
Atom  57C    basis set group =>   3
Atom  58C    basis set group =>   3
Atom  59C    basis set group =>   3
Atom  60C    basis set group =>   3
Atom  61H    basis set group =>   2
Atom  62H    basis set group =>   2
Atom  63H    basis set group =>   2
Atom  64H    basis set group =>   2
Atom  65H    basis set group =>   2
Atom  66C    basis set group =>   3
Atom  67C    basis set group =>   3
Atom  68C    basis set group =>   3
Atom  69C    basis set group =>   3
Atom  70C    basis set group =>   3
Atom  71C    basis set group =>   3
Atom  72H    basis set group =>   2
Atom  73H    basis set group =>   2
Atom  74H    basis set group =>   2
Atom  75H    basis set group =>   2
Atom  76H    basis set group =>   2
-------------------------
ECP PARAMETER INFORMATION
-------------------------

 Group 1, Type Pt ECP Def2-ECP (replacing 60 core electrons, lmax=3)

Atom  32Pt   ECP group =>   1



           ************************************************************
           *        Program running with 8 parallel MPI-processes     *
           *              working on a common directory               *
           ************************************************************
------------------------------------------------------------------------------
                             ORCA STARTUP CALCULATIONS
                           -- RI-GTO INTEGRALS CHOSEN --
------------------------------------------------------------------------------
------------------------------------------------------------------------------
                   ___                                                        
                  /   \      - P O W E R E D   B Y -                         
                 /     \                                                     
                 |  |  |   _    _      __       _____    __    __             
                 |  |  |  | |  | |    /  \     |  _  \  |  |  /  |          
                  \  \/   | |  | |   /    \    | | | |  |  | /  /          
                 / \  \   | |__| |  /  /\  \   | |_| |  |  |/  /          
                |  |  |   |  __  | /  /__\  \  |    /   |      \           
                |  |  |   | |  | | |   __   |  |    \   |  |\   \          
                \     /   | |  | | |  |  |  |  | |\  \  |  | \   \       
                 \___/    |_|  |_| |__|  |__|  |_| \__\ |__|  \__/        
                                                                              
                      - O R C A' S   B I G   F R I E N D -                    
                                      &                                       
                       - I N T E G R A L  F E E D E R -                       
                                                                              
 v1 FN, 2020, v2 2021, v3 2022-2024                                           
------------------------------------------------------------------------------


----------------------
SHARK INTEGRAL PACKAGE
----------------------

Number of atoms                             ...     77
Number of basis functions                   ...   1696
Number of shells                            ...    654
Maximum angular momentum                    ...      3
Integral batch strategy                     ... SHARK/LIBINT Hybrid
RI-J (if used) integral strategy            ... SPLIT-RIJ (Revised 2003 algorithm where possible)
Printlevel                                  ...      1
Contraction scheme used                     ... SEGMENTED contraction
Prescreening option                         ... SCHWARTZ
   Thresh                                   ... 2.500e-11
   Tcut                                     ... 2.500e-12
   Tpresel                                  ... 2.500e-12 
Coulomb Range Separation                    ... NOT USED
Exchange Range Separation                   ... NOT USED
Multipole approximations                    ... NOT USED
Finite Nucleus Model                        ... NOT USED
CABS basis                                  ... NOT available
Auxiliary Coulomb fitting basis             ... AVAILABLE
   # of basis functions in Aux-J            ...   2749
   # of shells in Aux-J                     ...    883
   Maximum angular momentum in Aux-J        ...      4
Auxiliary J/K fitting basis                 ... NOT available
Auxiliary Correlation fitting basis         ... NOT available
Auxiliary 'external' fitting basis          ... NOT available

Checking pre-screening integrals            ... done (  0.0 sec) Dimension = 654
   => SHARK Basis and OBASIS are compatible. Storing Pre-screening
Shell pair information
Shell pair cut-off parameter TPreSel        ...   2.5e-12
Total number of shell pairs                 ...    214185
Shell pairs after pre-screening             ...    104262
Total number of primitive shell pairs       ...    662980
Primitive shell pairs kept                  ...    199011
          la=0 lb=0:  24757 shell pairs
          la=1 lb=0:  30544 shell pairs
          la=1 lb=1:   9329 shell pairs
          la=2 lb=0:  14788 shell pairs
          la=2 lb=1:   9305 shell pairs
          la=2 lb=2:   2246 shell pairs
          la=3 lb=0:   6688 shell pairs
          la=3 lb=1:   4243 shell pairs
          la=3 lb=2:   1903 shell pairs
          la=3 lb=3:    459 shell pairs

Checking whether 4 symmetric matrices of dimension 1696 fit in memory
:Max Core in MB      =   3000.00
 MB in use           =    127.03
 MB left             =   2872.97
 MB needed           =     43.92
 Data fit in memory  = YES
Calculating RI/J V-Matrix + Cholesky decomp.... done (  0.9 sec)
Calculating Nuclear repulsion               ... done (  0.0 sec) ENN=   6002.797249912694 Eh

Diagonalization of the overlap matrix:
Smallest eigenvalue                        ... 2.861e-06
Time for diagonalization                   ...    0.839 sec
Threshold for overlap eigenvalues          ... 1.000e-07
Number of eigenvalues below threshold      ... 0
Time for construction of square roots      ...    0.713 sec
Total time needed                          ...    1.615 sec

-------------------
DFT GRID GENERATION
-------------------

General Integration Accuracy     IntAcc      ... 4.959
Radial Grid Type                 RadialGrid  ... OptM3 with GC (2021)
Angular Grid (max. ang.)         AngularGrid ... 6 (Lebedev-590)
Angular grid pruning method      GridPruning ... 4 (adaptive)
Weight generation scheme         WeightScheme... mBecke (2022)
Basis function cutoff            BFCut       ... 1.0000e-11
Integration weight cutoff        WCut        ... 1.0000e-14
Partially contracted basis set               ... off
Rotationally invariant grid construction     ... off
Angular grids for H and He will be reduced by one unit

Total number of grid points                  ...   932047
Total number of batches                      ...    14605
Average number of points per batch           ...       63
Average number of grid points per atom       ...    12105
Grids setup in  27.1 sec
Initializing property integral containers    ... done (  0.0 sec)

SHARK setup successfully completed in  39.5 seconds

Maximum memory used throughout the entire STARTUP-calculation: 305.1 MB


           ************************************************************
           *        Program running with 8 parallel MPI-processes     *
           *              working on a common directory               *
           ************************************************************
-------------------------------------------------------------------------------
                                 ORCA GUESS
                   Start orbitals & Density for SCF / CASSCF
-------------------------------------------------------------------------------

------------
SCF SETTINGS
------------
Hamiltonian:
 Density Functional     Method          .... DFT(GTOs)
 Exchange Functional    Exchange        .... B88
   X-Alpha parameter    XAlpha          ....  0.666667
   Becke's b parameter  XBeta           ....  0.004200
 Correlation Functional Correlation     .... P86
 LDA part of GGA corr.  LDAOpt          .... PW91-LDA
 Gradients option       PostSCFGGA      .... off
   NL short-range parameter             ....  4.400000
 RI-approximation to the Coulomb term is turned on
   Number of AuxJ basis functions       .... 2749


General Settings:
 Integral files         IntName         .... tddft
 Hartree-Fock type      HFTyp           .... RHF
 Total Charge           Charge          ....    0
 Multiplicity           Mult            ....    1
 Number of Electrons    NEL             ....  338
 Basis Dimension        Dim             .... 1696
 Nuclear Repulsion      ENuc            ....   6002.7972499127 Eh

Convergence Acceleration:
 AO-DIIS                CNVDIIS         .... on
   Start iteration      DIISMaxIt       ....    12
   Startup error        DIISStart       ....  0.200000
   # of expansion vecs  DIISMaxEq       ....     5
   Bias factor          DIISBfac        ....   1.050
   Max. coefficient     DIISMaxC        ....  10.000
 MO-DIIS                CNVKDIIS        .... off
 Trust-Rad. Augm. Hess. CNVTRAH         .... auto
   Auto Start mean grad. ratio tolernc. ....  1.125000
   Auto Start start iteration           ....    50
   Auto Start num. interpolation iter.  ....    10
   Max. Number of Micro iterations      ....    24
   Max. Number of Macro iterations      .... Maxiter - #DIIS iter
   Number of Davidson start vectors     ....     2
   Converg. threshold    (grad. norm)   ....   1.000e-05
   Grad. Scal. Fac. for Micro threshold ....   0.100
   Minimum threshold for Micro iter.    ....   1.000e-02
   NR start threshold (gradient norm)   ....   1.000e-04
   Initial trust radius                 ....   0.400
   Minimum AH scaling param. (alpha)    ....   1.000
   Maximum AH scaling param. (alpha)    .... 1000.000
   Quad. conv. algorithm                .... NR
   White noise on init. David. guess    .... on
   Maximum white noise                  ....   0.010
   Pseudo random numbers                .... off
   Inactive MOs                         .... canonical
   Orbital update algorithm             .... Taylor
   Preconditioner                       .... Diag
   Full preconditioner red. dimension   ....   250
 SOSCF                 CNVSOSCF           .... on
   Start iteration     SOSCFMaxIt         ....   150
   Startup grad/error  SOSCFStart         ....  0.003300
   Hessian update      SOSCFHessUp        .... L-BFGS
   Autom. constraints  SOSCFAutoConstrain .... off
 Level Shifting         CNVShift        .... on
   Level shift para.    LevelShift      ....    0.2500
   Turn off err/grad.   ShiftErr        ....    0.0010
 Zerner damping         CNVZerner       .... off
 Static damping         CNVDamp         .... on
   Fraction old density DampFac         ....    0.7000
   Max. Damping (<1)    DampMax         ....    0.9800
   Min. Damping (>=0)   DampMin         ....    0.0000
   Turn off err/grad.   DampErr         ....    0.1000

SCF Procedure:
 Maximum # iterations   MaxIter         ....   125
 SCF integral mode      SCFMode         .... Direct
   Integral package                     .... SHARK and LIBINT hybrid scheme
 Reset frequency        DirectResetFreq ....    20
 Integral Threshold     Thresh          ....  2.500e-11 Eh
 Primitive CutOff       TCut            ....  2.500e-12 Eh

Convergence Tolerance:
 Convergence Check Mode ConvCheckMode   .... Total+1el-Energy
 Convergence forced     ConvForced      .... 1
 Energy Change          TolE            ....  1.000e-08 Eh
 1-El. energy change                    ....  1.000e-05 Eh
 Orbital Gradient       TolG            ....  1.000e-05
 Orbital Rotation angle TolX            ....  1.000e-05
 DIIS Error             TolErr          ....  5.000e-07

------------------------------
INITIAL GUESS: MODEL POTENTIAL
------------------------------
Loading Hartree-Fock densities                     ... done
Atomic calculation to generate a density for atom 32 (Pt with ECP)
  Multiplicity assumed   :    3
  Atomic configuration   : 1s2 2s2 2p6 3s2 3p6 4s2 3d10 4p6 5s2 4d10 5p6 6s2 4f14 5d8 
  Number of open shells  : 1
  Command: /opt/orca/orca tddft_atom78.inp "" > tddft_atom78.out
Returned from the atomic calculation with res=0
Calculating cut-offs                               ... done
Initializing the effective Hamiltonian             ... done
Setting up the integral package (SHARK)            ... done
Starting the Coulomb interaction                   ... done (  10.3 sec)
Making the grid                                    ... done (   2.5 sec)
Mapping shells                                     ... done
Starting the XC term evaluation                    ... done (   6.6 sec)
  promolecular density results
     # of electrons  =    397.982530950
     EX              =   -619.898210527
     EC              =    -17.243002018
     EX+EC           =   -637.141212544
Transforming the Hamiltonian                       ... done (   0.9 sec)
Diagonalizing the Hamiltonian                      ... done (   1.3 sec)
Back transforming the eigenvectors                 ... done (   0.5 sec)
Now organizing SCF variables                       ... done
                      ------------------
                      INITIAL GUESS DONE (  28.4 sec)
                      ------------------
             **** ENERGY FILE WAS UPDATED (tddft.en.tmp) ****
Finished Guess after  37.2 sec
Maximum memory used throughout the entire GUESS-calculation: 206.5 MB


           ************************************************************
           *        Program running with 8 parallel MPI-processes     *
           *              working on a common directory               *
           ************************************************************

-------------------------------------------------------------------------------------------
                                      ORCA LEAN-SCF
                              memory conserving SCF solver
-------------------------------------------------------------------------------------------

--------------------
CPCM SOLVATION MODEL
--------------------
CPCM parameters:
  Epsilon                                         ...       2.3870
  Refrac                                          ...       1.4961
  Rsolv                                           ...       1.3000
  Surface type                                    ... GAUSSIAN VDW
  Discretization scheme                           ... Constant charge density
    Threshold for H atoms                         ...       5.0000 (charges/Ang^2)
    Threshold for non-H atoms                     ...       5.0000 (charges/Ang^2)
  Epsilon function type                           ...         CPCM
Solvent:                                          ... TOLUENE
Radii:
  Scheme                                          ... Element-dependent radii
  Radius for N  used is    3.5149 Bohr (=   1.8600 Ang.)
  Radius for H  used is    2.4944 Bohr (=   1.3200 Ang.)
  Radius for C  used is    3.8550 Bohr (=   2.0400 Ang.)
  Radius for Pt used is    3.9004 Bohr (=   2.0640 Ang.)
Calculating surface                               ...        done! (  0.1s)
Cavity surface points                             ...         6828
Cavity Volume                                     ...    4942.1642
Cavity Surface-area                               ...    2293.1756
Calculating surface distance matrix               ...        done! (  3.0s)
Performing Cholesky decomposition & store         ...        done! (  6.2s)
Overall time for CPCM initialization              ...                 9.3s

----------------------------------------D-I-I-S--------------------------------------------
Iteration    Energy (Eh)           Delta-E    RMSDP     MaxDP     DIISErr   Damp  Time(sec)
-------------------------------------------------------------------------------------------
               ***  Starting incremental Fock matrix formation  ***
    1    -2032.0433900986408844     0.00e+00  4.56e-03  2.59e-01  5.20e-01  0.700  76.9
Warning: op=0 Small HOMO/LUMO gap (   0.079) - skipping pre-diagonalization
         Will do a full diagonalization
    2    -2032.4298023900555563    -3.86e-01  3.32e-03  1.84e-01  3.60e-01  0.700  73.1
    3    -2032.5901562497738269    -1.60e-01  2.13e-03  1.33e-01  2.48e-01  0.700  50.7
                               ***Turning on AO-DIIS***
    4    -2032.6778786354389013    -8.77e-02  1.34e-03  9.46e-02  1.72e-01  0.700  43.7
    5    -2032.7406579610778863    -6.28e-02  9.15e-04  6.51e-02  1.19e-01  0.700  48.6
    6    -2032.7844850958290408    -4.38e-02  6.45e-04  4.58e-02  8.34e-02  0.700  44.6
    7    -2032.8150796048021220    -3.06e-02  1.52e-03  1.08e-01  5.84e-02  0.000  59.2
                              *** Initializing SOSCF ***
---------------------------------------S-O-S-C-F--------------------------------------
Iteration    Energy (Eh)           Delta-E    RMSDP     MaxDP     MaxGrad    Time(sec)
--------------------------------------------------------------------------------------
    8    -2032.8862412766284251    -7.12e-02  4.84e-05  2.07e-03  6.70e-04    55.6
               *** Restarting incremental Fock matrix formation ***
    9    -2032.8862545870060785    -1.33e-05  5.46e-05  2.27e-03  3.03e-04    67.0
   10    -2032.8862412022017452     1.34e-05  2.05e-05  1.96e-03  8.01e-04    48.7
   11    -2032.8862593923558961    -1.82e-05  2.20e-05  1.19e-03  2.07e-04    58.4
   12    -2032.8862557734792063     3.62e-06  1.19e-05  8.32e-04  3.87e-04    50.8
   13    -2032.8862600335614843    -4.26e-06  2.10e-05  6.42e-04  4.92e-05    27.0
   14    -2032.8862595109285394     5.23e-07  7.69e-06  2.20e-04  8.74e-05    53.9
   15    -2032.8862604142950659    -9.03e-07  1.44e-05  1.03e-03  1.25e-05    55.8
   16    -2032.8862603555980968     5.87e-08  8.83e-06  2.80e-04  1.83e-05    51.6
   17    -2032.8862604963478589    -1.41e-07  1.44e-05  8.52e-04  1.91e-06    51.0
                  *** Gradient check signals convergence ***

               *****************************************************
               *                     SUCCESS                       *
               *           SCF CONVERGED AFTER  17 CYCLES          *
               *****************************************************

             **** ENERGY FILE WAS UPDATED (tddft.en.tmp) ****

----------------
TOTAL SCF ENERGY
----------------

Total Energy       :      -2032.88626042426495 Eh          -55317.64744 eV

Components:
Nuclear Repulsion  :       6002.79724991269450 Eh          163344.41744 eV
Electronic Energy  :      -8035.67240484163449 Eh         -218661.76268 eV
One Electron Energy:     -14754.40618398939660 Eh         -401487.80351 eV
Two Electron Energy:       6718.73377914776211 Eh          182826.04083 eV
CPCM Dielectric    :         -0.01110549532489 Eh              -0.30220 eV

Virial components:
Potential Energy   :      -3978.54883947475992 Eh         -108261.81785 eV
Kinetic Energy     :       1945.66257905049497 Eh           52944.17041 eV
Virial Ratio       :          2.04482980878233

DFT components:
N(Alpha)           :      168.999986874034 electrons
N(Beta)            :      168.999986874034 electrons
N(Total)           :      337.999973748067 electrons
E(X)               :     -276.789484970996 Eh       
E(C)               :      -12.590568603180 Eh       
E(XC)              :     -289.380053574176 Eh       

CPCM Solvation Model Properties:
Surface-charge          :         -0.05080314279569
Corrected charge        :          0.00000000000000
Outlying charge corr.   :          0.00005885817126 Eh               0.00160 eV
Free-energy (cav+disp)  :  This term is not implemented in the current solvation scheme

---------------
SCF CONVERGENCE
---------------

  Last Energy change         ...    1.4075e-07  Tolerance :   1.0000e-08
  Last MAX-Density change    ...    8.5249e-04  Tolerance :   1.0000e-07
  Last RMS-Density change    ...    1.4441e-05  Tolerance :   5.0000e-09
  Last DIIS Error            ...    6.6970e-04  Tolerance :   5.0000e-07
  Last Orbital Gradient      ...    1.9078e-06  Tolerance :   1.0000e-05
  Last Orbital Rotation      ...    6.3397e-06  Tolerance :   1.0000e-05


----------------
ORBITAL ENERGIES
----------------

  NO   OCC          E(Eh)            E(eV) 
   0   2.0000     -14.036121      -381.9423 
   1   2.0000     -14.036117      -381.9422 
   2   2.0000     -14.036111      -381.9420 
   3   2.0000     -14.036108      -381.9419 
   4   2.0000      -9.938321      -270.4355 
   5   2.0000      -9.938308      -270.4351 
   6   2.0000      -9.938301      -270.4349 
   7   2.0000      -9.938289      -270.4346 
   8   2.0000      -9.938269      -270.4341 
   9   2.0000      -9.938267      -270.4340 
  10   2.0000      -9.938260      -270.4338 
  11   2.0000      -9.938258      -270.4338 
  12   2.0000      -9.923778      -270.0397 
  13   2.0000      -9.923759      -270.0392 
  14   2.0000      -9.923751      -270.0390 
  15   2.0000      -9.923748      -270.0389 
  16   2.0000      -9.917241      -269.8618 
  17   2.0000      -9.917229      -269.8615 
  18   2.0000      -9.917226      -269.8614 
  19   2.0000      -9.917224      -269.8614 
  20   2.0000      -9.903504      -269.4880 
  21   2.0000      -9.903501      -269.4880 
  22   2.0000      -9.903499      -269.4879 
  23   2.0000      -9.903497      -269.4879 
  24   2.0000      -9.903495      -269.4878 
  25   2.0000      -9.903494      -269.4878 
  26   2.0000      -9.903491      -269.4877 
  27   2.0000      -9.903487      -269.4876 
  28   2.0000      -9.903108      -269.4773 
  29   2.0000      -9.903107      -269.4772 
  30   2.0000      -9.903105      -269.4772 
  31   2.0000      -9.903102      -269.4771 
  32   2.0000      -9.903005      -269.4745 
  33   2.0000      -9.903005      -269.4745 
  34   2.0000      -9.903003      -269.4744 
  35   2.0000      -9.902999      -269.4743 
  36   2.0000      -9.902431      -269.4589 
  37   2.0000      -9.902427      -269.4587 
  38   2.0000      -9.902425      -269.4587 
  39   2.0000      -9.902424      -269.4587 
  40   2.0000      -9.898319      -269.3470 
  41   2.0000      -9.898313      -269.3468 
  42   2.0000      -9.898311      -269.3467 
  43   2.0000      -9.898309      -269.3467 
  44   2.0000      -9.897765      -269.3319 
  45   2.0000      -9.897759      -269.3317 
  46   2.0000      -9.897756      -269.3316 
  47   2.0000      -9.897754      -269.3316 
  48   2.0000      -3.804272      -103.5195 
  49   2.0000      -2.093873       -56.9772 
  50   2.0000      -2.093871       -56.9771 
  51   2.0000      -2.055620       -55.9363 
  52   2.0000      -0.903681       -24.5904 
  53   2.0000      -0.892977       -24.2992 
  54   2.0000      -0.892974       -24.2990 
  55   2.0000      -0.885779       -24.1033 
  56   2.0000      -0.799133       -21.7455 
  57   2.0000      -0.795126       -21.6365 
  58   2.0000      -0.795120       -21.6363 
  59   2.0000      -0.793437       -21.5905 
  60   2.0000      -0.760258       -20.6877 
  61   2.0000      -0.743555       -20.2332 
  62   2.0000      -0.743553       -20.2331 
  63   2.0000      -0.727519       -19.7968 
  64   2.0000      -0.709339       -19.3021 
  65   2.0000      -0.708457       -19.2781 
  66   2.0000      -0.708455       -19.2780 
  67   2.0000      -0.706740       -19.2314 
  68   2.0000      -0.683658       -18.6033 
  69   2.0000      -0.683646       -18.6030 
  70   2.0000      -0.683641       -18.6028 
  71   2.0000      -0.683639       -18.6028 
  72   2.0000      -0.680544       -18.5185 
  73   2.0000      -0.674170       -18.3451 
  74   2.0000      -0.674161       -18.3449 
  75   2.0000      -0.661851       -18.0099 
  76   2.0000      -0.651574       -17.7302 
  77   2.0000      -0.606075       -16.4922 
  78   2.0000      -0.606071       -16.4920 
  79   2.0000      -0.570026       -15.5112 
  80   2.0000      -0.553679       -15.0664 
  81   2.0000      -0.553562       -15.0632 
  82   2.0000      -0.553525       -15.0622 
  83   2.0000      -0.553512       -15.0618 
  84   2.0000      -0.552010       -15.0210 
  85   2.0000      -0.551865       -15.0170 
  86   2.0000      -0.544279       -14.8106 
  87   2.0000      -0.543013       -14.7761 
  88   2.0000      -0.538191       -14.6449 
  89   2.0000      -0.517352       -14.0779 
  90   2.0000      -0.517345       -14.0777 
  91   2.0000      -0.513331       -13.9684 
  92   2.0000      -0.509153       -13.8547 
  93   2.0000      -0.504736       -13.7346 
  94   2.0000      -0.494207       -13.4480 
  95   2.0000      -0.484459       -13.1828 
  96   2.0000      -0.484452       -13.1826 
  97   2.0000      -0.476385       -12.9631 
  98   2.0000      -0.473198       -12.8764 
  99   2.0000      -0.473183       -12.8760 
 100   2.0000      -0.459066       -12.4918 
 101   2.0000      -0.448672       -12.2090 
 102   2.0000      -0.448646       -12.2083 
 103   2.0000      -0.420086       -11.4311 
 104   2.0000      -0.418028       -11.3751 
 105   2.0000      -0.417518       -11.3613 
 106   2.0000      -0.417484       -11.3603 
 107   2.0000      -0.415131       -11.2963 
 108   2.0000      -0.411808       -11.2059 
 109   2.0000      -0.408485       -11.1154 
 110   2.0000      -0.408478       -11.1152 
 111   2.0000      -0.405956       -11.0466 
 112   2.0000      -0.392537       -10.6815 
 113   2.0000      -0.391471       -10.6525 
 114   2.0000      -0.389524       -10.5995 
 115   2.0000      -0.388367       -10.5680 
 116   2.0000      -0.388361       -10.5678 
 117   2.0000      -0.384777       -10.4703 
 118   2.0000      -0.382147       -10.3987 
 119   2.0000      -0.382137       -10.3985 
 120   2.0000      -0.379526       -10.3274 
 121   2.0000      -0.378968       -10.3123 
 122   2.0000      -0.378967       -10.3122 
 123   2.0000      -0.378921       -10.3110 
 124   2.0000      -0.372892       -10.1469 
 125   2.0000      -0.372306       -10.1310 
 126   2.0000      -0.367518       -10.0007 
 127   2.0000      -0.365675        -9.9505 
 128   2.0000      -0.365668        -9.9503 
 129   2.0000      -0.360570        -9.8116 
 130   2.0000      -0.347710        -9.4617 
 131   2.0000      -0.342314        -9.3148 
 132   2.0000      -0.342311        -9.3148 
 133   2.0000      -0.340194        -9.2572 
 134   2.0000      -0.333075        -9.0634 
 135   2.0000      -0.333069        -9.0633 
 136   2.0000      -0.331122        -9.0103 
 137   2.0000      -0.321333        -8.7439 
 138   2.0000      -0.313847        -8.5402 
 139   2.0000      -0.313438        -8.5291 
 140   2.0000      -0.311325        -8.4716 
 141   2.0000      -0.311317        -8.4714 
 142   2.0000      -0.309331        -8.4173 
 143   2.0000      -0.309317        -8.4170 
 144   2.0000      -0.308211        -8.3868 
 145   2.0000      -0.307166        -8.3584 
 146   2.0000      -0.298053        -8.1104 
 147   2.0000      -0.298032        -8.1099 
 148   2.0000      -0.290879        -7.9152 
 149   2.0000      -0.272115        -7.4046 
 150   2.0000      -0.272102        -7.4043 
 151   2.0000      -0.262150        -7.1335 
 152   2.0000      -0.262057        -7.1309 
 153   2.0000      -0.245985        -6.6936 
 154   2.0000      -0.245725        -6.6865 
 155   2.0000      -0.241717        -6.5775 
 156   2.0000      -0.240384        -6.5412 
 157   2.0000      -0.238545        -6.4911 
 158   2.0000      -0.238500        -6.4899 
 159   2.0000      -0.237530        -6.4635 
 160   2.0000      -0.236259        -6.4289 
 161   2.0000      -0.236218        -6.4278 
 162   2.0000      -0.234261        -6.3746 
 163   2.0000      -0.232312        -6.3215 
 164   2.0000      -0.214372        -5.8333 
 165   2.0000      -0.195349        -5.3157 
 166   2.0000      -0.195132        -5.3098 
 167   2.0000      -0.195128        -5.3097 
 168   2.0000      -0.191956        -5.2234 
 169   0.0000      -0.111864        -3.0440 
 170   0.0000      -0.111850        -3.0436 
 171   0.0000      -0.065469        -1.7815 
 172   0.0000      -0.051650        -1.4055 
 173   0.0000      -0.050438        -1.3725 
 174   0.0000      -0.050436        -1.3724 
 175   0.0000      -0.049899        -1.3578 
 176   0.0000      -0.048882        -1.3302 
 177   0.0000      -0.048731        -1.3260 
 178   0.0000      -0.047716        -1.2984 
 179   0.0000      -0.047683        -1.2975 
*Only the first 10 virtual orbitals were printed.

                    ********************************
                    * MULLIKEN POPULATION ANALYSIS *
                    ********************************

-----------------------
MULLIKEN ATOMIC CHARGES
-----------------------
   0 N :   -0.210272
   1 H :    0.160563
   2 C :   -0.231510
   3 C :   -0.231751
   4 N :   -0.210242
   5 C :   -0.231681
   6 H :    0.160596
   7 C :    0.166223
   8 N :   -0.210231
   9 C :   -0.231876
  10 C :    0.127842
  11 C :    0.166501
  12 N :   -0.210268
  13 C :   -0.231832
  14 C :    0.166337
  15 C :    0.166326
  16 C :    0.166612
  17 C :    0.166444
  18 C :   -0.231734
  19 C :    0.127735
  20 C :    0.127809
  21 C :   -0.231480
  22 C :    0.166302
  23 C :   -0.231692
  24 C :    0.127872
  25 C :    0.166739
  26 H :    0.160471
  27 H :    0.160627
  28 H :    0.160483
  29 H :    0.160706
  30 H :    0.160677
  31 H :    0.160560
  32 Pt:    0.078591
  33 C :   -0.078807
  34 C :   -0.146508
  35 C :   -0.150307
  36 C :   -0.099866
  37 C :   -0.150234
  38 C :   -0.146428
  39 H :    0.130287
  40 H :    0.127263
  41 H :    0.129330
  42 H :    0.127330
  43 H :    0.130315
  44 C :   -0.077452
  45 C :   -0.147667
  46 C :   -0.149886
  47 C :   -0.100101
  48 C :   -0.149698
  49 C :   -0.147777
  50 H :    0.130377
  51 H :    0.127350
  52 H :    0.129333
  53 H :    0.127327
  54 H :    0.130361
  55 C :   -0.079121
  56 C :   -0.146118
  57 C :   -0.150489
  58 C :   -0.099686
  59 C :   -0.150458
  60 C :   -0.146310
  61 H :    0.130314
  62 H :    0.127314
  63 H :    0.129329
  64 H :    0.127259
  65 H :    0.130291
  66 C :   -0.076652
  67 C :   -0.148847
  68 C :   -0.149228
  69 C :   -0.100389
  70 C :   -0.149360
  71 C :   -0.148788
  72 H :    0.130418
  73 H :    0.127357
  74 H :    0.129357
  75 H :    0.127372
  76 H :    0.130443
Sum of atomic charges:   -0.0000000

--------------------------------
MULLIKEN REDUCED ORBITAL CHARGES
--------------------------------
  0 N s       :     3.636835  s :     3.636835
      pz      :     1.374175  p :     3.482484
      px      :     1.062126
      py      :     1.046184
      dz2     :     0.006062  d :     0.086670
      dxz     :     0.015155
      dyz     :     0.016171
      dx2y2   :     0.024197
      dxy     :     0.025085
      f0      :     0.000721  f :     0.004282
      f+1     :     0.000484
      f-1     :     0.000424
      f+2     :     0.000282
      f-2     :     0.000604
      f+3     :     0.000630
      f-3     :     0.001138

  1 H s       :     0.817135  s :     0.817135
      pz      :     0.005067  p :     0.022301
      px      :     0.008418
      py      :     0.008816

  2 C s       :     3.299161  s :     3.299161
      pz      :     0.993467  p :     2.846190
      px      :     0.918506
      py      :     0.934217
      dz2     :     0.005779  d :     0.078705
      dxz     :     0.010287
      dyz     :     0.018430
      dx2y2   :     0.015863
      dxy     :     0.028347
      f0      :     0.001383  f :     0.007454
      f+1     :     0.000696
      f-1     :     0.000523
      f+2     :     0.000943
      f-2     :     0.000420
      f+3     :     0.002326
      f-3     :     0.001163

  3 C s       :     3.299235  s :     3.299235
      pz      :     0.993463  p :     2.846347
      px      :     0.933500
      py      :     0.919385
      dz2     :     0.005436  d :     0.078714
      dxz     :     0.018967
      dyz     :     0.010142
      dx2y2   :     0.015794
      dxy     :     0.028376
      f0      :     0.001419  f :     0.007454
      f+1     :     0.000439
      f-1     :     0.000714
      f+2     :     0.000990
      f-2     :     0.000415
      f+3     :     0.001138
      f-3     :     0.002340

  4 N s       :     3.636834  s :     3.636834
      pz      :     1.374247  p :     3.482452
      px      :     1.043335
      py      :     1.064870
      dz2     :     0.006011  d :     0.086673
      dxz     :     0.016467
      dyz     :     0.014933
      dx2y2   :     0.024165
      dxy     :     0.025097
      f0      :     0.000726  f :     0.004283
      f+1     :     0.000412
      f-1     :     0.000491
      f+2     :     0.000279
      f-2     :     0.000605
      f+3     :     0.001143
      f-3     :     0.000627

  5 C s       :     3.299255  s :     3.299255
      pz      :     0.993634  p :     2.846254
      px      :     0.945797
      py      :     0.906823
      dz2     :     0.005621  d :     0.078718
      dxz     :     0.016710
      dyz     :     0.012187
      dx2y2   :     0.016155
      dxy     :     0.028047
      f0      :     0.001408  f :     0.007454
      f+1     :     0.000482
      f-1     :     0.000690
      f+2     :     0.001266
      f-2     :     0.000123
      f+3     :     0.001261
      f-3     :     0.002223

  6 H s       :     0.817097  s :     0.817097
      pz      :     0.005116  p :     0.022306
      px      :     0.006849
      py      :     0.010341

  7 C s       :     3.198259  s :     3.198259
      pz      :     0.950315  p :     2.474616
      px      :     0.832530
      py      :     0.691772
      dz2     :     0.006572  d :     0.146937
      dxz     :     0.029603
      dyz     :     0.035590
      dx2y2   :     0.036704
      dxy     :     0.038468
      f0      :     0.002016  f :     0.013965
      f+1     :     0.000871
      f-1     :     0.001044
      f+2     :     0.000727
      f-2     :     0.002264
      f+3     :     0.003638
      f-3     :     0.003405

  8 N s       :     3.636796  s :     3.636796
      pz      :     1.374291  p :     3.482479
      px      :     1.043357
      py      :     1.064831
      dz2     :     0.006015  d :     0.086674
      dxz     :     0.016468
      dyz     :     0.014932
      dx2y2   :     0.024163
      dxy     :     0.025096
      f0      :     0.000725  f :     0.004283
      f+1     :     0.000413
      f-1     :     0.000491
      f+2     :     0.000279
      f-2     :     0.000605
      f+3     :     0.001142
      f-3     :     0.000627

  9 C s       :     3.299346  s :     3.299346
      pz      :     0.993607  p :     2.846363
      px      :     0.945867
      py      :     0.906889
      dz2     :     0.005632  d :     0.078713
      dxz     :     0.016713
      dyz     :     0.012175
      dx2y2   :     0.016151
      dxy     :     0.028042
      f0      :     0.001406  f :     0.007453
      f+1     :     0.000482
      f-1     :     0.000692
      f+2     :     0.001266
      f-2     :     0.000125
      f+3     :     0.001260
      f-3     :     0.002223

 10 C s       :     3.332250  s :     3.332250
      pz      :     0.962003  p :     2.408154
      px      :     0.701505
      py      :     0.744645
      dz2     :     0.005144  d :     0.122341
      dxz     :     0.023430
      dyz     :     0.024831
      dx2y2   :     0.029287
      dxy     :     0.039648
      f0      :     0.001482  f :     0.009414
      f+1     :     0.000653
      f-1     :     0.000669
      f+2     :     0.000886
      f-2     :     0.001115
      f+3     :     0.002715
      f-3     :     0.001894

 11 C s       :     3.197728  s :     3.197728
      pz      :     0.951752  p :     2.474863
      px      :     0.847284
      py      :     0.675828
      dz2     :     0.006579  d :     0.146943
      dxz     :     0.028623
      dyz     :     0.036528
      dx2y2   :     0.037042
      dxy     :     0.038171
      f0      :     0.002020  f :     0.013965
      f+1     :     0.000786
      f-1     :     0.001126
      f+2     :     0.001168
      f-2     :     0.001833
      f+3     :     0.002559
      f-3     :     0.004474

 12 N s       :     3.636814  s :     3.636814
      pz      :     1.374143  p :     3.482501
      px      :     1.062154
      py      :     1.046203
      dz2     :     0.006064  d :     0.086670
      dxz     :     0.015156
      dyz     :     0.016169
      dx2y2   :     0.024197
      dxy     :     0.025085
      f0      :     0.000721  f :     0.004282
      f+1     :     0.000484
      f-1     :     0.000424
      f+2     :     0.000282
      f-2     :     0.000604
      f+3     :     0.000631
      f-3     :     0.001138

 13 C s       :     3.299347  s :     3.299347
      pz      :     0.993342  p :     2.846333
      px      :     0.906215
      py      :     0.946776
      dz2     :     0.005601  d :     0.078698
      dxz     :     0.012519
      dyz     :     0.016408
      dx2y2   :     0.016209
      dxy     :     0.027963
      f0      :     0.001392  f :     0.007454
      f+1     :     0.000628
      f-1     :     0.000575
      f+2     :     0.001235
      f-2     :     0.000139
      f+3     :     0.002204
      f-3     :     0.001280

 14 C s       :     3.197924  s :     3.197924
      pz      :     0.951501  p :     2.474831
      px      :     0.689833
      py      :     0.833498
      dz2     :     0.006342  d :     0.146942
      dxz     :     0.036519
      dyz     :     0.029081
      dx2y2   :     0.036481
      dxy     :     0.038520
      f0      :     0.002045  f :     0.013966
      f+1     :     0.000990
      f-1     :     0.000886
      f+2     :     0.000757
      f-2     :     0.002231
      f+3     :     0.003422
      f-3     :     0.003636

 15 C s       :     3.198019  s :     3.198019
      pz      :     0.951680  p :     2.474752
      px      :     0.674767
      py      :     0.848305
      dz2     :     0.006263  d :     0.146938
      dxz     :     0.037455
      dyz     :     0.028166
      dx2y2   :     0.036827
      dxy     :     0.038228
      f0      :     0.002042  f :     0.013965
      f+1     :     0.001051
      f-1     :     0.000828
      f+2     :     0.001140
      f-2     :     0.001837
      f+3     :     0.004497
      f-3     :     0.002569

 16 C s       :     3.197726  s :     3.197726
      pz      :     0.951300  p :     2.474756
      px      :     0.847354
      py      :     0.676101
      dz2     :     0.006582  d :     0.146941
      dxz     :     0.028627
      dyz     :     0.036543
      dx2y2   :     0.037027
      dxy     :     0.038162
      f0      :     0.002021  f :     0.013965
      f+1     :     0.000786
      f-1     :     0.001125
      f+2     :     0.001167
      f-2     :     0.001833
      f+3     :     0.002559
      f-3     :     0.004474

 17 C s       :     3.198032  s :     3.198032
      pz      :     0.950597  p :     2.474622
      px      :     0.832573
      py      :     0.691452
      dz2     :     0.006577  d :     0.146937
      dxz     :     0.029594
      dyz     :     0.035588
      dx2y2   :     0.036706
[...]
  0-1A  -> 26-1A    3.520450   28394.3   352.2   0.002844633   0.03298  -0.11143  -0.14263   0.01484
  0-1A  -> 27-1A    3.570405   28797.3   347.3   0.121933739   1.39395  -0.92077   0.73607  -0.06589
  0-1A  -> 28-1A    3.570764   28800.2   347.2   0.122784628   1.40354   0.74215   0.91811  -0.09915
  0-1A  -> 29-1A    3.639536   29354.8   340.7   0.000003148   0.00004   0.00345   0.00479  -0.00068
  0-1A  -> 30-1A    3.671034   29608.9   337.7   0.000002728   0.00003  -0.00547   0.00064   0.00008

----------------------------------------------------------------------------------------------------
                     ABSORPTION SPECTRUM VIA TRANSITION VELOCITY DIPOLE MOMENTS    
----------------------------------------------------------------------------------------------------
     Transition      Energy     Energy  Wavelength fosc(P2)      P2        PX        PY        PZ   
                      (eV)      (cm-1)    (nm)                 (au**2)    (au)      (au)      (au)  
----------------------------------------------------------------------------------------------------
  0-1A  ->  1-1A    2.334436   18828.5   531.1   0.000000002   0.00000   0.00001  -0.00001   0.00000
  0-1A  ->  2-1A    2.395395   19320.2   517.6   0.000000002   0.00000  -0.00000   0.00001  -0.00001
  0-1A  ->  3-1A    2.418202   19504.1   512.7   0.000573319   0.00008   0.00723  -0.00490   0.00042
  0-1A  ->  4-1A    2.418245   19504.5   512.7   0.002779353   0.00037  -0.01449   0.01260  -0.00134
  0-1A  ->  5-1A    2.418357   19505.4   512.7   0.003450042   0.00046  -0.01376  -0.01636   0.00171
  0-1A  ->  6-1A    2.788173   22488.1   444.7   0.000000005   0.00000   0.00002   0.00001  -0.00001
  0-1A  ->  7-1A    2.811268   22674.4   441.0   0.000000001   0.00000   0.00000  -0.00001   0.00001
  0-1A  ->  8-1A    2.811701   22677.9   441.0   0.000000000   0.00000   0.00000   0.00000   0.00000
  0-1A  ->  9-1A    3.163843   25518.1   391.9   0.081424712   0.01420  -0.08773  -0.08018   0.00865
  0-1A  -> 10-1A    3.164499   25523.4   391.8   0.079435062   0.01386   0.07947  -0.08644   0.00823
  0-1A  -> 11-1A    3.336296   26909.0   371.6   0.000009105   0.00000  -0.00050   0.00119  -0.00011
  0-1A  -> 12-1A    3.336357   26909.5   371.6   0.000007305   0.00000   0.00116   0.00008  -0.00003
  0-1A  -> 13-1A    3.379664   27258.8   366.9   0.009182396   0.00171  -0.03357   0.02417  -0.00001
  0-1A  -> 14-1A    3.380713   27267.3   366.7   0.011685610   0.00218  -0.02746  -0.03750   0.00412
  0-1A  -> 15-1A    3.387302   27320.4   366.0   0.000006140   0.00000   0.00103   0.00022   0.00020
  0-1A  -> 16-1A    3.390218   27344.0   365.7   0.000494408   0.00009   0.00194  -0.00880   0.00334
  0-1A  -> 17-1A    3.391399   27353.5   365.6   0.001229396   0.00023   0.01374   0.00629   0.00125
  0-1A  -> 18-1A    3.395977   27390.4   365.1   0.003982331   0.00075   0.02020  -0.01810   0.00314
  0-1A  -> 19-1A    3.425255   27626.6   362.0   0.000021928   0.00000  -0.00147   0.00140  -0.00012
  0-1A  -> 20-1A    3.425594   27629.3   361.9   0.000006996   0.00000  -0.00088  -0.00074   0.00008
  0-1A  -> 21-1A    3.452171   27843.6   359.1   0.000001035   0.00000   0.00012  -0.00001   0.00043
  0-1A  -> 22-1A    3.453567   27854.9   359.0   0.000001719   0.00000  -0.00041   0.00035  -0.00018
  0-1A  -> 23-1A    3.460749   27912.8   358.3   0.000000054   0.00000   0.00008   0.00006   0.00002
  0-1A  -> 24-1A    3.468602   27976.2   357.4   0.000000012   0.00000   0.00003   0.00004   0.00000
  0-1A  -> 25-1A    3.520245   28392.7   352.2   0.000730118   0.00014  -0.00939   0.00721  -0.00124
  0-1A  -> 26-1A    3.520450   28394.3   352.2   0.000778084   0.00015  -0.00754  -0.00965   0.00100
  0-1A  -> 27-1A    3.570405   28797.3   347.3   0.012379778   0.00244   0.03848  -0.03090   0.00117
  0-1A  -> 28-1A    3.570764   28800.2   347.2   0.012308672   0.00242  -0.03084  -0.03812   0.00426
  0-1A  -> 29-1A    3.639536   29354.8   340.7   0.000001374   0.00000  -0.00031  -0.00042   0.00004
  0-1A  -> 30-1A    3.671034   29608.9   337.7   0.000000430   0.00000   0.00029  -0.00002   0.00000

------------------------------------------------------------------------------------------
                     CD SPECTRUM VIA TRANSITION ELECTRIC DIPOLE MOMENTS    
------------------------------------------------------------------------------------------
     Transition      Energy     Energy  Wavelength    R        MX        MY        MZ   
                      (eV)      (cm-1)    (nm)   (1e40*cgs)   (au)      (au)      (au)  
------------------------------------------------------------------------------------------
  0-1A  ->  1-1A    2.334436   18828.5   531.1    0.02419  -0.01871  -0.09751  -1.02877
  0-1A  ->  2-1A    2.395395   19320.2   517.6   -0.00003  -0.00009  -0.00014   0.00058
  0-1A  ->  3-1A    2.418202   19504.1   512.7    0.01695  -0.00066   0.00049  -0.00222
  0-1A  ->  4-1A    2.418245   19504.5   512.7   -0.02953  -0.00056   0.00034  -0.00163
  0-1A  ->  5-1A    2.418357   19505.4   512.7    0.01666   0.00028   0.00037  -0.00010
  0-1A  ->  6-1A    2.788173   22488.1   444.7    0.00049   0.00149   0.00205  -0.00008
  0-1A  ->  7-1A    2.811268   22674.4   441.0    0.02407   0.09962  -0.08663   0.00488
  0-1A  ->  8-1A    2.811701   22677.9   441.0   -0.00533  -0.08673  -0.09907   0.01116
  0-1A  ->  9-1A    3.163843   25518.1   391.9   -1.04740   0.00044   0.00035   0.00001
  0-1A  -> 10-1A    3.164499   25523.4   391.8    0.33051   0.00020  -0.00007  -0.00018
  0-1A  -> 11-1A    3.336296   26909.0   371.6    0.38257  -0.06631   0.00446   0.00992
  0-1A  -> 12-1A    3.336357   26909.5   371.6    0.22471  -0.00354  -0.06669   0.00118
  0-1A  -> 13-1A    3.379664   27258.8   366.9   -0.00191  -0.00001  -0.00001  -0.00063
  0-1A  -> 14-1A    3.380713   27267.3   366.7    0.17813  -0.00025  -0.00037   0.00011
  0-1A  -> 15-1A    3.387302   27320.4   366.0   -0.00017   0.00004  -0.00001  -0.00005
  0-1A  -> 16-1A    3.390218   27344.0   365.7    0.05378  -0.00044  -0.00029   0.00027
  0-1A  -> 17-1A    3.391399   27353.5   365.6    0.14353   0.00043   0.00077  -0.00013
  0-1A  -> 18-1A    3.395977   27390.4   365.1   -0.18807  -0.00060   0.00039  -0.00030
  0-1A  -> 19-1A    3.425255   27626.6   362.0    0.85309  -0.03174   0.02015  -0.01537
  0-1A  -> 20-1A    3.425594   27629.3   361.9   -0.71942   0.02323   0.03282  -0.00342
  0-1A  -> 21-1A    3.452171   27843.6   359.1   -0.07778   0.00479   0.00655   0.11181
  0-1A  -> 22-1A    3.453567   27854.9   359.0   -0.02162  -0.00249   0.02593   0.21760
  0-1A  -> 23-1A    3.460749   27912.8   358.3   -0.00021  -0.00002  -0.00020  -0.00182
  0-1A  -> 24-1A    3.468602   27976.2   357.4   -0.00185   0.00169   0.00254  -0.00032
  0-1A  -> 25-1A    3.520245   28392.7   352.2    0.02365   0.00020  -0.00026  -0.00051
  0-1A  -> 26-1A    3.520450   28394.3   352.2   -0.02958  -0.00023  -0.00025   0.00010
  0-1A  -> 27-1A    3.570405   28797.3   347.3   -0.05825  -0.00005   0.00008  -0.00022
  0-1A  -> 28-1A    3.570764   28800.2   347.2   -0.00287  -0.00001   0.00001  -0.00007
  0-1A  -> 29-1A    3.639536   29354.8   340.7   -0.00004  -0.00038   0.00030   0.00003
  0-1A  -> 30-1A    3.671034   29608.9   337.7    0.37074   0.13130  -0.10739   0.01068

------------------------------------------------------------------------------------------
                     CD SPECTRUM VIA TRANSITION VELOCITY DIPOLE MOMENTS    
------------------------------------------------------------------------------------------
     Transition      Energy     Energy  Wavelength    R        MX        MY        MZ   
                      (eV)      (cm-1)    (nm)   (1e40*cgs)   (au)      (au)      (au)  
------------------------------------------------------------------------------------------
  0-1A  ->  1-1A    2.334436   18828.5   531.1   -0.01395  -0.01871  -0.09751  -1.02877
  0-1A  ->  2-1A    2.395395   19320.2   517.6   -0.00004  -0.00009  -0.00014   0.00058
  0-1A  ->  3-1A    2.418202   19504.1   512.7   -0.04298  -0.00066   0.00049  -0.00222
  0-1A  ->  4-1A    2.418245   19504.5   512.7    0.07744  -0.00056   0.00034  -0.00163
  0-1A  ->  5-1A    2.418357   19505.4   512.7   -0.05382   0.00028   0.00037  -0.00010
  0-1A  ->  6-1A    2.788173   22488.1   444.7    0.00027   0.00149   0.00205  -0.00008
  0-1A  ->  7-1A    2.811268   22674.4   441.0    0.00396   0.09962  -0.08663   0.00488
  0-1A  ->  8-1A    2.811701   22677.9   441.0   -0.00104  -0.08673  -0.09907   0.01116
  0-1A  ->  9-1A    3.163843   25518.1   391.9   -0.26933   0.00044   0.00035   0.00001
  0-1A  -> 10-1A    3.164499   25523.4   391.8    0.08286   0.00020  -0.00007  -0.00018
  0-1A  -> 11-1A    3.336296   26909.0   371.6    0.14371  -0.06631   0.00446   0.00992
  0-1A  -> 12-1A    3.336357   26909.5   371.6   -0.03678  -0.00354  -0.06669   0.00118
  0-1A  -> 13-1A    3.379664   27258.8   366.9   -0.00028  -0.00001  -0.00001  -0.00063
  0-1A  -> 14-1A    3.380713   27267.3   366.7    0.07938  -0.00025  -0.00037   0.00011
  0-1A  -> 15-1A    3.387302   27320.4   366.0    0.00009   0.00004  -0.00001  -0.00005
  0-1A  -> 16-1A    3.390218   27344.0   365.7    0.01001  -0.00044  -0.00029   0.00027
  0-1A  -> 17-1A    3.391399   27353.5   365.6    0.04002   0.00043   0.00077  -0.00013
  0-1A  -> 18-1A    3.395977   27390.4   365.1   -0.07583  -0.00060   0.00039  -0.00030
  0-1A  -> 19-1A    3.425255   27626.6   362.0    0.28772  -0.03174   0.02015  -0.01537
  0-1A  -> 20-1A    3.425594   27629.3   361.9   -0.16804   0.02323   0.03282  -0.00342
  0-1A  -> 21-1A    3.452171   27843.6   359.1    0.17984   0.00479   0.00655   0.11181
  0-1A  -> 22-1A    3.453567   27854.9   359.0   -0.11131  -0.00249   0.02593   0.21760
  0-1A  -> 23-1A    3.460749   27912.8   358.3   -0.00020  -0.00002  -0.00020  -0.00182
  0-1A  -> 24-1A    3.468602   27976.2   357.4    0.00054   0.00169   0.00254  -0.00032
  0-1A  -> 25-1A    3.520245   28392.7   352.2   -0.01144   0.00020  -0.00026  -0.00051
  0-1A  -> 26-1A    3.520450   28394.3   352.2    0.01547  -0.00023  -0.00025   0.00010
  0-1A  -> 27-1A    3.570405   28797.3   347.3   -0.01732  -0.00005   0.00008  -0.00022
  0-1A  -> 28-1A    3.570764   28800.2   347.2   -0.00094  -0.00001   0.00001  -0.00007
  0-1A  -> 29-1A    3.639536   29354.8   340.7   -0.00002  -0.00038   0.00030   0.00003
  0-1A  -> 30-1A    3.671034   29608.9   337.7    0.14418   0.13130  -0.10739   0.01068

Total run time:     3904.744 sec

           *** ORCA-CIS/TD-DFT FINISHED WITHOUT ERROR ***
-----------------------
CIS/TD-DFT TOTAL ENERGY
-----------------------

    E(SCF)  =  -2032.886260424 Eh
    DE(CIS) =      0.085788941 Eh (Root  1)
    ----------------------------- ---------
    E(tot)  =  -2032.800471484 Eh


Maximum memory used throughout the entire CIS-calculation: 2984.9 MB
=> NOW LEAVING ORCA_CIS

-------------------------   --------------------
FINAL SINGLE POINT ENERGY     -2032.800471483757
-------------------------   --------------------



           ************************************************************
           *        Program running with 8 parallel MPI-processes     *
           *              working on a common directory               *
           ************************************************************

------------------------------------------------------------------------------
                              ORCA PROPERTY CALCULATIONS
------------------------------------------------------------------------------

GBWName                                 ... tddft.gbw
Number of atoms                         ...     77
Number of basis functions               ...   1696
Max core memory                         ...   3000 MB

Electric properties:
Dipole moment                           ... YES
Quadrupole moment                       ...  NO
Static polarizability (Dipole/Dipole)   ...  NO
Static polarizability (Dipole/Quad.)    ...  NO
Static polarizability (Quad./Quad.)     ...  NO
Static polarizability (Velocity)        ...  NO
Static hyperpolarizability              ...  NO

Atomic electric properties:
Dipole moment                           ...  NO
Quadrupole moment                       ...  NO
Static polarizability                   ...  NO

Choice of electric origin               ... Center of mass
Position of electric origin             ...    -0.159740     5.088996     6.548052

General magnetic properties:
Magnetizability                         ...  NO

EPR properties:
g-Tensor (aka g-matrix)                 ...  NO
Zero-Field splitting spin-orbit         ...  NO
Zero-field splitting spin-spin          ...  NO
Hyperfine couplings                     ...  NO (   0 nuclei)
Quadrupole couplings                    ...  NO (   0 nuclei)
Contact density                         ...  NO (   0 nuclei)

NMR properties:
Chemical shifts                         ...  NO (   0 nuclei)
Spin-rotation constants                 ...  NO (   0 nuclei)
Spin-spin couplings                     ...  NO (   0 nuclei,    0 pairs)

Choice of magnetic origin               ... GIAO
Position of magnetic origin             ...     0.000000     0.000000     0.000000

Properties with geometric perturbations:
SCF Hessian                             ...  NO
IR spectrum                             ...  NO
VCD spectrum                            ...  NO
X-ray spectroscopy properties:
SCF XES/XAS/RIXS spectra                ...  NO

SCF SOC stabilization energy            ...  NO
Diagonal Born-Oppenheimer correction    ...  NO

-------------
DIPOLE MOMENT
-------------

Method             : SCF
Type of density    : Electron Density
Multiplicity       :   1
Irrep              :   0
Energy             : -2032.8862604242649468 Eh
Basis              : AO
                                X                 Y                 Z
Electronic contribution:     -0.007088342       0.005867701       0.030279188
Nuclear contribution   :      0.007463989      -0.005700084      -0.030643895
                        -----------------------------------------
Total Dipole Moment    :      0.000375647       0.000167616      -0.000364707
                        -----------------------------------------
Magnitude (a.u.)       :      0.000549742
Magnitude (Debye)      :      0.001397334



--------------------
Rotational spectrum 
--------------------
 
Rotational constants in cm-1:             0.001952             0.001952             0.001017 
Rotational constants in MHz :            58.530984            58.525184            30.503212 

Dipole components along the rotational axes: 
x,y,z [a.u.] :     0.000083     0.000424    -0.000340 
x,y,z [Debye]:     0.000211     0.001077    -0.000865 

 

Dipole moment calculation done in   1.9 sec 

Maximum memory used throughout the entire PROP-calculation: 233.3 MB

--------------------------------
SUGGESTED CITATIONS FOR THIS RUN
--------------------------------

Below you find a list of papers that are relevant to this ORCA run
We neither can nor want to force you to cite these papers, but we appreciate if you do
You receive ORCA, which is the product of decades of hard work by many enthusiastic individuals, for free
The only thing we kindly ask in return is that you cite our papers,
We deeply appreciate it, if you show your appreciation for ORCA by not just citing the generic ORCA reference.

Please note that relegating all ORCA citations to the supporting information does *not* help us.
SI sections are not indexed - citations you put there will not count into any citation statistics
But we need these citations in order to attract the funding resources that allow us to do what we are doing

Therefore, if you are a happy ORCA user, please consider citing a few of the papers listed below in the main body of your paper

In addition to the list printed below, the program has created the file tddft.bibtex that contains the list in bibtex format
You can import this file easily into all common literature databanks and citation aid programs

It goes without saying that in many instances, there are alternative algorithms to achieve similar
results as the ones you have gotten from ORCA. It is, of course, also the case that in some instances
ORCA just re-implements algorithms worked out by others. We are fully aware of that and we are also
fully appreciative of our colleagues work. Hence this citation list should not be read as indicating
that the listed papers, which are focused on our own work, are the only ones worth citing. It simply
meant to make it easier for users to cite ORCA specific papers. It is not a substitute for doing your
own literature research and citing the relevant literature in a scientifically appropriate manner.

List of essential papers. We consider these as the minimum necessary citations

  1. Neese, F.
     Software update: the ORCA program system, version 6.0
     WIRES Comput. Molec. Sci. 2025 15(1), e70019
     doi.org/10.1002/wcms.70019

List of papers to cite with high priority. The work reported in these papers was absolutely
necessary for this run to complete.
Our perspective: the developers of density functionals and basis sets usually get cited in chemistry papers
Good! But without the algorithms to do something with them, the functionals or basis sets would not do anything.
Hence, in our opinion, the algorithm design and method developments papers are equally worthy of getting cited

  1. Neese, F.; Olbrich, G.
     Efficient use of the resolution of the identity approximation in time-dependent density functional calculations with hybrid density functionals
     Chem. Phys. Lett. 2002 362 , 170-178
     doi.org/10.1016/s0009-2614(02)01053-9
  2. Neese, F.
     An improvement of the resolution of the identity approximation for the formation of the Coulomb matrix
     J. Comp. Chem. 2003 24(14), 1740-1747
     doi.org/10.1002/jcc.10318
  3. Garcia-Rates, M.; Neese, F.
     Effect of the Solute Cavity on the Solvation Energy and its Derivatives within the Framework of the Gaussian Charge Scheme
     J. Comput. Chem. 2020 41 , 922-939
     doi.org/10.1002/jcc.26139
  4. Neese, F.
     The SHARK Integral Generation and Digestion System
     J. Comp. Chem. 2022 44(3), 381
     doi.org/10.1002/jcc.26942

List of suggested additional citations. These are papers that are important in the 'surrounding' of 
of this run, or papers that preceded the highly important papers. If you like your results we are grateful for a citation.

  1. Neese, F.
     The ORCA program system
     WIRES Comput. Molec. Sci. 2012 2(1), 73-78
     doi.org/10.1002/wcms.81
  2. Neese, F.
     Software update: the ORCA program system, version 4.0
     WIRES Comput. Molec. Sci. 2018 8(1), 1-6
     doi.org/10.1002/wcms.1327
  3. Neese, F.; Wennmohs, F.; Becker, U.; Riplinger, C.
     The ORCA quantum chemistry program package
     J. Chem. Phys. 2020 152(22), 224108
     doi.org/10.1063/5.0004608
  4. Neese, F.
     Software update: The ORCA program system—Version 5.0
     WIRES Comput. Molec. Sci. 2022 12(1), e1606
     doi.org/10.1002/wcms.1606

List of optional additional citations

  1. Neese, F.
     Approximate second-order SCF convergence for spin unrestricted wavefunctions
     Chem. Phys. Lett. 2000 325(1-3), 93-98
     doi.org/10.1016/s0009-2614(00)00662-x

Timings for individual modules:

Sum of individual times          ...     4996.460 sec (=  83.274 min)
Startup calculation              ...       40.248 sec (=   0.671 min)   0.8 %
SCF iterations                   ...     1028.902 sec (=  17.148 min)  20.6 %
Property integrals               ...       10.397 sec (=   0.173 min)   0.2 %
Property calculations            ...        9.409 sec (=   0.157 min)   0.2 %
CIS module                       ...     3907.503 sec (=  65.125 min)  78.2 %
                             ****ORCA TERMINATED NORMALLY****
TOTAL RUN TIME: 0 days 1 hours 23 minutes 18 seconds 231 msec
