
                                 *****************
                                 * O   R   C   A *
                                 *****************

                                            #,                                       
                                            ###                                      
                                            ####                                     
                                            #####                                    
                                            ######                                   
                                           ########,                                 
                                     ,,################,,,,,                         
                               ,,#################################,,                 
                          ,,##########################################,,             
                       ,#########################################, ''#####,          
                    ,#############################################,,   '####,        
                  ,##################################################,,,,####,       
                ,###########''''           ''''###############################       
              ,#####''   ,,,,##########,,,,          '''####'''          '####       
            ,##' ,,,,###########################,,,                        '##       
           ' ,,###''''                  '''############,,,                           
         ,,##''                                '''############,,,,        ,,,,,,###''
      ,#''                                            '''#######################'''  
     '                                                          ''''####''''         
             ,#######,   #######,   ,#######,      ##                                
            ,#'     '#,  ##    ##  ,#'     '#,    #''#        ,####,    ,#,          
            ##       ##  ##   ,#'  ##            #'  '#       #'       ,# #          
            ##       ##  #######   ##           ,######,      #####,      #          
            '#,     ,#'  ##    ##  '#,     ,#' ,#      #,     #,   #      #          
             '#######'   ##     ##  '#######'  #'      '#     '####' #    #          



                #########################################################
                #                        -***-                          #
                #          Department of theory and spectroscopy        #
                #                                                       #
                #                      Frank Neese                      #
                #                                                       #
                #     Directorship, Architecture, Infrastructure        #
                #                    SHARK, DRIVERS                     #
                #        Core code/Algorithms in most modules           #
                #                                                       #
                #        Max Planck Institute fuer Kohlenforschung      #
                #                Kaiser Wilhelm Platz 1                 #
                #                 D-45470 Muelheim/Ruhr                 #
                #                      Germany                          #
                #                                                       #
                #                  All rights reserved                  #
                #                        -***-                          #
                #########################################################


                         Program Version 6.1.1  -  RELEASE   -
                                (GIT: $487d211c$)
                          ($2025-11-21 10:33:24 +0100$)


 With contributions from (in alphabetic order):
[Max-Planck-Institut fuer Kohlenforschung]                               
  Daniel Aravena         : Magnetic Suceptibility                        
  Michael Atanasov       : Ab Initio Ligand Field Theory (pilot matlab implementation)
  Alexander A. Auer      : GIAO ZORA, VPT2 properties, NMR spectrum      
  Ute Becker             : All parallelization in ORCA, NUMFREQ, NUMCALC 
  Giovanni Bistoni       : ED, misc. LED, open-shell LED, HFLD           
  Dmytro Bykov           : pre 5.0 version of the SCF Hessian            
  Marcos Casanova-Páez   : Triplet and SCS-CIS(D). UHF-(DLPNO)-IP/EA/STEOM-CCSD. UHF-CVS-IP/STEOM-CCSD   
  Vijay G. Chilkuri      : MRCI spin determinant printing, contributions to CSF-ICE 
  Pauline Colinet        : FMM embedding                                 
  Dipayan Datta          : RHF DLPNO-CCSD density                        
  Achintya Kumar Dutta   : EOM-CC, STEOM-CC                              
  Nicolas Foglia         : Exact transition moments, OPA infrastructure, MCD improvements    
  Dmitry Ganyushin       : Spin-Orbit,Spin-Spin,Magnetic field MRCI      
  Miquel Garcia-Rates    : C-PCM and meta-GGA Hessian, CCSD/C-PCM, Gaussian charge scheme 
  Tiago L. C. Gouveia    : GS-ROHF, GS-ROCIS                             
  Yang Guo               : DLPNO-NEVPT2, F12-NEVPT2, CIM, IAO-localization        
  Andreas Hansen         : Spin unrestricted coupled pair/coupled cluster methods 
  Ingolf Harden          : AUTO-CI MPn and infrastructure                
  Benjamin Helmich-Paris : MC-RPA, TRAH-(SCF,CASSCF), AVAS, COSX integrals, SCF dyn. polar., MC-PDFT, srDFT 
  Lee Huntington         : MR-EOM, pCC                                   
  Robert Izsak           : Overlap fitted RIJCOSX, COSX-SCS-MP3, EOM     
  Riya Kayal             : Wick's Theorem for AUTO-CI, AUTO-CI UHF-CCSDT 
  Emily Kempfer          : AUTO-CI RHF CISDT and CCSDT, approximate NEVPT4
  Christian Kollmar      : KDIIS, OOCD, Brueckner-CCSD(T), CCSD density, CASPT2, CASPT2-K, improved NEVPT2 
  Axel Koslowski         : Symmetry handling                             
  Simone Kossmann        : meta-GGA functionals, TD-DFT gradient, OOMP2, (MP2 Hessian; deprecated post 5.0) 
  Lucas Lang             : DCDCAS, Hyperfine gauge corrections, ICE-SOC+SSC
  Marvin Lechner         : AUTO-CI (C++ implementation), FIC-MRCC        
  Spencer Leger          : CASSCF response                               
  Dagmar Lenk            : GEPOL surface, SMD, ORCA-2-JSON               
  Dimitrios Liakos       : Extrapolation schemes; Compound Job, Property file
  Dimitrios Manganas     : Further ROCIS development; embedding schemes. LFT, Crystal Embedding 
  Dimitrios Pantazis     : SARC Basis sets                               
  Anastasios Papadopoulos: AUTO-CI, single reference methods and gradients 
  Taras Petrenko         : pre 6.0 DFT Hessian and TD-DFT gradient,  ECA, NRVS 
  Petra Pikulova         : Analytic Raman intensities                    
  Peter Pinski           : DLPNO-MP2, DLPNO-MP2 Gradient                 
  Shashank Vittal Rao    : ES-AILFT, MagRelax                            
  Christoph Reimann      : Effective Core Potentials                     
  Marius Retegan         : Local ZFS, SOC                                
  Christoph Riplinger    : Optimizer, TS searches, QM/MM, DLPNO-CCSD(T), (RO)-DLPNO pert. Triples 
  Michael Roemelt        : Original ROCIS implementation, recursive CI coupling coefficients
  Masaaki Saitow         : Open-shell DLPNO-CCSD energy and density      
  Barbara Sandhoefer     : DKH picture change effects                    
  Yorick L. A. Schmerwitz: GMF and freeze-and-release deltaSCF, NEB S-IDPP initial path                    
  Kantharuban Sivalingam : CASSCF convergence/infrastructure, NEVPT2, NEVPT3, NEVPT4(SD), FIC-MRCI and CEPA variants
  Bernardo de Souza      : ESD, SOC TD-DFT                               
  Georgi L. Stoychev     : AutoAux, RI-MP2 NMR, DLPNO-MP2 response, X2C  
  Van Anh Tran           : RI-MP2 g-tensors                              
  Willem Van den Heuvel  : Paramagnetic NMR                              
  Zikuan Wang            : NOTCH, Electric field optimization            
  Frank Wennmohs         : Technical directorship and infrastructure     
  Hang Xu                : AUTO-CI-Response properties                   
                                                                         
[FACCTs GmbH]                                                            
  Markus Bursch, Nicolas Foglia, Miquel Garcia-Rates, Ingolf Harden, Hagen Neugebauer, Anastasios Papadopoulos, 
  Christoph Riplinger, Bernardo de Souza, Georgi L. Stoychev                                                    
                                                                 
  APM, various basis sets, CI-OPT, improved COSX, DLPNO-Multilevel,           
  DOCKER, DRACO, updates on ESD, Fragmentator, GOAT, IRC, LR-CPCM, L-BFGS, MBIS, meta-GGA TD-DFT gradient, ML-optimized integration grids, 
  MM, NACMEs, nearIR, NEB, NEB-TS, NL-DFT gradient (VV10), 2- and 3-layer-ONIOM, interface openCOSMO-RS, QMMM,   
  Crystal-QMMM, RESP, rigid body optimization, SF, symmetry and pop. for TD-DFT, various functionals, SOLVATOR                                   
                                                                         
[Other institutions]                                                     
  V. Asgeirsson          : NEB                                           
  Christoph Bannwarth    : sTDA-DFT, sTD-DFT, PBEh-3c, B97-3c, D3        
  Giovanni Bistoni       : ETS/NOCV, ADLD/ADEX, COVALED                  
  Martin Brehm           : Molecular dynamics                            
  Ronald Cardenas        : ETS/NOCV                                      
  Martina Colucci        : COVALED                                       
  Sebastian Ehlert       : rSCAN, r2SCAN, r2SCAN-3c, D4, dhf basis sets  
  Marvin Friede          : D4 for Fr, Ra, Ac-Lr                          
  Lars Goerigk           : TD-DFT with DH, B97 family of functionals     
  Stefan Grimme          : VdW corrections, initial TS optimization, DFT functionals, gCP, sTDA/sTD-DF 
  Waldemar Hujo          : DFT-NL                                        
  H. Jonsson             : NEB                                           
  Holger Kruse           : gCP                                           
  Marcel Mueller         : wB97X-3c, vDZP basis set                      
  Hagen Neugebauer       : wr2SCAN, Native XTB                           
  Gianluca Regni         : ADLD/ADEX                                     
  Tobias Risthaus        : pre 6.0 range-separated hybrid DFT and stability analysis
  Lukas Wittmann         : regularized MP2, r2SCAN double-hybrids, wr2SCAN        
                                                                         
We gratefully acknowledge several colleagues who have allowed us to      
interface, adapt or use parts of their codes:                            
  Ed Valeev, F. Pavosevic, A. Kumar             : LibInt (2-el integral package), F12 methods 
  Garnet Chan, S. Sharma, J. Yang, R. Olivares  : DMRG                   
  Ulf Ekstrom                                   : XCFun DFT Library      
  Mihaly Kallay                                 : mrcc  (arbitrary order and MRCC methods)
  Frank Weinhold                                : gennbo (NPA and NBO analysis)           
  Simon Mueller                                 : openCOSMO-RS                            
  Christopher J. Cramer and Donald G. Truhlar   : smd solvation model                     
  S Lehtola, MJT Oliveira, MAL Marques          : LibXC Library                           
  Liviu Ungur et al                             : ANISO software                          


 Your calculation uses the libint2 library for the computation of 2-el integrals
 For citations please refer to: http://libint.valeyev.net

 Your ORCA version has been built with support for libXC version: 7.0.0
 For citations please refer to: https://libxc.gitlab.io

 This ORCA versions uses:
   CBLAS   interface :  Fast vector & matrix operations
   LAPACKE interface :  Fast linear algebra routines
   SCALAPACK package :  Parallel linear algebra routines
   Shared memory     :  Shared parallel matrices
   BLAS/LAPACK       :  OpenBLAS 0.3.29  USE64BITINT DYNAMIC_ARCH NO_AFFINITY Haswell SINGLE_THREADED
        Core in use  :  Haswell
   Copyright (c) 2011-2014, The OpenBLAS Project


  ***********************************
  * Starting time: Sat Jun 20 04:55:31 2026
  * Host name:     steezy
  * Process ID:    93089
  * Working dir.:  /home/jannes/metaltpp/pttpp/02_tddft_tda_comparison/runs/tdaoff_wb97xd
  ***********************************

NOTE: MaxCore=3000 MB was set to SCF,MP2,MDCI,CIPSI,MRCI,RASCI and CIS
      => If you want to overwrite this, your respective input block should be placed after the MaxCore statement


***************************************
The coordinates will be read from file: /home/jannes/metaltpp/pttpp/01_opt/pttpp_opt_b3lyp_tzvp.xyz
***************************************


Your calculation utilizes the atom-pairwise dispersion correction
with the zero-damping scheme (D30)


XCFun DFT library Copyright 2009-2010 Ulf Ekstrom and contributors.
See http://admol.org/xcfun for more information.
This is free software; see the source code for copying conditions.
There is ABSOLUTELY NO WARRANTY; not even for MERCHANTABILITY or FITNESS FOR A PARTICULAR PURPOSE.
For details see the documentation.
Scientific users of this library should cite U. Ekstrom, L. Visscher, R. Bast, A. J. Thorvaldsen and K. Ruud;
J.Chem.Theor.Comp. 2010, DOI: 10.1021/ct100117s
XCFun Version 0.99 

================================================================================

cite the ECPs for Pt [Def2-ECP] as follows:
Ce-Yb(ecp-28): M. Dolg, H. Stoll, H.Preuss, J. Chem. Phys., 1989, 90, 1730-1734.
Y-Cd(ecp-28), Hf-Hg(ecp-46): D. Andrae,U. Haeussermann, M. Dolg, H. Stoll, H. Preuss, Theor. Chim. Acta, 1990, 77, 123-141.
In-Sb(ecp-28), Tl-Bi(ecp-46): B. Metz, H. Stoll, M. Dolg, J. Chem. Phys., 2000, 113, 2563-2569.
Te-Xe(ecp-28), Po-Rn(ecp-46): K. A. Peterson, D. Figgen, E. Goll, H. Stoll, M. Dolg, J. Chem. Phys., 2003, 119, 11113-11123.
Rb(ecp-28), Cs(ecp-46): T. Leininger, A. Nicklass, W. Kuechle, H. Stoll, M. Dolg, A. Bergner, Chem. Phys. Lett., 1996, 255, 274-280.
Sr(ecp-28), Ba(ecp-46): M. Kaupp, P. V. Schleyer, H. Stoll and H. Preuss, J. Chem. Phys., 1991, 94, 1360-1366.
La(ecp-46): M. Dolg, H. Stoll, A. Savin, H. Preuss, Theor. Chim. Acta, 1989, 75, 173-194.
Lu(ecp-28): X. Cao, M. Dolg, J. Chem. Phys., 2001, 115, 7348-7355.

ECP parameters for Pt [Def2-ECP] have been obtained from:
TURBOMOLE (7.0.2)

----- Orbital basis set information -----
Your calculation utilizes the basis: def2-TZVP
   F. Weigend and R. Ahlrichs, Phys. Chem. Chem. Phys. 7, 3297 (2005).

----- AuxJ basis set information -----
Your calculation utilizes the auxiliary basis: def2/J
   H-Rn: F. Weigend, Phys. Chem. Chem. Phys. 8, 1057 (2006).
   Fr-Lr: K. Eichkorn, F. Weigend, O. Treutler, R. Ahlrichs; Theor. Chem. Acc. 97, 119 (1997).

================================================================================
                                        WARNINGS
                       Please study these warnings very carefully!
================================================================================


WARNING: CIS/ROCIS methods need fully converged wavefunctions
  ===> : Setting SCFConvForced true
         You can overwrite this default with %scf ConvForced false 


================================================================================
                                       INPUT FILE
================================================================================
NAME = tddft.inp
|  1> %pal nprocs 8 end
|  2> %maxcore 3000
|  3> ! wB97X-D3 def2-TZVP def2/J RIJCOSX DefGrid3 TightSCF CPCM(Toluene)
|  4> %tddft
|  5>   nroots 30
|  6>   triplets false
|  7>   tda false
|  8> end
|  9> * xyzfile 0 1 /home/jannes/metaltpp/pttpp/01_opt/pttpp_opt_b3lyp_tzvp.xyz
| 10> 
| 11>                          ****END OF INPUT****
================================================================================

                       ****************************
                       * Single Point Calculation *
                       ****************************

---------------------------------
CARTESIAN COORDINATES (ANGSTROEM)
---------------------------------
  N     -2.108080    2.524279    3.521821
  H      1.680411   -2.228696    3.899477
  C     -4.349458    3.013050    3.514433
  C     -0.398442   -1.553009    3.873584
  N      0.088560    0.677670    3.651248
  C      0.949551   -1.440517    3.837518
  H     -0.984376   -2.450922    3.971525
  C      2.847257    1.833976    3.491404
  N     -0.257703    4.708353    3.279334
  C     -1.118860    6.826069    3.088574
  C      2.549630    0.479041    3.625472
  C      2.659016    4.025761    3.287331
  N      1.938935    2.861735    3.408577
  C      4.065124    3.715852    3.296533
  C     -0.942186   -0.224960    3.755982
  C      1.258712   -0.041150    3.698386
  C     -2.828125    1.360316    3.643826
  C     -3.016407    3.552146    3.440624
  C     -4.234182    1.670468    3.638051
  C     -2.303522    0.073788    3.753890
  C     -2.718800    4.906972    3.305530
  C      4.180359    2.373315    3.420619
  C     -1.427914    5.427035    3.231148
  C      0.229118    6.938555    3.051954
  C      2.134390    5.312204    3.175775
  C      0.772994    5.610851    3.172929
  H     -5.252396    3.598102    3.474038
  H     -5.024648    0.943812    3.717750
  H      5.083333    1.788511    3.463607
  H      4.855696    4.442619    3.219060
  H      0.814935    7.836215    2.951066
  H     -1.849779    7.614007    3.024296
  Pt    -0.084568    2.693014    3.465252
  C      3.695876   -0.484126    3.696986
  C      4.229424   -1.043081    2.534214
  C      5.293291   -1.936753    2.599920
  C      5.839023   -2.284185    3.830859
  C      5.314808   -1.733093    4.995018
  C      4.250819   -0.839685    4.927786
  H      3.806461   -0.774496    1.573874
  H      5.695024   -2.361196    1.688023
  H      6.667376   -2.979810    3.882542
  H      5.733653   -1.997749    5.958156
  H      3.844807   -0.411992    5.836385
  C     -3.268760   -1.066099    3.878097
  C     -3.705976   -1.754908    2.745100
  C     -4.601614   -2.812950    2.859511
  C     -5.072736   -3.197536    4.110076
  C     -4.643439   -2.517963    5.244832
  C     -3.748094   -1.459835    5.128853
  H     -3.340989   -1.457561    1.769571
  H     -4.931069   -3.336024    1.970147
  H     -5.769853   -4.021390    4.199691
  H     -5.004692   -2.810883    6.222985
  H     -3.415304   -0.932587    6.014595
  C     -3.865024    5.870187    3.234394
  C     -4.430187    6.214194    2.004966
  C     -5.494016    7.107822    1.938107
  C     -6.007887    7.670629    3.101275
  C     -5.451911    7.334755    4.330839
  C     -4.388123    6.440956    4.396165
  H     -4.032155    5.777467    1.097137
  H     -5.920696    7.363647    0.976017
  H     -6.836127    8.366411    3.049884
  H     -5.845584    7.768322    5.241963
  H     -3.957179    6.181389    5.355434
  C      3.099632    6.451912    3.050615
  C      3.597036    6.829503    1.801896
  C      4.492529    7.887381    1.684927
  C      4.904107    8.582789    2.816650
  C      4.415074    8.214280    4.065178
  C      3.519150    7.156593    4.180557
  H      3.277964    6.290038    0.918467
  H      4.867638    8.167831    0.708334
  H      5.601401    9.406404    2.726278
  H      4.730926    8.749507    4.952246
  H      3.140359    6.871707    5.154542

----------------------------
CARTESIAN COORDINATES (A.U.)
----------------------------
  NO LB      ZA    FRAG     MASS         X           Y           Z
   0 N     7.0000    0    14.007   -3.983695    4.770195    6.655278
   1 H     1.0000    0     1.008    3.175517   -4.211625    7.368943
   2 C     6.0000    0    12.011   -8.219284    5.693840    6.641315
   3 C     6.0000    0    12.011   -0.752946   -2.934761    7.320012
   4 N     7.0000    0    14.007    0.167354    1.280611    6.899858
   5 C     6.0000    0    12.011    1.794392   -2.722182    7.251858
   6 H     1.0000    0     1.008   -1.860201   -4.631572    7.505095
   7 C     6.0000    0    12.011    5.380536    3.465712    6.597798
   8 N     7.0000    0    14.007   -0.486989    8.897498    6.197042
   9 C     6.0000    0    12.011   -2.114338   12.899400    5.836559
  10 C     6.0000    0    12.011    4.818103    0.905256    6.851149
  11 C     6.0000    0    12.011    5.024812    7.607586    6.212156
  12 N     7.0000    0    14.007    3.664057    5.407895    6.441276
  13 C     6.0000    0    12.011    7.681970    7.021942    6.229544
  14 C     6.0000    0    12.011   -1.780474   -0.425112    7.097777
  15 C     6.0000    0    12.011    2.378621   -0.077763    6.988937
  16 C     6.0000    0    12.011   -5.344382    2.570625    6.885832
  17 C     6.0000    0    12.011   -5.700183    6.712584    6.501837
  18 C     6.0000    0    12.011   -8.001444    3.156728    6.874921
  19 C     6.0000    0    12.011   -4.353026    0.139440    7.093824
  20 C     6.0000    0    12.011   -5.137787    9.272834    6.246547
  21 C     6.0000    0    12.011    7.899733    4.484916    6.464033
  22 C     6.0000    0    12.011   -2.698366   10.255611    6.105984
  23 C     6.0000    0    12.011    0.432971   13.111968    5.767357
  24 C     6.0000    0    12.011    4.033413   10.038611    6.001345
  25 C     6.0000    0    12.011    1.460747   10.602973    5.995967
  26 H     1.0000    0     1.008   -9.925590    6.799427    6.564980
  27 H     1.0000    0     1.008   -9.495208    1.783546    7.025529
  28 H     1.0000    0     1.008    9.606108    3.379796    6.545268
  29 H     1.0000    0     1.008    9.175936    8.395334    6.083142
  30 H     1.0000    0     1.008    1.540005   14.808300    5.576706
  31 H     1.0000    0     1.008   -3.495577   14.388387    5.715091
  32 Pt   18.0000*   0   195.090   -0.159811    5.089059    6.548377
  33 C     6.0000    0    12.011    6.984193   -0.914865    6.986290
  34 C     6.0000    0    12.011    7.992453   -1.971137    4.788970
  35 C     6.0000    0    12.011   10.002871   -3.659933    4.913137
  36 C     6.0000    0    12.011   11.034155   -4.316485    7.239275
  37 C     6.0000    0    12.011   10.043531   -3.275071    9.439216
  38 C     6.0000    0    12.011    8.032884   -1.586774    9.312167
  39 H     1.0000    0     1.008    7.193169   -1.463586    2.974191
  40 H     1.0000    0     1.008   10.762035   -4.462014    3.189901
  41 H     1.0000    0     1.008   12.599515   -5.631026    7.336940
  42 H     1.0000    0     1.008   10.835033   -3.775199   11.259284
  43 H     1.0000    0     1.008    7.265632   -0.778551   11.029169
  44 C     6.0000    0    12.011   -6.177061   -2.014635    7.328540
  45 C     6.0000    0    12.011   -7.003279   -3.316296    5.187487
  46 C     6.0000    0    12.011   -8.695790   -5.315704    5.403693
  47 C     6.0000    0    12.011   -9.586081   -6.042468    7.766919
  48 C     6.0000    0    12.011   -8.774829   -4.758261    9.911296
  49 C     6.0000    0    12.011   -7.082871   -2.758689    9.692128
  50 H     1.0000    0     1.008   -6.313555   -2.754391    3.344005
  51 H     1.0000    0     1.008   -9.318370   -6.304172    3.723038
  52 H     1.0000    0     1.008  -10.903441   -7.599325    7.936267
  53 H     1.0000    0     1.008   -9.457497   -5.311799   11.759738
  54 H     1.0000    0     1.008   -6.453989   -1.762334   11.365937
  55 C     6.0000    0    12.011   -7.303836   11.093045    6.112119
  56 C     6.0000    0    12.011   -8.371839   11.743125    3.788836
  57 C     6.0000    0    12.011  -10.382185   13.431836    3.662491
  58 C     6.0000    0    12.011  -11.353260   14.495389    5.860560
  59 C     6.0000    0    12.011  -10.302620   13.860678    8.184099
  60 C     6.0000    0    12.011   -8.292350   12.171643    8.307548
  61 H     1.0000    0     1.008   -7.619669   10.917831    2.073289
  62 H     1.0000    0     1.008  -11.188494   13.915276    1.844404
  63 H     1.0000    0     1.008  -12.918407   15.810225    5.763445
  64 H     1.0000    0     1.008  -11.046554   14.680001    9.905874
  65 H     1.0000    0     1.008   -7.477985   11.681133   10.120303
  66 C     6.0000    0    12.011    5.857456   12.192346    5.764826
  67 C     6.0000    0    12.011    6.797412   12.905891    3.405090
  68 C     6.0000    0    12.011    8.489649   14.904990    3.184050
  69 C     6.0000    0    12.011    9.267419   16.219121    5.322696
  70 C     6.0000    0    12.011    8.343282   15.522739    7.682073
  71 C     6.0000    0    12.011    6.650230   13.524000    7.900107
  72 H     1.0000    0     1.008    6.194455   11.886449    1.735651
  73 H     1.0000    0     1.008    9.198503   15.434964    1.338557
  74 H     1.0000    0     1.008   10.585114   17.775528    5.151919
  75 H     1.0000    0     1.008    8.940155   16.534172    9.358389
  76 H     1.0000    0     1.008    5.934418   12.985645    9.740672
* core charge reduced due to ECP

--------------------------------
INTERNAL COORDINATES (ANGSTROEM)
--------------------------------
 N      0   0   0     0.000000000000     0.00000000     0.00000000
 H      1   0   0     6.089832256915     0.00000000     0.00000000
 C      1   2   0     2.294063090683   140.74176214     0.00000000
 C      2   1   3     2.186058927993    33.53335273   359.92265709
 N      4   2   1     2.294020897270    95.72890635     0.10546907
 C      2   1   3     1.076671203535     4.28148201     0.76320005
 H      4   2   1     1.076643136205   104.99163936   180.17044812
 C      5   4   2     2.995496821757   125.17232846   359.95170789
 N      1   2   6     2.872782191544   101.41443537   180.92446091
 C      9   1   2     2.294057415200   117.84326184   179.81391117
 C      8   5   4     1.393701733153    54.75457960     0.05078862
 C      8   5   4     2.209298860825   108.02399739   180.06849786
 N     12   8   5     1.374108023534    36.49594011   359.85291816
 C     12   8   5     1.439884359416    72.70322819   179.77047234
 C      5   4   2     1.374098890945    36.35271280   179.94709567
 C      5   4   2     1.374110759826    70.65740558     0.00000000
 C      1   2   6     1.374102513224    70.08426492     0.83102631
 C      1   2   6     1.374104181827   177.09106081   359.91368685
 C      3   1   2     1.353180115826    72.84740619     0.03202793
 C     17   1   2     1.393727591634   126.27704883   359.94255782
 C     18   1  17     1.393690734403   126.28058068   180.12050265
 C     14  12   8     1.353174432699   107.29474691     0.04043156
 C      9   1   2     1.374124689963    81.49261096   179.89296568
 C     10   9   1     1.353158739827    72.84487769   180.14128539
 C     12   8   5     1.393776449906   162.77292880     0.09131181
 C      9   1   2     1.374104260394   171.49629015     0.30752931
 H      3   1   2     1.076668202645   159.27279615   180.19803218
 H     19   3   1     1.076670016901   127.86795644   180.12045937
 H     22  14  12     1.076664815862   127.87750005   180.06413545
 H     14  12   8     1.076660440674   124.84173600   180.15159032
 H     24  10   9     1.076639923869   127.87044857   179.86867986
 H     10   9   1     1.076671380117   159.28883997   359.97600660
 Pt     9   1   2     2.031288587650    44.99884979     0.06872539
 C     11   8   5     1.498893804608   117.77447688   180.03602460
 C     34  11   8     1.396117137706   120.64945491   270.75706970
 C     35  34  11     1.390964009505   120.67588829   179.98774264
 C     36  35  34     1.390591350226   120.16522925     0.00000000
 C     37  36  35     1.390600507021   119.61009114     0.00000000
 C     38  37  36     1.390960194315   120.16113054     0.00000000
 H     35  34  11     1.083183971663   119.33427522     0.00000000
 H     36  35  34     1.083096432234   119.71547006   179.99024958
 H     37  36  35     1.082928204555   120.19365915   180.00752098
 H     38  37  36     1.083101984056   120.12085939   180.01353522
 H     39  38  37     1.083198271163   119.98542222   180.01026686
 C     20  17   1     1.498817712446   117.78589349   180.00672480
 C     45  20  17     1.396172247109   120.63921366    92.70159491
 C     46  45  20     1.390938263792   120.67528316   179.99310832
 C     47  46  45     1.390602710218   120.16502648     0.00000000
 C     48  47  46     1.390606348796   119.61039275     0.00000000
 C     49  48  47     1.390945348680   120.16114394     0.00000000
 H     46  45  20     1.083183654099   119.33385303   359.96149731
 H     47  46  45     1.083104870825   119.71443278   179.95626462
 H     48  47  46     1.082929845840   120.19248561   180.01608382
 H     49  48  47     1.083092545972   120.12054737   180.03134760
 H     50  49  48     1.083179847693   119.99160542   180.01693933
 C     21  18   1     1.498890074798   117.77510857   179.97480889
 C     56  21  18     1.396153045327   120.64301280   269.93028884
 C     57  56  21     1.390961388547   120.67863705   179.99069446
 C     58  57  56     1.390602143068   120.16110562     0.00000000
 C     59  58  57     1.390592629437   119.60993104     0.00000000
 C     60  59  58     1.390967213387   120.16543600     0.00000000
 H     57  56  21     1.083195112918   119.33581920     0.00000000
 H     58  57  56     1.083106776980   119.71810161   180.00814271
 H     59  58  57     1.082928610081   120.19622210   180.00101373
 H     60  59  58     1.083100398606   120.11925419   179.99040517
 H     61  60  59     1.083182393446   119.98960067   179.99577222
 C     25  12   8     1.498762696980   117.78410027   179.91129462
 C     67  25  12     1.396167459671   120.64989280    86.19362558
 C     68  67  25     1.390932972506   120.68172546   179.97943157
 C     69  68  67     1.390606407520   120.16175598     0.03388652
 C     70  69  68     1.390602219423   119.60930377     0.00000000
 C     71  70  69     1.390932733128   120.16570505   359.97464563
 H     68  67  25     1.083178963886   119.32855364     0.04057871
 H     69  68  67     1.083094482234   119.71784167   180.07288493
 H     70  69  68     1.082925406610   120.19800962   179.99037437
 H     71  70  69     1.083107173769   120.12069447   179.93332528
 H     72  71  70     1.083184899321   119.98886455   179.97420670

---------------------------
INTERNAL COORDINATES (A.U.)
---------------------------
 N      0   0   0     0.000000000000     0.00000000     0.00000000
 H      1   0   0    11.508115167089     0.00000000     0.00000000
 C      1   2   0     4.335150975327   140.74176214     0.00000000
 C      2   1   3     4.131052686520    33.53335273   359.92265709
 N      4   2   1     4.335071241333    95.72890635     0.10546907
 C      2   1   3     2.034613710961     4.28148201     0.76320005
 H      4   2   1     2.034560671393   104.99163936   180.17044812
 C      5   4   2     5.660668628152   125.17232846   359.95170789
 N      1   2   6     5.428771584425   101.41443537   180.92446091
 C      9   1   2     4.335140250219   117.84326184   179.81391117
 C      8   5   4     2.633714588030    54.75457960     0.05078862
 C      8   5   4     4.174969794943   108.02399739   180.06849786
 N     12   8   5     2.596687842903    36.49594011   359.85291816
 C     12   8   5     2.720987103814    72.70322819   179.77047234
 C      5   4   2     2.596670584811    36.35271280   179.94709567
 C      5   4   2     2.596693013746    70.65740558     0.00000000
 C      1   2   6     2.596677429926    70.08426492     0.83102631
 C      1   2   6     2.596680583128   177.09106081   359.91368685
 C      3   1   2     2.557139828778    72.84740619     0.03202793
 C     17   1   2     2.633763453477   126.27704883   359.94255782
 C     18   1  17     2.633693803405   126.28058068   180.12050265
 C     14  12   8     2.557129089226   107.29474691     0.04043156
 C      9   1   2     2.596719337889    81.49261096   179.89296568
 C     10   9   1     2.557099433996    72.84487769   180.14128539
 C     12   8   5     2.633855782231   162.77292880     0.09131181
 C      9   1   2     2.596680731599   171.49629015     0.30752931
 H      3   1   2     2.034608040100   159.27279615   180.19803218
 H     19   3   1     2.034611468547   127.86795644   180.12045937
 H     22  14  12     2.034601640007   127.87750005   180.06413545
 H     14  12   8     2.034593372101   124.84173600   180.15159032
 H     24  10   9     2.034554600958   127.87044857   179.86867986
 H     10   9   1     2.034614044652   159.28883997   359.97600660
 Pt     9   1   2     3.838579129617    44.99884979     0.06872539
 C     11   8   5     2.832498794540   117.77447688   180.03602460
 C     34  11   8     2.638279041138   120.64945491   270.75706970
 C     35  34  11     2.628541040106   120.67588829   179.98774264
 C     36  35  34     2.627836816127   120.16522925     0.00000000
 C     37  36  35     2.627854119961   119.61009114     0.00000000
 C     38  37  36     2.628533830441   120.16113054     0.00000000
 H     35  34  11     2.046921059095   119.33427522     0.00000000
 H     36  35  34     2.046755633549   119.71547006   179.99024958
 H     37  36  35     2.046437729308   120.19365915   180.00752098
 H     38  37  36     2.046766124973   120.12085939   180.01353522
 H     39  38  37     2.046948081236   119.98542222   180.01026686
 C     20  17   1     2.832355001194   117.78589349   180.00672480
 C     45  20  17     2.638383182818   120.63921366    92.70159491
 C     46  45  20     2.628492387758   120.67528316   179.99310832
 C     47  46  45     2.627858283401   120.16502648     0.00000000
 C     48  47  46     2.627865159316   119.61039275     0.00000000
 C     49  48  47     2.628505776256   120.16114394     0.00000000
 H     46  45  20     2.046920458988   119.33385303   359.96149731
 H     47  46  45     2.046771580176   119.71443278   179.95626462
 H     48  47  46     2.046440830888   120.19248561   180.01608382
 H     49  48  47     2.046748289578   120.12054737   180.03134760
 H     50  49  48     2.046913265923   119.99160542   180.01693933
 C     21  18   1     2.832491746221   117.77510857   179.97480889
 C     56  21  18     2.638346896709   120.64301280   269.93028884
 C     57  56  21     2.628536087212   120.67863705   179.99069446
 C     58  57  56     2.627857211642   120.16110562     0.00000000
 C     59  58  57     2.627839233485   119.60993104     0.00000000
 C     60  59  58     2.628547094564   120.16543600     0.00000000
 H     57  56  21     2.046942113016   119.33581920     0.00000000
 H     58  57  56     2.046775182287   119.71810161   180.00814271
 H     59  58  57     2.046438495642   120.19622210   180.00101373
 H     60  59  58     2.046763128907   120.11925419   179.99040517
 H     61  60  59     2.046918076699   119.98960067   179.99577222
 C     25  12   8     2.832251037029   117.78410027   179.91129462
 C     67  25  12     2.638374135870   120.64989280    86.19362558
 C     68  67  25     2.628482388677   120.68172546   179.97943157
 C     69  68  67     2.627865270289   120.16175598     0.03388652
 C     70  69  68     2.627857355933   119.60930377     0.00000000
 C     71  70  69     2.628481936318   120.16570505   359.97464563
 H     68  67  25     2.046911595768   119.32855364     0.04057871
 H     69  68  67     2.046751948583   119.71784167   180.07288493
 H     70  69  68     2.046432441958   120.19800962   179.99037437
 H     71  70  69     2.046775932108   120.12069447   179.93332528
 H     72  71  70     2.046922812116   119.98886455   179.97420670

---------------------
BASIS SET INFORMATION
---------------------
There are 4 groups of distinct atoms

 Group   1 Type N   : 11s6p2d1f contracted to 5s3p2d1f pattern {62111/411/11/1}
 Group   2 Type H   : 5s1p contracted to 3s1p pattern {311/1}
 Group   3 Type C   : 11s6p2d1f contracted to 5s3p2d1f pattern {62111/411/11/1}
 Group   4 Type Pt  : 8s7p6d1f contracted to 6s4p3d1f pattern {311111/4111/411/1}

Atom   0N    basis set group =>   1
Atom   1H    basis set group =>   2
Atom   2C    basis set group =>   3
Atom   3C    basis set group =>   3
Atom   4N    basis set group =>   1
Atom   5C    basis set group =>   3
Atom   6H    basis set group =>   2
Atom   7C    basis set group =>   3
Atom   8N    basis set group =>   1
Atom   9C    basis set group =>   3
Atom  10C    basis set group =>   3
Atom  11C    basis set group =>   3
Atom  12N    basis set group =>   1
Atom  13C    basis set group =>   3
Atom  14C    basis set group =>   3
Atom  15C    basis set group =>   3
Atom  16C    basis set group =>   3
Atom  17C    basis set group =>   3
Atom  18C    basis set group =>   3
Atom  19C    basis set group =>   3
Atom  20C    basis set group =>   3
Atom  21C    basis set group =>   3
Atom  22C    basis set group =>   3
Atom  23C    basis set group =>   3
Atom  24C    basis set group =>   3
Atom  25C    basis set group =>   3
Atom  26H    basis set group =>   2
Atom  27H    basis set group =>   2
Atom  28H    basis set group =>   2
Atom  29H    basis set group =>   2
Atom  30H    basis set group =>   2
Atom  31H    basis set group =>   2
Atom  32Pt   basis set group =>   4
Atom  33C    basis set group =>   3
Atom  34C    basis set group =>   3
Atom  35C    basis set group =>   3
Atom  36C    basis set group =>   3
Atom  37C    basis set group =>   3
Atom  38C    basis set group =>   3
Atom  39H    basis set group =>   2
Atom  40H    basis set group =>   2
Atom  41H    basis set group =>   2
Atom  42H    basis set group =>   2
Atom  43H    basis set group =>   2
Atom  44C    basis set group =>   3
Atom  45C    basis set group =>   3
Atom  46C    basis set group =>   3
Atom  47C    basis set group =>   3
Atom  48C    basis set group =>   3
Atom  49C    basis set group =>   3
Atom  50H    basis set group =>   2
Atom  51H    basis set group =>   2
Atom  52H    basis set group =>   2
Atom  53H    basis set group =>   2
Atom  54H    basis set group =>   2
Atom  55C    basis set group =>   3
Atom  56C    basis set group =>   3
Atom  57C    basis set group =>   3
Atom  58C    basis set group =>   3
Atom  59C    basis set group =>   3
Atom  60C    basis set group =>   3
Atom  61H    basis set group =>   2
Atom  62H    basis set group =>   2
Atom  63H    basis set group =>   2
Atom  64H    basis set group =>   2
Atom  65H    basis set group =>   2
Atom  66C    basis set group =>   3
Atom  67C    basis set group =>   3
Atom  68C    basis set group =>   3
Atom  69C    basis set group =>   3
Atom  70C    basis set group =>   3
Atom  71C    basis set group =>   3
Atom  72H    basis set group =>   2
Atom  73H    basis set group =>   2
Atom  74H    basis set group =>   2
Atom  75H    basis set group =>   2
Atom  76H    basis set group =>   2
---------------------------------
AUXILIARY/J BASIS SET INFORMATION
---------------------------------
There are 4 groups of distinct atoms

 Group   1 Type N   : 12s5p4d2f1g contracted to 6s4p3d1f1g pattern {711111/2111/211/2/1}
 Group   2 Type H   : 5s2p1d contracted to 3s1p1d pattern {311/2/1}
 Group   3 Type C   : 12s5p4d2f1g contracted to 6s4p3d1f1g pattern {711111/2111/211/2/1}
 Group   4 Type Pt  : 11s5p5d3f3g contracted to 8s5p5d2f3g pattern {41111111/11111/11111/21/111}

Atom   0N    basis set group =>   1
Atom   1H    basis set group =>   2
Atom   2C    basis set group =>   3
Atom   3C    basis set group =>   3
Atom   4N    basis set group =>   1
Atom   5C    basis set group =>   3
Atom   6H    basis set group =>   2
Atom   7C    basis set group =>   3
Atom   8N    basis set group =>   1
Atom   9C    basis set group =>   3
Atom  10C    basis set group =>   3
Atom  11C    basis set group =>   3
Atom  12N    basis set group =>   1
Atom  13C    basis set group =>   3
Atom  14C    basis set group =>   3
Atom  15C    basis set group =>   3
Atom  16C    basis set group =>   3
Atom  17C    basis set group =>   3
Atom  18C    basis set group =>   3
Atom  19C    basis set group =>   3
Atom  20C    basis set group =>   3
Atom  21C    basis set group =>   3
Atom  22C    basis set group =>   3
Atom  23C    basis set group =>   3
Atom  24C    basis set group =>   3
Atom  25C    basis set group =>   3
Atom  26H    basis set group =>   2
Atom  27H    basis set group =>   2
Atom  28H    basis set group =>   2
Atom  29H    basis set group =>   2
Atom  30H    basis set group =>   2
Atom  31H    basis set group =>   2
Atom  32Pt   basis set group =>   4
Atom  33C    basis set group =>   3
Atom  34C    basis set group =>   3
Atom  35C    basis set group =>   3
Atom  36C    basis set group =>   3
Atom  37C    basis set group =>   3
Atom  38C    basis set group =>   3
Atom  39H    basis set group =>   2
Atom  40H    basis set group =>   2
Atom  41H    basis set group =>   2
Atom  42H    basis set group =>   2
Atom  43H    basis set group =>   2
Atom  44C    basis set group =>   3
Atom  45C    basis set group =>   3
Atom  46C    basis set group =>   3
Atom  47C    basis set group =>   3
Atom  48C    basis set group =>   3
Atom  49C    basis set group =>   3
Atom  50H    basis set group =>   2
Atom  51H    basis set group =>   2
Atom  52H    basis set group =>   2
Atom  53H    basis set group =>   2
Atom  54H    basis set group =>   2
Atom  55C    basis set group =>   3
Atom  56C    basis set group =>   3
Atom  57C    basis set group =>   3
Atom  58C    basis set group =>   3
Atom  59C    basis set group =>   3
Atom  60C    basis set group =>   3
Atom  61H    basis set group =>   2
Atom  62H    basis set group =>   2
Atom  63H    basis set group =>   2
Atom  64H    basis set group =>   2
Atom  65H    basis set group =>   2
Atom  66C    basis set group =>   3
Atom  67C    basis set group =>   3
Atom  68C    basis set group =>   3
Atom  69C    basis set group =>   3
Atom  70C    basis set group =>   3
Atom  71C    basis set group =>   3
Atom  72H    basis set group =>   2
Atom  73H    basis set group =>   2
Atom  74H    basis set group =>   2
Atom  75H    basis set group =>   2
Atom  76H    basis set group =>   2
-------------------------
ECP PARAMETER INFORMATION
-------------------------

 Group 1, Type Pt ECP Def2-ECP (replacing 60 core electrons, lmax=3)

Atom  32Pt   ECP group =>   1



           ************************************************************
           *        Program running with 8 parallel MPI-processes     *
           *              working on a common directory               *
           ************************************************************
------------------------------------------------------------------------------
                             ORCA STARTUP CALCULATIONS
                           -- RI-GTO INTEGRALS CHOSEN --
------------------------------------------------------------------------------
------------------------------------------------------------------------------
                   ___                                                        
                  /   \      - P O W E R E D   B Y -                         
                 /     \                                                     
                 |  |  |   _    _      __       _____    __    __             
                 |  |  |  | |  | |    /  \     |  _  \  |  |  /  |          
                  \  \/   | |  | |   /    \    | | | |  |  | /  /          
                 / \  \   | |__| |  /  /\  \   | |_| |  |  |/  /          
                |  |  |   |  __  | /  /__\  \  |    /   |      \           
                |  |  |   | |  | | |   __   |  |    \   |  |\   \          
                \     /   | |  | | |  |  |  |  | |\  \  |  | \   \       
                 \___/    |_|  |_| |__|  |__|  |_| \__\ |__|  \__/        
                                                                              
                      - O R C A' S   B I G   F R I E N D -                    
                                      &                                       
                       - I N T E G R A L  F E E D E R -                       
                                                                              
 v1 FN, 2020, v2 2021, v3 2022-2024                                           
------------------------------------------------------------------------------


----------------------
SHARK INTEGRAL PACKAGE
----------------------

Number of atoms                             ...     77
Number of basis functions                   ...   1696
Number of shells                            ...    654
Maximum angular momentum                    ...      3
Integral batch strategy                     ... SHARK/LIBINT Hybrid
RI-J (if used) integral strategy            ... SPLIT-RIJ (Revised 2003 algorithm where possible)
Printlevel                                  ...      1
Contraction scheme used                     ... SEGMENTED contraction
Prescreening option                         ... SCHWARTZ
   Thresh                                   ... 2.500e-11
   Tcut                                     ... 2.500e-12
   Tpresel                                  ... 2.500e-12 
Coulomb Range Separation                    ... NOT USED
Exchange Range Separation                   ... Long Range
   Mu parameter                             ... 2.500e-01
   Scaling (regular/separated)              ... 1.957e-01 8.043e-01
Robust (split-)RI terms used:
  metric    (central integrals)             ... YES
  density   (r.h.s.  integrals)             ... YES
  potential (l.h.s.  integrals)             ... YES
Multipole approximations                    ... NOT USED
Finite Nucleus Model                        ... NOT USED
CABS basis                                  ... NOT available
Auxiliary Coulomb fitting basis             ... AVAILABLE
   # of basis functions in Aux-J            ...   2749
   # of shells in Aux-J                     ...    883
   Maximum angular momentum in Aux-J        ...      4
Auxiliary J/K fitting basis                 ... NOT available
Auxiliary Correlation fitting basis         ... NOT available
Auxiliary 'external' fitting basis          ... NOT available

Checking pre-screening integrals            ... done (  0.0 sec) Dimension = 654
   => SHARK Basis and OBASIS are compatible. Storing Pre-screening
Shell pair information
Shell pair cut-off parameter TPreSel        ...   2.5e-12
Total number of shell pairs                 ...    214185
Shell pairs after pre-screening             ...    104262
Total number of primitive shell pairs       ...    662980
Primitive shell pairs kept                  ...    199011
          la=0 lb=0:  24757 shell pairs
          la=1 lb=0:  30544 shell pairs
          la=1 lb=1:   9329 shell pairs
          la=2 lb=0:  14788 shell pairs
          la=2 lb=1:   9305 shell pairs
          la=2 lb=2:   2246 shell pairs
          la=3 lb=0:   6688 shell pairs
          la=3 lb=1:   4243 shell pairs
          la=3 lb=2:   1903 shell pairs
          la=3 lb=3:    459 shell pairs

Checking whether 4 symmetric matrices of dimension 1696 fit in memory
:Max Core in MB      =   3000.00
 MB in use           =    127.03
 MB left             =   2872.97
 MB needed           =     43.92
 Data fit in memory  = YES
Calculating RI/J V-Matrix + Cholesky decomp.... done (  5.4 sec)
Calculating Nuclear repulsion               ... done (  0.0 sec) ENN=   6002.797249912694 Eh

Diagonalization of the overlap matrix:
Smallest eigenvalue                        ... 2.861e-06
Time for diagonalization                   ...    0.843 sec
Threshold for overlap eigenvalues          ... 1.000e-07
Number of eigenvalues below threshold      ... 0
Time for construction of square roots      ...    1.617 sec
Total time needed                          ...    2.543 sec

-------------------
DFT GRID GENERATION
-------------------

General Integration Accuracy     IntAcc      ... 4.959
Radial Grid Type                 RadialGrid  ... OptM3 with GC (2021)
Angular Grid (max. ang.)         AngularGrid ... 6 (Lebedev-590)
Angular grid pruning method      GridPruning ... 4 (adaptive)
Weight generation scheme         WeightScheme... mBecke (2022)
Basis function cutoff            BFCut       ... 1.0000e-11
Integration weight cutoff        WCut        ... 1.0000e-14
Partially contracted basis set               ... off
Rotationally invariant grid construction     ... off
Angular grids for H and He will be reduced by one unit

Total number of grid points                  ...   932047
Total number of batches                      ...    14605
Average number of points per batch           ...       63
Average number of grid points per atom       ...    12105

--------------------
COSX GRID GENERATION
--------------------

GRIDX 1
-------
General Integration Accuracy     IntAcc      ... 4.020
Radial Grid Type                 RadialGrid  ... OptM3 with GC (2021)
Angular Grid (max. ang.)         AngularGrid ... 2 (Lebedev-110)
Angular grid pruning method      GridPruning ... 4 (adaptive)
Weight generation scheme         WeightScheme... mBecke (2022)
Basis function cutoff            BFCut       ... 1.0000e-11
Integration weight cutoff        WCut        ... 1.0000e-14
Partially contracted basis set               ... on
Rotationally invariant grid construction     ... off
Angular grids for H and He will be reduced by one unit

Total number of grid points                  ...   108589
Total number of batches                      ...      893
Average number of points per batch           ...      121
Average number of grid points per atom       ...     1410
UseSFitting                                  ... on

GRIDX 2
-------
General Integration Accuracy     IntAcc      ... 4.338
Radial Grid Type                 RadialGrid  ... OptM3 with GC (2021)
Angular Grid (max. ang.)         AngularGrid ... 3 (Lebedev-194)
Angular grid pruning method      GridPruning ... 4 (adaptive)
Weight generation scheme         WeightScheme... mBecke (2022)
Basis function cutoff            BFCut       ... 1.0000e-11
Integration weight cutoff        WCut        ... 1.0000e-14
Partially contracted basis set               ... on
Rotationally invariant grid construction     ... off
Angular grids for H and He will be reduced by one unit

Total number of grid points                  ...   230812
Total number of batches                      ...     1840
Average number of points per batch           ...      125
Average number of grid points per atom       ...     2998
UseSFitting                                  ... on

GRIDX 3
-------
General Integration Accuracy     IntAcc      ... 4.871
Radial Grid Type                 RadialGrid  ... OptM3 with GC (2021)
Angular Grid (max. ang.)         AngularGrid ... 4 (Lebedev-302)
Angular grid pruning method      GridPruning ... 4 (adaptive)
Weight generation scheme         WeightScheme... mBecke (2022)
Basis function cutoff            BFCut       ... 1.0000e-11
Integration weight cutoff        WCut        ... 1.0000e-14
Partially contracted basis set               ... on
Rotationally invariant grid construction     ... off
Angular grids for H and He will be reduced by one unit

Total number of grid points                  ...   423146
Total number of batches                      ...     3346
Average number of points per batch           ...      126
Average number of grid points per atom       ...     5495
UseSFitting                                  ... on
Grids setup in  58.6 sec
Initializing property integral containers    ... done (  0.0 sec)

SHARK setup successfully completed in  79.5 seconds

Maximum memory used throughout the entire STARTUP-calculation: 305.1 MB


           ************************************************************
           *        Program running with 8 parallel MPI-processes     *
           *              working on a common directory               *
           ************************************************************
-------------------------------------------------------------------------------
                                 ORCA GUESS
                   Start orbitals & Density for SCF / CASSCF
-------------------------------------------------------------------------------

------------
SCF SETTINGS
------------
Hamiltonian:
 Density Functional     Method          .... DFT(GTOs)
 Exchange Functional    Exchange        .... WB97X-D3
 Correlation Functional Correlation     .... WB97X-D3
 Gradients option       PostSCFGGA      .... off
 Hybrid DFT is turned on
   Fraction HF Exchange ScalHFX         ....  0.195728
   Scaling of DF-GGA-X  ScalDFX         ....  0.000000
   Scaling of DF-GGA-C  ScalDFC         ....  1.000000
   Scaling of DF-LDA-C  ScalLDAC        ....  1.000000
   Perturbative correction              ....  0.000000
 Long-range corrected/Screened/Range-Separated Hybrid DFT is turned on
   Amount of maximum screened exact exchange              ....  0.804272
   Range separation parameter mu (erf(mu*r12)/r12)        ....  0.250000
 RI-approximation to the Coulomb term is turned on
   Number of AuxJ basis functions       .... 2749
   RIJ-COSX (HFX calculated with COS-X)).... on


General Settings:
 Integral files         IntName         .... tddft
 Hartree-Fock type      HFTyp           .... RHF
 Total Charge           Charge          ....    0
 Multiplicity           Mult            ....    1
 Number of Electrons    NEL             ....  338
 Basis Dimension        Dim             .... 1696
 Nuclear Repulsion      ENuc            ....   6002.7972499127 Eh

Convergence Acceleration:
 AO-DIIS                CNVDIIS         .... on
   Start iteration      DIISMaxIt       ....    12
   Startup error        DIISStart       ....  0.200000
   # of expansion vecs  DIISMaxEq       ....     5
   Bias factor          DIISBfac        ....   1.050
   Max. coefficient     DIISMaxC        ....  10.000
 MO-DIIS                CNVKDIIS        .... off
 Trust-Rad. Augm. Hess. CNVTRAH         .... auto
   Auto Start mean grad. ratio tolernc. ....  1.125000
   Auto Start start iteration           ....    50
   Auto Start num. interpolation iter.  ....    10
   Max. Number of Micro iterations      ....    24
   Max. Number of Macro iterations      .... Maxiter - #DIIS iter
   Number of Davidson start vectors     ....     2
   Converg. threshold    (grad. norm)   ....   1.000e-05
   Grad. Scal. Fac. for Micro threshold ....   0.100
   Minimum threshold for Micro iter.    ....   1.000e-02
   NR start threshold (gradient norm)   ....   1.000e-04
   Initial trust radius                 ....   0.400
   Minimum AH scaling param. (alpha)    ....   1.000
   Maximum AH scaling param. (alpha)    .... 1000.000
   Quad. conv. algorithm                .... NR
   White noise on init. David. guess    .... on
   Maximum white noise                  ....   0.010
   Pseudo random numbers                .... off
   Inactive MOs                         .... canonical
   Orbital update algorithm             .... Taylor
   Preconditioner                       .... Diag
   Full preconditioner red. dimension   ....   250
 SOSCF                 CNVSOSCF           .... on
   Start iteration     SOSCFMaxIt         ....   150
   Startup grad/error  SOSCFStart         ....  0.003300
   Hessian update      SOSCFHessUp        .... L-BFGS
   Autom. constraints  SOSCFAutoConstrain .... off
 Level Shifting         CNVShift        .... on
   Level shift para.    LevelShift      ....    0.2500
   Turn off err/grad.   ShiftErr        ....    0.0010
 Zerner damping         CNVZerner       .... off
 Static damping         CNVDamp         .... on
   Fraction old density DampFac         ....    0.7000
   Max. Damping (<1)    DampMax         ....    0.9800
   Min. Damping (>=0)   DampMin         ....    0.0000
   Turn off err/grad.   DampErr         ....    0.1000

SCF Procedure:
 Maximum # iterations   MaxIter         ....   125
 SCF integral mode      SCFMode         .... Direct
   Integral package                     .... SHARK and LIBINT hybrid scheme
 Reset frequency        DirectResetFreq ....    20
 Integral Threshold     Thresh          ....  2.500e-11 Eh
 Primitive CutOff       TCut            ....  2.500e-12 Eh

Convergence Tolerance:
 Convergence Check Mode ConvCheckMode   .... Total+1el-Energy
 Convergence forced     ConvForced      .... 1
 Energy Change          TolE            ....  1.000e-08 Eh
 1-El. energy change                    ....  1.000e-05 Eh
 Orbital Gradient       TolG            ....  1.000e-05
 Orbital Rotation angle TolX            ....  1.000e-05
 DIIS Error             TolErr          ....  5.000e-07

------------------------------
INITIAL GUESS: MODEL POTENTIAL
------------------------------
Loading Hartree-Fock densities                     ... done
Atomic calculation to generate a density for atom 32 (Pt with ECP)
  Multiplicity assumed   :    3
  Atomic configuration   : 1s2 2s2 2p6 3s2 3p6 4s2 3d10 4p6 5s2 4d10 5p6 6s2 4f14 5d8 
  Number of open shells  : 1
  Command: /opt/orca/orca tddft_atom78.inp "" > tddft_atom78.out
Returned from the atomic calculation with res=0
Calculating cut-offs                               ... done
Initializing the effective Hamiltonian             ... done
Setting up the integral package (SHARK)            ... done
Starting the Coulomb interaction                   ... done (   9.8 sec)
Making the grid                                    ... done (   3.9 sec)
Mapping shells                                     ... done
Starting the XC term evaluation                    ... done (   3.6 sec)
  promolecular density results
     # of electrons  =    397.982530950
     EX              =   -616.975643218
     EC              =    -15.584798733
     EX+EC           =   -632.560441951
Transforming the Hamiltonian                       ... done (   0.5 sec)
Diagonalizing the Hamiltonian                      ... done (   0.8 sec)
Back transforming the eigenvectors                 ... done (   0.3 sec)
Now organizing SCF variables                       ... done
                      ------------------
                      INITIAL GUESS DONE (  25.1 sec)
                      ------------------
             **** ENERGY FILE WAS UPDATED (tddft.en.tmp) ****
Finished Guess after  33.7 sec
Maximum memory used throughout the entire GUESS-calculation: 206.5 MB


           ************************************************************
           *        Program running with 8 parallel MPI-processes     *
           *              working on a common directory               *
           ************************************************************

-------------------------------------------------------------------------------------------
                                      ORCA LEAN-SCF
                              memory conserving SCF solver
-------------------------------------------------------------------------------------------

--------------------
CPCM SOLVATION MODEL
--------------------
CPCM parameters:
  Epsilon                                         ...       2.3870
  Refrac                                          ...       1.4961
  Rsolv                                           ...       1.3000
  Surface type                                    ... GAUSSIAN VDW
  Discretization scheme                           ... Constant charge density
    Threshold for H atoms                         ...       5.0000 (charges/Ang^2)
    Threshold for non-H atoms                     ...       5.0000 (charges/Ang^2)
  Epsilon function type                           ...         CPCM
Solvent:                                          ... TOLUENE
Radii:
  Scheme                                          ... Element-dependent radii
  Radius for N  used is    3.5149 Bohr (=   1.8600 Ang.)
  Radius for H  used is    2.4944 Bohr (=   1.3200 Ang.)
  Radius for C  used is    3.8550 Bohr (=   2.0400 Ang.)
  Radius for Pt used is    3.9004 Bohr (=   2.0640 Ang.)
Calculating surface                               ...        done! (  0.1s)
Cavity surface points                             ...         6828
Cavity Volume                                     ...    4942.1642
Cavity Surface-area                               ...    2293.1756
Calculating surface distance matrix               ...        done! (  2.4s)
Performing Cholesky decomposition & store         ...        done! ( 11.0s)
Overall time for CPCM initialization              ...                13.4s

----------------------------------------D-I-I-S--------------------------------------------
Iteration    Energy (Eh)           Delta-E    RMSDP     MaxDP     DIISErr   Damp  Time(sec)
-------------------------------------------------------------------------------------------
               ***  Starting incremental Fock matrix formation  ***
    1    -2031.2473833699332317     0.00e+00  4.43e-03  2.70e-01  5.43e-01  0.700 572.1
    2    -2031.5843194724666319    -3.37e-01  3.18e-03  1.91e-01  3.80e-01  0.700 259.4
    3    -2031.7748583445500117    -1.91e-01  2.13e-03  1.30e-01  2.65e-01  0.700 244.1
                               ***Turning on AO-DIIS***
    4    -2031.8904499230056899    -1.16e-01  1.38e-03  8.38e-02  1.85e-01  0.700 199.4
    5    -2031.9676544783296777    -7.72e-02  9.43e-04  5.53e-02  1.30e-01  0.700 181.3
    6    -2032.0207585570287847    -5.31e-02  6.59e-04  3.96e-02  9.09e-02  0.700 165.5
    7    -2032.0577652871688770    -3.70e-02  1.55e-03  9.47e-02  6.38e-02  0.000 178.4
                              *** Initializing SOSCF ***
---------------------------------------S-O-S-C-F--------------------------------------
Iteration    Energy (Eh)           Delta-E    RMSDP     MaxDP     MaxGrad    Time(sec)
--------------------------------------------------------------------------------------
    8    -2032.1438301003663582    -8.61e-02  8.02e-05  5.63e-03  1.14e-03   233.6
               *** Restarting incremental Fock matrix formation ***
    9    -2032.1438812822170803    -5.12e-05  2.08e-04  6.03e-03  8.31e-04   557.1
   10    -2032.1439105453982847    -2.93e-05  1.29e-04  5.15e-03  5.21e-04   372.9
   11    -2032.1439170498233580    -6.50e-06  1.11e-04  2.71e-03  4.89e-04   328.5
   12    -2032.1439207003586489    -3.65e-06  1.93e-05  5.28e-04  6.86e-05   295.3
   13    -2032.1439206881659629     1.22e-08  1.80e-05  6.83e-04  4.44e-05   314.3
   14    -2032.1439209118007057    -2.24e-07  2.05e-05  5.73e-04  1.10e-05   302.3
   15    -2032.1439209943537207    -8.26e-08  2.27e-05  8.23e-04  8.49e-06   284.1
   16    -2032.1439209621603368     3.22e-08  2.16e-05  1.20e-03  1.93e-06   279.5
                  *** Gradient check signals convergence ***

               *****************************************************
               *                     SUCCESS                       *
               *           SCF CONVERGED AFTER  16 CYCLES          *
               *****************************************************

Recomputing exchange energy using gridx3       ... done (  770.120 sec)
Old exchange energy                            :    -90.026631749 Eh
New exchange energy                            :    -90.026627623 Eh
Exchange energy change after final integration :      0.000004127 Eh
Total energy after final integration           :  -2032.143916916 Eh
             **** ENERGY FILE WAS UPDATED (tddft.en.tmp) ****

----------------
TOTAL SCF ENERGY
----------------

Total Energy       :      -2032.14391691630294 Eh          -55297.44725 eV

Components:
Nuclear Repulsion  :       6002.79724991269450 Eh          163344.41744 eV
Electronic Energy  :      -8034.92856719465999 Eh         -218641.52183 eV
One Electron Energy:     -14753.84469326072031 Eh         -401472.52457 eV
Two Electron Energy:       6718.91612606606031 Eh          182831.00274 eV
CPCM Dielectric    :         -0.01260376091801 Eh              -0.34297 eV

Virial components:
Potential Energy   :      -3976.17205782445035 Eh         -108197.14233 eV
Kinetic Energy     :       1944.02814090814741 Eh           52899.69508 eV
Virial Ratio       :          2.04532638913704

DFT components:
N(Alpha)           :      168.999987762613 electrons
N(Beta)            :      168.999987762613 electrons
N(Total)           :      337.999975525225 electrons
E(XC)              :     -198.581908512097 Eh       

CPCM Solvation Model Properties:
Surface-charge          :         -0.04855356939982
Corrected charge        :         -0.00000000000000
Outlying charge corr.   :          0.00005376107325 Eh               0.00146 eV
Free-energy (cav+disp)  :  This term is not implemented in the current solvation scheme

---------------
SCF CONVERGENCE
---------------

  Last Energy change         ...   -3.2193e-08  Tolerance :   1.0000e-08
  Last MAX-Density change    ...    1.1974e-03  Tolerance :   1.0000e-07
  Last RMS-Density change    ...    2.1592e-05  Tolerance :   5.0000e-09
  Last DIIS Error            ...    1.1422e-03  Tolerance :   5.0000e-07
  Last Orbital Gradient      ...    1.9330e-06  Tolerance :   1.0000e-05
  Last Orbital Rotation      ...    3.9585e-06  Tolerance :   1.0000e-05


----------------
ORBITAL ENERGIES
----------------

  NO   OCC          E(Eh)            E(eV) 
   0   2.0000     -14.456412      -393.3790 
   1   2.0000     -14.456408      -393.3788 
   2   2.0000     -14.456403      -393.3787 
   3   2.0000     -14.456401      -393.3787 
   4   2.0000     -10.321069      -280.8506 
   5   2.0000     -10.321059      -280.8503 
   6   2.0000     -10.321055      -280.8502 
   7   2.0000     -10.321046      -280.8499 
   8   2.0000     -10.321022      -280.8493 
   9   2.0000     -10.321019      -280.8492 
  10   2.0000     -10.321011      -280.8490 
  11   2.0000     -10.321010      -280.8490 
  12   2.0000     -10.306844      -280.4635 
  13   2.0000     -10.306822      -280.4629 
  14   2.0000     -10.306812      -280.4626 
  15   2.0000     -10.306809      -280.4625 
  16   2.0000     -10.298539      -280.2375 
  17   2.0000     -10.298528      -280.2372 
  18   2.0000     -10.298524      -280.2371 
  19   2.0000     -10.298523      -280.2370 
  20   2.0000     -10.284651      -279.8596 
  21   2.0000     -10.284649      -279.8595 
  22   2.0000     -10.284645      -279.8594 
  23   2.0000     -10.284639      -279.8593 
  24   2.0000     -10.284614      -279.8586 
  25   2.0000     -10.284612      -279.8585 
  26   2.0000     -10.284612      -279.8585 
  27   2.0000     -10.284605      -279.8583 
  28   2.0000     -10.284169      -279.8465 
  29   2.0000     -10.284167      -279.8464 
  30   2.0000     -10.284166      -279.8464 
  31   2.0000     -10.284160      -279.8462 
  32   2.0000     -10.284003      -279.8419 
  33   2.0000     -10.284001      -279.8419 
  34   2.0000     -10.283999      -279.8418 
  35   2.0000     -10.283993      -279.8417 
  36   2.0000     -10.283424      -279.8262 
  37   2.0000     -10.283423      -279.8262 
  38   2.0000     -10.283423      -279.8262 
  39   2.0000     -10.283417      -279.8260 
  40   2.0000     -10.280859      -279.7564 
  41   2.0000     -10.280852      -279.7562 
  42   2.0000     -10.280852      -279.7562 
  43   2.0000     -10.280850      -279.7562 
  44   2.0000     -10.280086      -279.7354 
  45   2.0000     -10.280080      -279.7352 
  46   2.0000     -10.280079      -279.7352 
  47   2.0000     -10.280078      -279.7351 
  48   2.0000      -4.053896      -110.3121 
  49   2.0000      -2.302795       -62.6622 
  50   2.0000      -2.302793       -62.6622 
  51   2.0000      -2.264522       -61.6208 
  52   2.0000      -1.100516       -29.9466 
  53   2.0000      -1.088695       -29.6249 
  54   2.0000      -1.088692       -29.6248 
  55   2.0000      -1.080388       -29.3989 
  56   2.0000      -0.993370       -27.0310 
  57   2.0000      -0.988767       -26.9057 
  58   2.0000      -0.988764       -26.9056 
  59   2.0000      -0.986877       -26.8543 
  60   2.0000      -0.950417       -25.8622 
  61   2.0000      -0.931817       -25.3560 
  62   2.0000      -0.931815       -25.3560 
  63   2.0000      -0.913882       -24.8680 
  64   2.0000      -0.894798       -24.3487 
  65   2.0000      -0.893320       -24.3085 
  66   2.0000      -0.893319       -24.3084 
  67   2.0000      -0.891202       -24.2508 
  68   2.0000      -0.867431       -23.6040 
  69   2.0000      -0.867420       -23.6037 
  70   2.0000      -0.867417       -23.6036 
  71   2.0000      -0.867415       -23.6036 
  72   2.0000      -0.862999       -23.4834 
  73   2.0000      -0.855965       -23.2920 
  74   2.0000      -0.855953       -23.2917 
  75   2.0000      -0.841317       -22.8934 
  76   2.0000      -0.830292       -22.5934 
  77   2.0000      -0.778465       -21.1831 
  78   2.0000      -0.778460       -21.1830 
  79   2.0000      -0.736231       -20.0339 
  80   2.0000      -0.719851       -19.5882 
  81   2.0000      -0.719784       -19.5863 
  82   2.0000      -0.719747       -19.5853 
  83   2.0000      -0.719722       -19.5846 
  84   2.0000      -0.716538       -19.4980 
  85   2.0000      -0.716455       -19.4957 
  86   2.0000      -0.710368       -19.3301 
  87   2.0000      -0.707524       -19.2527 
  88   2.0000      -0.701013       -19.0755 
  89   2.0000      -0.676992       -18.4219 
  90   2.0000      -0.676987       -18.4217 
  91   2.0000      -0.671882       -18.2828 
  92   2.0000      -0.666717       -18.1423 
  93   2.0000      -0.661411       -17.9979 
  94   2.0000      -0.647362       -17.6156 
  95   2.0000      -0.639653       -17.4058 
  96   2.0000      -0.639645       -17.4056 
  97   2.0000      -0.630214       -17.1490 
  98   2.0000      -0.626754       -17.0548 
  99   2.0000      -0.626736       -17.0544 
 100   2.0000      -0.610846       -16.6220 
 101   2.0000      -0.598590       -16.2885 
 102   2.0000      -0.598560       -16.2876 
 103   2.0000      -0.568391       -15.4667 
 104   2.0000      -0.567389       -15.4394 
 105   2.0000      -0.564478       -15.3602 
 106   2.0000      -0.564467       -15.3599 
 107   2.0000      -0.560893       -15.2627 
 108   2.0000      -0.555785       -15.1237 
 109   2.0000      -0.555777       -15.1235 
 110   2.0000      -0.553491       -15.0613 
 111   2.0000      -0.553303       -15.0561 
 112   2.0000      -0.538223       -14.6458 
 113   2.0000      -0.533889       -14.5279 
 114   2.0000      -0.533884       -14.5277 
 115   2.0000      -0.531148       -14.4533 
 116   2.0000      -0.527313       -14.3489 
 117   2.0000      -0.527123       -14.3437 
 118   2.0000      -0.524399       -14.2696 
 119   2.0000      -0.524392       -14.2694 
 120   2.0000      -0.521759       -14.1978 
 121   2.0000      -0.521142       -14.1810 
 122   2.0000      -0.521141       -14.1810 
 123   2.0000      -0.521056       -14.1787 
 124   2.0000      -0.513059       -13.9611 
 125   2.0000      -0.511623       -13.9220 
 126   2.0000      -0.509037       -13.8516 
 127   2.0000      -0.504233       -13.7209 
 128   2.0000      -0.504224       -13.7206 
 129   2.0000      -0.499177       -13.5833 
 130   2.0000      -0.487523       -13.2662 
 131   2.0000      -0.480551       -13.0764 
 132   2.0000      -0.480545       -13.0763 
 133   2.0000      -0.478361       -13.0169 
 134   2.0000      -0.468956       -12.7610 
 135   2.0000      -0.468953       -12.7609 
 136   2.0000      -0.464817       -12.6483 
 137   2.0000      -0.455351       -12.3907 
 138   2.0000      -0.446704       -12.1554 
 139   2.0000      -0.445956       -12.1351 
 140   2.0000      -0.442547       -12.0423 
 141   2.0000      -0.442537       -12.0420 
 142   2.0000      -0.441642       -12.0177 
 143   2.0000      -0.441622       -12.0171 
 144   2.0000      -0.440413       -11.9842 
 145   2.0000      -0.438683       -11.9372 
 146   2.0000      -0.422487       -11.4964 
 147   2.0000      -0.422468       -11.4959 
 148   2.0000      -0.418566       -11.3898 
 149   2.0000      -0.402045       -10.9402 
 150   2.0000      -0.402030       -10.9398 
 151   2.0000      -0.376653       -10.2492 
 152   2.0000      -0.376531       -10.2459 
 153   2.0000      -0.374956       -10.2031 
 154   2.0000      -0.365137        -9.9359 
 155   2.0000      -0.354431        -9.6445 
 156   2.0000      -0.348146        -9.4735 
 157   2.0000      -0.346151        -9.4192 
 158   2.0000      -0.346080        -9.4173 
 159   2.0000      -0.344911        -9.3855 
 160   2.0000      -0.343495        -9.3470 
 161   2.0000      -0.343459        -9.3460 
 162   2.0000      -0.343014        -9.3339 
 163   2.0000      -0.341332        -9.2881 
 164   2.0000      -0.336115        -9.1461 
 165   2.0000      -0.305115        -8.3026 
 166   2.0000      -0.305111        -8.3025 
 167   2.0000      -0.266295        -7.2463 
 168   2.0000      -0.264585        -7.1997 
 169   0.0000      -0.040113        -1.0915 
 170   0.0000      -0.040085        -1.0908 
 171   0.0000       0.039179         1.0661 
 172   0.0000       0.055421         1.5081 
 173   0.0000       0.056717         1.5434 
 174   0.0000       0.056738         1.5439 
 175   0.0000       0.056755         1.5444 
 176   0.0000       0.058180         1.5832 
 177   0.0000       0.058504         1.5920 
 178   0.0000       0.059892         1.6298 
 179   0.0000       0.059938         1.6310 
*Only the first 10 virtual orbitals were printed.

                    ********************************
                    * MULLIKEN POPULATION ANALYSIS *
                    ********************************

-----------------------
MULLIKEN ATOMIC CHARGES
-----------------------
   0 N :   -0.269630
   1 H :    0.179733
   2 C :   -0.258117
   3 C :   -0.257611
   4 N :   -0.269780
   5 C :   -0.258460
   6 H :    0.179975
   7 C :    0.200871
   8 N :   -0.269731
   9 C :   -0.258100
  10 C :    0.112574
  11 C :    0.200855
  12 N :   -0.269572
  13 C :   -0.257550
  14 C :    0.200678
  15 C :    0.203314
  16 C :    0.201568
  17 C :    0.201226
  18 C :   -0.257485
  19 C :    0.114800
  20 C :    0.113866
  21 C :   -0.257845
  22 C :    0.201417
  23 C :   -0.257757
  24 C :    0.115123
  25 C :    0.201068
  26 H :    0.179669
  27 H :    0.179926
  28 H :    0.179705
  29 H :    0.180001
  30 H :    0.179939
  31 H :    0.179844
  32 Pt:    0.256729
  33 C :   -0.084582
  34 C :   -0.184241
  35 C :   -0.160753
  36 C :   -0.115146
  37 C :   -0.160972
  38 C :   -0.184334
  39 H :    0.150876
  40 H :    0.143727
  41 H :    0.145857
  42 H :    0.143863
  43 H :    0.150938
  44 C :   -0.083681
  45 C :   -0.185665
  46 C :   -0.160251
  47 C :   -0.115425
  48 C :   -0.160336
  49 C :   -0.185900
  50 H :    0.151025
  51 H :    0.143810
  52 H :    0.145871
  53 H :    0.143875
  54 H :    0.150975
  55 C :   -0.084573
  56 C :   -0.184261
  57 C :   -0.161152
  58 C :   -0.115130
  59 C :   -0.160814
  60 C :   -0.184303
  61 H :    0.150978
  62 H :    0.143877
  63 H :    0.145876
  64 H :    0.143788
  65 H :    0.150885
  66 C :   -0.082152
  67 C :   -0.187484
  68 C :   -0.159549
  69 C :   -0.115874
  70 C :   -0.159575
  71 C :   -0.187135
  72 H :    0.151057
  73 H :    0.143887
  74 H :    0.145893
  75 H :    0.143863
  76 H :    0.151126
Sum of atomic charges:   -0.0000000

--------------------------------
MULLIKEN REDUCED ORBITAL CHARGES
--------------------------------
  0 N s       :     3.603110  s :     3.603110
      pz      :     1.388126  p :     3.574529
      px      :     1.121003
      py      :     1.065400
      dz2     :     0.006277  d :     0.087561
      dxz     :     0.014473
      dyz     :     0.015956
      dx2y2   :     0.023398
      dxy     :     0.027456
      f0      :     0.000781  f :     0.004429
      f+1     :     0.000507
      f-1     :     0.000483
      f+2     :     0.000290
      f-2     :     0.000607
      f+3     :     0.000654
      f-3     :     0.001108

  1 H s       :     0.797774  s :     0.797774
      pz      :     0.004561  p :     0.022493
      px      :     0.008701
      py      :     0.009231

  2 C s       :     3.251582  s :     3.251582
      pz      :     0.986958  p :     2.912783
      px      :     0.943575
      py      :     0.982251
      dz2     :     0.005640  d :     0.085959
      dxz     :     0.009692
      dyz     :     0.020013
      dx2y2   :     0.019645
      dxy     :     0.030970
      f0      :     0.001531  f :     0.007793
      f+1     :     0.000791
      f-1     :     0.000674
      f+2     :     0.000939
      f-2     :     0.000438
      f+3     :     0.002263
      f-3     :     0.001158

  3 C s       :     3.250400  s :     3.250400
      pz      :     0.986912  p :     2.913451
      px      :     0.982219
      py      :     0.944320
      dz2     :     0.005246  d :     0.085965
      dxz     :     0.020601
      dyz     :     0.009551
      dx2y2   :     0.019564
      dxy     :     0.031003
      f0      :     0.001569  f :     0.007794
      f+1     :     0.000585
      f-1     :     0.000806
      f+2     :     0.000989
      f-2     :     0.000435
      f+3     :     0.001134
      f-3     :     0.002276

  4 N s       :     3.603297  s :     3.603297
      pz      :     1.388543  p :     3.574499
      px      :     1.062589
      py      :     1.123367
      dz2     :     0.006224  d :     0.087555
      dxz     :     0.016258
      dyz     :     0.014243
      dx2y2   :     0.023369
      dxy     :     0.027462
      f0      :     0.000786  f :     0.004429
      f+1     :     0.000470
      f-1     :     0.000516
      f+2     :     0.000286
      f-2     :     0.000608
      f+3     :     0.001112
      f-3     :     0.000652

  5 C s       :     3.251720  s :     3.251720
      pz      :     0.986802  p :     2.912986
      px      :     0.998108
      py      :     0.928077
      dz2     :     0.005436  d :     0.085961
      dxz     :     0.018355
      dyz     :     0.011569
      dx2y2   :     0.021367
      dxy     :     0.029235
      f0      :     0.001558  f :     0.007794
      f+1     :     0.000629
      f-1     :     0.000785
      f+2     :     0.001271
      f-2     :     0.000136
      f+3     :     0.001244
      f-3     :     0.002172

  6 H s       :     0.797528  s :     0.797528
      pz      :     0.004616  p :     0.022497
      px      :     0.006928
      py      :     0.010954

  7 C s       :     3.167892  s :     3.167892
      pz      :     0.939980  p :     2.464018
      px      :     0.868533
      py      :     0.655505
      dz2     :     0.004785  d :     0.152743
      dxz     :     0.029438
      dyz     :     0.035553
      dx2y2   :     0.041231
      dxy     :     0.041736
      f0      :     0.002279  f :     0.014476
      f+1     :     0.000980
      f-1     :     0.001159
      f+2     :     0.000725
      f-2     :     0.002326
      f+3     :     0.003514
      f-3     :     0.003492

  8 N s       :     3.603210  s :     3.603210
      pz      :     1.388608  p :     3.574539
      px      :     1.062602
      py      :     1.123329
      dz2     :     0.006227  d :     0.087553
      dxz     :     0.016260
      dyz     :     0.014243
      dx2y2   :     0.023367
      dxy     :     0.027456
      f0      :     0.000785  f :     0.004429
      f+1     :     0.000470
      f-1     :     0.000516
      f+2     :     0.000286
      f-2     :     0.000608
      f+3     :     0.001112
      f-3     :     0.000652

  9 C s       :     3.250952  s :     3.250952
      pz      :     0.986784  p :     2.913399
      px      :     0.998319
      py      :     0.928296
      dz2     :     0.005451  d :     0.085955
      dxz     :     0.018357
      dyz     :     0.011560
      dx2y2   :     0.021365
      dxy     :     0.029222
      f0      :     0.001556  f :     0.007794
      f+1     :     0.000628
      f-1     :     0.000787
      f+2     :     0.001271
      f-2     :     0.000138
      f+3     :     0.001244
      f-3     :     0.002172

 10 C s       :     3.351941  s :     3.351941
      pz      :     0.963456  p :     2.400481
[...]
  0-1A  -> 16-1A    4.950156   39925.7   250.5   0.000000613   0.00000   0.00010  -0.00011  -0.00038
  0-1A  -> 17-1A    4.984250   40200.7   248.8   0.000000191   0.00000  -0.00020   0.00012  -0.00000
  0-1A  -> 18-1A    4.984643   40203.9   248.7   0.000000090   0.00000   0.00015   0.00003  -0.00000
  0-1A  -> 19-1A    5.046726   40704.6   245.7   0.000002499   0.00000  -0.00048  -0.00066   0.00018
  0-1A  -> 20-1A    5.233949   42214.7   236.9   0.000182719   0.00005  -0.00549  -0.00472   0.00054
  0-1A  -> 21-1A    5.237432   42242.7   236.7   0.000049492   0.00001  -0.00157   0.00343  -0.00029
  0-1A  -> 22-1A    5.239645   42260.6   236.6   0.001097286   0.00032   0.01301   0.01208  -0.00136
  0-1A  -> 23-1A    5.273449   42533.2   235.1   0.001776490   0.00052  -0.01237  -0.01896   0.00196
  0-1A  -> 24-1A    5.279052   42578.4   234.9   0.000218999   0.00006   0.00625   0.00493  -0.00059
  0-1A  -> 25-1A    5.353415   43178.2   231.6   0.198569191   0.05860   0.18932  -0.15053   0.00980
  0-1A  -> 26-1A    5.353672   43180.3   231.6   0.196239664   0.05791   0.14989   0.18715  -0.02051
  0-1A  -> 27-1A    5.384439   43428.4   230.3   0.000007148   0.00000  -0.00074   0.00073   0.00102
  0-1A  -> 28-1A    5.402984   43578.0   229.5   0.000563563   0.00017   0.00191  -0.00310  -0.01243
  0-1A  -> 29-1A    5.404076   43586.8   229.4   0.000994807   0.00030   0.00022   0.00090   0.01719
  0-1A  -> 30-1A    5.409213   43628.3   229.2   0.000001120   0.00000  -0.00012  -0.00009  -0.00056

------------------------------------------------------------------------------------------
                     CD SPECTRUM VIA TRANSITION ELECTRIC DIPOLE MOMENTS    
------------------------------------------------------------------------------------------
     Transition      Energy     Energy  Wavelength    R        MX        MY        MZ   
                      (eV)      (cm-1)    (nm)   (1e40*cgs)   (au)      (au)      (au)  
------------------------------------------------------------------------------------------
  0-1A  ->  1-1A    2.376208   19165.4   521.8   -0.01561  -0.00017  -0.00008   0.00004
  0-1A  ->  2-1A    2.376464   19167.5   521.7    0.03719  -0.00025   0.00027  -0.00002
  0-1A  ->  3-1A    3.191658   25742.5   388.5    0.04145   0.02168   0.11564   1.21755
  0-1A  ->  4-1A    3.284143   26488.4   377.5   -0.00081  -0.00026  -0.00043   0.00035
  0-1A  ->  5-1A    3.364419   27135.9   368.5   -1.26227  -0.00054  -0.00027  -0.00006
  0-1A  ->  6-1A    3.364725   27138.3   368.5    0.91157   0.00031  -0.00028   0.00014
  0-1A  ->  7-1A    3.407322   27481.9   363.9    0.00188  -0.00086   0.00087  -0.00025
  0-1A  ->  8-1A    3.815695   30775.7   324.9    0.00001  -0.00004   0.00020   0.00008
  0-1A  ->  9-1A    3.918426   31604.2   316.4   -0.02902   0.08417  -0.04201   0.00101
  0-1A  -> 10-1A    3.918505   31604.9   316.4    0.01662  -0.04192  -0.08386   0.00845
  0-1A  -> 11-1A    4.627798   37325.7   267.9    0.27946  -0.00020   0.00057  -0.00019
  0-1A  -> 12-1A    4.627964   37327.1   267.9   -0.21318   0.00054   0.00009   0.00001
  0-1A  -> 13-1A    4.814394   38830.7   257.5   -0.12802   0.36395   0.02946  -0.00337
  0-1A  -> 14-1A    4.815082   38836.3   257.5   -0.04626   0.02971  -0.36186   0.03755
  0-1A  -> 15-1A    4.868779   39269.4   254.7   -0.00021   0.00402   0.00326  -0.00059
  0-1A  -> 16-1A    4.950156   39925.7   250.5   -0.00019  -0.00012   0.00014   0.00012
  0-1A  -> 17-1A    4.984250   40200.7   248.8    0.01992  -0.04057  -0.00158   0.00022
  0-1A  -> 18-1A    4.984643   40203.9   248.7   -0.00232   0.00191  -0.04146   0.00460
  0-1A  -> 19-1A    5.046726   40704.6   245.7   -0.01868   0.00593   0.00647  -0.00083
  0-1A  -> 20-1A    5.233949   42214.7   236.9   -1.55255   0.04155   0.08343  -0.01067
  0-1A  -> 21-1A    5.237432   42242.7   236.7    0.70982  -0.08740   0.04162  -0.02702
  0-1A  -> 22-1A    5.239645   42260.6   236.6    0.61954   0.00899   0.01105  -0.00038
  0-1A  -> 23-1A    5.273449   42533.2   235.1    0.00066   0.00023  -0.00017  -0.00011
  0-1A  -> 24-1A    5.279052   42578.4   234.9    0.01070   0.00031   0.00045  -0.00041
  0-1A  -> 25-1A    5.353415   43178.2   231.6   -1.28055  -0.00161   0.00160   0.00102
  0-1A  -> 26-1A    5.353672   43180.3   231.6    1.22255   0.00137   0.00165   0.00006
  0-1A  -> 27-1A    5.384439   43428.4   230.3    1.18376   0.08758   0.00182   0.55793
  0-1A  -> 28-1A    5.402984   43578.0   229.5   -1.46696   0.02426  -0.00921   0.05653
  0-1A  -> 29-1A    5.404076   43586.8   229.4    0.30638   0.00745  -0.00915   0.00798
  0-1A  -> 30-1A    5.409213   43628.3   229.2    0.04094  -0.07578  -0.11759   0.00042

------------------------------------------------------------------------------------------
                     CD SPECTRUM VIA TRANSITION VELOCITY DIPOLE MOMENTS    
------------------------------------------------------------------------------------------
     Transition      Energy     Energy  Wavelength    R        MX        MY        MZ   
                      (eV)      (cm-1)    (nm)   (1e40*cgs)   (au)      (au)      (au)  
------------------------------------------------------------------------------------------
  0-1A  ->  1-1A    2.376208   19165.4   521.8   -0.01607  -0.00017  -0.00008   0.00004
  0-1A  ->  2-1A    2.376464   19167.5   521.7    0.03826  -0.00025   0.00027  -0.00002
  0-1A  ->  3-1A    3.191658   25742.5   388.5    0.03577   0.02168   0.11564   1.21755
  0-1A  ->  4-1A    3.284143   26488.4   377.5   -0.00080  -0.00026  -0.00043   0.00035
  0-1A  ->  5-1A    3.364419   27135.9   368.5   -1.25897  -0.00054  -0.00027  -0.00006
  0-1A  ->  6-1A    3.364725   27138.3   368.5    0.90918   0.00031  -0.00028   0.00014
  0-1A  ->  7-1A    3.407322   27481.9   363.9    0.00187  -0.00086   0.00087  -0.00025
  0-1A  ->  8-1A    3.815695   30775.7   324.9    0.00001  -0.00004   0.00020   0.00008
  0-1A  ->  9-1A    3.918426   31604.2   316.4   -0.02852   0.08417  -0.04201   0.00101
  0-1A  -> 10-1A    3.918505   31604.9   316.4    0.01635  -0.04192  -0.08386   0.00845
  0-1A  -> 11-1A    4.627798   37325.7   267.9    0.28044  -0.00020   0.00057  -0.00019
  0-1A  -> 12-1A    4.627964   37327.1   267.9   -0.21394   0.00054   0.00009   0.00001
  0-1A  -> 13-1A    4.814394   38830.7   257.5   -0.12830   0.36395   0.02946  -0.00337
  0-1A  -> 14-1A    4.815082   38836.3   257.5   -0.04828   0.02971  -0.36186   0.03755
  0-1A  -> 15-1A    4.868779   39269.4   254.7   -0.00020   0.00402   0.00326  -0.00059
  0-1A  -> 16-1A    4.950156   39925.7   250.5   -0.00019  -0.00012   0.00014   0.00012
  0-1A  -> 17-1A    4.984250   40200.7   248.8    0.01999  -0.04057  -0.00158   0.00022
  0-1A  -> 18-1A    4.984643   40203.9   248.7   -0.00230   0.00191  -0.04146   0.00460
  0-1A  -> 19-1A    5.046726   40704.6   245.7   -0.01843   0.00593   0.00647  -0.00083
  0-1A  -> 20-1A    5.233949   42214.7   236.9   -1.53900   0.04155   0.08343  -0.01067
  0-1A  -> 21-1A    5.237432   42242.7   236.7    0.70470  -0.08740   0.04162  -0.02702
  0-1A  -> 22-1A    5.239645   42260.6   236.6    0.61422   0.00899   0.01105  -0.00038
  0-1A  -> 23-1A    5.273449   42533.2   235.1    0.00065   0.00023  -0.00017  -0.00011
  0-1A  -> 24-1A    5.279052   42578.4   234.9    0.01063   0.00031   0.00045  -0.00041
  0-1A  -> 25-1A    5.353415   43178.2   231.6   -1.28464  -0.00161   0.00160   0.00102
  0-1A  -> 26-1A    5.353672   43180.3   231.6    1.22663   0.00137   0.00165   0.00006
  0-1A  -> 27-1A    5.384439   43428.4   230.3    1.20604   0.08758   0.00182   0.55793
  0-1A  -> 28-1A    5.402984   43578.0   229.5   -1.49109   0.02426  -0.00921   0.05653
  0-1A  -> 29-1A    5.404076   43586.8   229.4    0.31009   0.00745  -0.00915   0.00798
  0-1A  -> 30-1A    5.409213   43628.3   229.2    0.04689  -0.07578  -0.11759   0.00042

Total run time:    28390.609 sec

           *** ORCA-CIS/TD-DFT FINISHED WITHOUT ERROR ***
-----------------------
CIS/TD-DFT TOTAL ENERGY
-----------------------

    E(SCF)  =  -2032.143916916 Eh
    DE(CIS) =      0.087324048 Eh (Root  1)
    ----------------------------- ---------
    E(tot)  =  -2032.056592869 Eh


Maximum memory used throughout the entire CIS-calculation: 2556.7 MB
=> NOW LEAVING ORCA_CIS


-------------------------------------------------------------------------------
                          DFT DISPERSION CORRECTION                            
                                                                               
                              DFTD3 V3.1  Rev 1                                
                              USING zero damping                               
-------------------------------------------------------------------------------
The omegaB97X-D3 functional is recognized. Fit by Chai et al.
Active option DFTDOPT                   ...         3   

molecular C6(AA) [au] = 90423.042873 


            DFT-D V3
 parameters
 s6 scaling factor         :     1.0000 
 rs6 scaling factor        :     1.2810 
 s8 scaling factor         :     1.0000 
 rs8 scaling factor        :     1.0940 
 Damping factor alpha6     :    14.0000 
 Damping factor alpha8     :    16.0000 
 ad hoc parameters k1-k3   :    16.0000     1.3333    -4.0000 

 Edisp/kcal,au: -31.742404188515  -0.050584735553 
 E6   /kcal   : -15.014356638 
 E8   /kcal   : -16.728047551 
 % E8         :  52.699371641 

-------------------------   ----------------
Dispersion correction           -0.050584736
-------------------------   ----------------


-------------------------   --------------------
FINAL SINGLE POINT ENERGY     -2032.107177604179
-------------------------   --------------------



           ************************************************************
           *        Program running with 8 parallel MPI-processes     *
           *              working on a common directory               *
           ************************************************************

------------------------------------------------------------------------------
                              ORCA PROPERTY CALCULATIONS
------------------------------------------------------------------------------

GBWName                                 ... tddft.gbw
Number of atoms                         ...     77
Number of basis functions               ...   1696
Max core memory                         ...   3000 MB

Electric properties:
Dipole moment                           ... YES
Quadrupole moment                       ...  NO
Static polarizability (Dipole/Dipole)   ...  NO
Static polarizability (Dipole/Quad.)    ...  NO
Static polarizability (Quad./Quad.)     ...  NO
Static polarizability (Velocity)        ...  NO
Static hyperpolarizability              ...  NO

Atomic electric properties:
Dipole moment                           ...  NO
Quadrupole moment                       ...  NO
Static polarizability                   ...  NO

Choice of electric origin               ... Center of mass
Position of electric origin             ...    -0.159740     5.088996     6.548052

General magnetic properties:
Magnetizability                         ...  NO

EPR properties:
g-Tensor (aka g-matrix)                 ...  NO
Zero-Field splitting spin-orbit         ...  NO
Zero-field splitting spin-spin          ...  NO
Hyperfine couplings                     ...  NO (   0 nuclei)
Quadrupole couplings                    ...  NO (   0 nuclei)
Contact density                         ...  NO (   0 nuclei)

NMR properties:
Chemical shifts                         ...  NO (   0 nuclei)
Spin-rotation constants                 ...  NO (   0 nuclei)
Spin-spin couplings                     ...  NO (   0 nuclei,    0 pairs)

Choice of magnetic origin               ... GIAO
Position of magnetic origin             ...     0.000000     0.000000     0.000000

Properties with geometric perturbations:
SCF Hessian                             ...  NO
IR spectrum                             ...  NO
VCD spectrum                            ...  NO
X-ray spectroscopy properties:
SCF XES/XAS/RIXS spectra                ...  NO

SCF SOC stabilization energy            ...  NO
Diagonal Born-Oppenheimer correction    ...  NO

-------------
DIPOLE MOMENT
-------------

Method             : SCF
Type of density    : Electron Density
Multiplicity       :   1
Irrep              :   0
Energy             : -2032.1439169163029419 Eh
Basis              : AO
                                X                 Y                 Z
Electronic contribution:     -0.007189537       0.005767386       0.030279605
Nuclear contribution   :      0.007463989      -0.005700084      -0.030643895
                        -----------------------------------------
Total Dipole Moment    :      0.000274451       0.000067302      -0.000364289
                        -----------------------------------------
Magnitude (a.u.)       :      0.000461042
Magnitude (Debye)      :      0.001171876



--------------------
Rotational spectrum 
--------------------
 
Rotational constants in cm-1:             0.001952             0.001952             0.001017 
Rotational constants in MHz :            58.530984            58.525184            30.503212 

Dipole components along the rotational axes: 
x,y,z [a.u.] :     0.000016     0.000298    -0.000351 
x,y,z [Debye]:     0.000041     0.000758    -0.000892 

 

Dipole moment calculation done in   0.2 sec 

Maximum memory used throughout the entire PROP-calculation: 233.3 MB

--------------------------------
SUGGESTED CITATIONS FOR THIS RUN
--------------------------------

Below you find a list of papers that are relevant to this ORCA run
We neither can nor want to force you to cite these papers, but we appreciate if you do
You receive ORCA, which is the product of decades of hard work by many enthusiastic individuals, for free
The only thing we kindly ask in return is that you cite our papers,
We deeply appreciate it, if you show your appreciation for ORCA by not just citing the generic ORCA reference.

Please note that relegating all ORCA citations to the supporting information does *not* help us.
SI sections are not indexed - citations you put there will not count into any citation statistics
But we need these citations in order to attract the funding resources that allow us to do what we are doing

Therefore, if you are a happy ORCA user, please consider citing a few of the papers listed below in the main body of your paper

In addition to the list printed below, the program has created the file tddft.bibtex that contains the list in bibtex format
You can import this file easily into all common literature databanks and citation aid programs

It goes without saying that in many instances, there are alternative algorithms to achieve similar
results as the ones you have gotten from ORCA. It is, of course, also the case that in some instances
ORCA just re-implements algorithms worked out by others. We are fully aware of that and we are also
fully appreciative of our colleagues work. Hence this citation list should not be read as indicating
that the listed papers, which are focused on our own work, are the only ones worth citing. It simply
meant to make it easier for users to cite ORCA specific papers. It is not a substitute for doing your
own literature research and citing the relevant literature in a scientifically appropriate manner.

List of essential papers. We consider these as the minimum necessary citations

  1. Neese, F.
     Software update: the ORCA program system, version 6.0
     WIRES Comput. Molec. Sci. 2025 15(1), e70019
     doi.org/10.1002/wcms.70019

List of papers to cite with high priority. The work reported in these papers was absolutely
necessary for this run to complete.
Our perspective: the developers of density functionals and basis sets usually get cited in chemistry papers
Good! But without the algorithms to do something with them, the functionals or basis sets would not do anything.
Hence, in our opinion, the algorithm design and method developments papers are equally worthy of getting cited

  1. Neese, F.; Olbrich, G.
     Efficient use of the resolution of the identity approximation in time-dependent density functional calculations with hybrid density functionals
     Chem. Phys. Lett. 2002 362 , 170-178
     doi.org/10.1016/s0009-2614(02)01053-9
  2. Neese, F.
     An improvement of the resolution of the identity approximation for the formation of the Coulomb matrix
     J. Comp. Chem. 2003 24(14), 1740-1747
     doi.org/10.1002/jcc.10318
  3. Neese, F.; Wennmohs, F.; Hansen, A.; Becker, U.
     Efficient, approximate and parallel Hartree-Fock and hybrid DFT calculations. A 'chain-of-spheres' algorithm for the Hartree-Fock exchange
     Chem. Phys. 2009 356(1-3), 98-109
     doi.org/10.1016/j.chemphys.2008.10.036
  4. Grimme, S.; Antony, J.; Ehrlich, S.; Krieg, H.
     A consistent and accurate ab initio parametrization of density functional dispersion correction (DFT-D) for the 94 elements H-Pu
     J. Chem. Phys. 2010 132 , 154104
     doi.org/10.1063/1.3382344
  5. Garcia-Rates, M.; Neese, F.
     Effect of the Solute Cavity on the Solvation Energy and its Derivatives within the Framework of the Gaussian Charge Scheme
     J. Comput. Chem. 2020 41 , 922-939
     doi.org/10.1002/jcc.26139
  6. Helmich-Paris, B.; de Souza, B.; Neese, F.; Izsák, R.
     An improved chain of spheres for exchange algorithm
     J. Chem. Phys. 2021 155(10), 104109
     doi.org/10.1063/5.0058766
  7. Neese, F.
     The SHARK Integral Generation and Digestion System
     J. Comp. Chem. 2022 44(3), 381
     doi.org/10.1002/jcc.26942

List of suggested additional citations. These are papers that are important in the 'surrounding' of 
of this run, or papers that preceded the highly important papers. If you like your results we are grateful for a citation.

  1. Izsak, R.; Neese, F.
     An overlap fitted chain of spheres exchange method
     J. Chem. Phys. 2011 135 , 144105
     doi.org/10.1063/1.3646921
  2. Izsak, R.; Hansen, A.; Neese, F.
     The resolution of identity and chain of spheres approximations for the LPNO-CCSD singles Fock term
     Molec. Phys. 2012 110 , 2413-2417
     doi.org/10.1080/00268976.2012.687466
  3. Neese, F.
     The ORCA program system
     WIRES Comput. Molec. Sci. 2012 2(1), 73-78
     doi.org/10.1002/wcms.81
  4. Izsak, R.; Neese, F.; Klopper, W.
     Robust fitting techniques in the chain of spheres approximation to the Fock exchange: The role of the complementary space
     J. Chem. Phys. 2013 139 , 
     doi.org/10.1063/1.4819264
  5. Neese, F.
     Software update: the ORCA program system, version 4.0
     WIRES Comput. Molec. Sci. 2018 8(1), 1-6
     doi.org/10.1002/wcms.1327
  6. Neese, F.; Wennmohs, F.; Becker, U.; Riplinger, C.
     The ORCA quantum chemistry program package
     J. Chem. Phys. 2020 152(22), 224108
     doi.org/10.1063/5.0004608
  7. Neese, F.
     Software update: The ORCA program system—Version 5.0
     WIRES Comput. Molec. Sci. 2022 12(1), e1606
     doi.org/10.1002/wcms.1606

List of optional additional citations

  1. Neese, F.
     Approximate second-order SCF convergence for spin unrestricted wavefunctions
     Chem. Phys. Lett. 2000 325(1-3), 93-98
     doi.org/10.1016/s0009-2614(00)00662-x

Timings for individual modules:

Sum of individual times          ...    34329.899 sec (= 572.165 min)
Startup calculation              ...       80.164 sec (=   1.336 min)   0.2 %
SCF iterations                   ...     5850.221 sec (=  97.504 min)  17.0 %
Property integrals               ...        6.878 sec (=   0.115 min)   0.0 %
Property calculations            ...        1.207 sec (=   0.020 min)   0.0 %
CIS module                       ...    28391.429 sec (= 473.190 min)  82.7 %
                             ****ORCA TERMINATED NORMALLY****
TOTAL RUN TIME: 0 days 9 hours 32 minutes 10 seconds 434 msec
